 Gaussian 16, Revision A.03,

 -----------------------------------------------------------
 # opt freq B3LYP/6-31G(d) empiricaldispersion=gd3bj scf=xqc
 -----------------------------------------------------------

 -------------------------------
 CID_102260593_JID_7757_neutraal
 -------------------------------
 Symbolic Z-matrix:
 Charge =  0 Multiplicity = 1

 SCF Done:  E(RB3LYP) =  -732.953565801     A.U. after   15 cycles
 SCF Done:  E(RB3LYP) =  -732.956960690     A.U. after   14 cycles
 SCF Done:  E(RB3LYP) =  -732.956569565     A.U. after   13 cycles
 SCF Done:  E(RB3LYP) =  -732.958706421     A.U. after   12 cycles
 SCF Done:  E(RB3LYP) =  -732.959380206     A.U. after   14 cycles
 SCF Done:  E(RB3LYP) =  -732.959780213     A.U. after   15 cycles
 SCF Done:  E(RB3LYP) =  -732.959868573     A.U. after   12 cycles
 SCF Done:  E(RB3LYP) =  -732.959910461     A.U. after   11 cycles
 SCF Done:  E(RB3LYP) =  -732.959913917     A.U. after   10 cycles
 SCF Done:  E(RB3LYP) =  -732.959914198     A.U. after    7 cycles
 SCF Done:  E(RB3LYP) =  -732.959914484     A.U. after    8 cycles
 SCF Done:  E(RB3LYP) =  -732.959914602     A.U. after    7 cycles
 SCF Done:  E(RB3LYP) =  -732.959914674     A.U. after    7 cycles
 SCF Done:  E(RB3LYP) =  -732.959914689     A.U. after    7 cycles
 SCF Done:  E(RB3LYP) =  -732.959914693     A.U. after    6 cycles
 Optimization completed.
    -- Stationary point found.
 Normal termination of Gaussian 16 at Sun Dec 13 12:29:41 2020.

 --------------------------------------------------------------------
 #N Geom=AllCheck Guess=TCheck SCRF=Check GenChk RB3LYP/6-31G(d) Freq
 --------------------------------------------------------------------

 Structure from the checkpoint file:  "JID_7757.chk"
 -------------------------------
 CID_102260593_JID_7757_neutraal
 -------------------------------
 Charge =  0 Multiplicity = 1

 SCF Done:  E(RB3LYP) =  -732.959914693     A.U. after    1 cycles

  Exact polarizability: 226.557  -5.304 169.650   0.004   0.002  94.196
 Approx polarizability: 304.701  -3.768 272.662   0.008   0.006 135.280

                      1                      2                      3
                      A                      A                      A
 Frequencies --     17.2988                18.9955                36.7499
 Red. masses --      3.0440                 3.8748                 4.5634
 Frc consts  --      0.0005                 0.0008                 0.0036
 IR Inten    --      0.1981                 0.1619                 0.1373

                      4                      5                      6
                      A                      A                      A
 Frequencies --     53.1988                96.1350               107.6234
 Red. masses --      5.1570                 8.1315                 3.6161
 Frc consts  --      0.0086                 0.0443                 0.0247
 IR Inten    --      1.3239                 0.1593                 0.4571

                      7                      8                      9
                      A                      A                      A
 Frequencies --    167.5790               173.8501               233.4434
 Red. masses --      3.6688                 4.7376                 1.7692
 Frc consts  --      0.0607                 0.0844                 0.0568
 IR Inten    --      0.4233                 0.0024                 0.0228

                     10                     11                     12
                      A                      A                      A
 Frequencies --    238.5665               272.9070               311.9441
 Red. masses --      3.0102                 7.2803                 2.3246
 Frc consts  --      0.1009                 0.3195                 0.1333
 IR Inten    --      3.1874                 7.5235                 2.5320

                     13                     14                     15
                      A                      A                      A
 Frequencies --    357.9598               412.9790               416.0094
 Red. masses --      3.6180                 3.8702                 2.9761
 Frc consts  --      0.2731                 0.3889                 0.3035
 IR Inten    --      0.6048                 9.6462                 0.0000

                     16                     17                     18
                      A                      A                      A
 Frequencies --    425.7317               440.7757               451.6331
 Red. masses --      2.3459                 3.0645                 3.6755
 Frc consts  --      0.2505                 0.3508                 0.4417
 IR Inten    --      0.4396                 0.3796                 0.0366

                     19                     20                     21
                      A                      A                      A
 Frequencies --    489.4093               537.0873               546.5726
 Red. masses --      4.6425                 1.7152                 3.7948
 Frc consts  --      0.6552                 0.2915                 0.6679
 IR Inten    --      2.7922                 2.3998                 2.3463

                     22                     23                     24
                      A                      A                      A
 Frequencies --    633.5218               642.4791               696.4017
 Red. masses --      6.3087                 4.9025                 4.0252
 Frc consts  --      1.4918                 1.1923                 1.1501
 IR Inten    --      1.3208                 3.2285                 0.0769

                     25                     26                     27
                      A                      A                      A
 Frequencies --    700.3262               715.8245               791.0543
 Red. masses --      6.3140                 1.6426                 1.3896
 Frc consts  --      1.8246                 0.4959                 0.5124
 IR Inten    --     12.1863                74.3775                19.6660

                     28                     29                     30
                      A                      A                      A
 Frequencies --    803.6630               808.0888               808.6110
 Red. masses --      1.4565                 2.5432                 2.3774
 Frc consts  --      0.5542                 0.9785                 0.9159
 IR Inten    --      0.5327                 3.5166                 0.7603

                     31                     32                     33
                      A                      A                      A
 Frequencies --    855.8223               866.7001               886.0782
 Red. masses --      2.2114                 1.2470                 3.4136
 Frc consts  --      0.9543                 0.5519                 1.5791
 IR Inten    --      0.5766                 0.1406                 4.6227

                     34                     35                     36
                      A                      A                      A
 Frequencies --    910.1873               921.3753               941.5225
 Red. masses --      1.7361                 2.4246                 1.5750
 Frc consts  --      0.8474                 1.2127                 0.8226
 IR Inten    --      8.3462                 0.3656                 0.0012

                     37                     38                     39
                      A                      A                      A
 Frequencies --    954.1760               962.9945               969.2576
 Red. masses --      1.3956                 1.2493                 2.7829
 Frc consts  --      0.7486                 0.6826                 1.5404
 IR Inten    --      0.8933                 0.3818                 7.5856

                     40                     41                     42
                      A                      A                      A
 Frequencies --    983.0589              1008.8841              1023.2397
 Red. masses --      1.3510                 1.2741                 6.2513
 Frc consts  --      0.7693                 0.7641                 3.8563
 IR Inten    --      0.1380                 0.0697                 4.4125

                     43                     44                     45
                      A                      A                      A
 Frequencies --   1023.6539              1047.8208              1058.0597
 Red. masses --      2.8034                 1.8071                 2.1812
 Frc consts  --      1.7308                 1.1690                 1.4387
 IR Inten    --     10.8335                 3.7029                19.3077

                     46                     47                     48
                      A                      A                      A
 Frequencies --   1066.5168              1099.8633              1104.8125
 Red. masses --      1.5462                 1.0847                 2.8308
 Frc consts  --      1.0362                 0.7731                 2.0358
 IR Inten    --      0.5050                 0.2047                 0.0897

                     49                     50                     51
                      A                      A                      A
 Frequencies --   1111.4517              1123.0793              1151.0012
 Red. masses --      1.6635                 2.6959                 3.6489
 Frc consts  --      1.2107                 2.0034                 2.8482
 IR Inten    --     51.7355                 0.6105               262.8068

                     52                     53                     54
                      A                      A                      A
 Frequencies --   1187.6223              1195.7294              1208.9898
 Red. masses --      2.6233                 1.1044                 1.1519
 Frc consts  --      2.1800                 0.9303                 0.9920
 IR Inten    --     30.3544                 0.2115                66.5304

                     55                     56                     57
                      A                      A                      A
 Frequencies --   1212.7683              1252.9686              1291.8942
 Red. masses --      1.4000                 1.3643                 1.2290
 Frc consts  --      1.2132                 1.2620                 1.2085
 IR Inten    --      0.0087                75.6109                43.5736

                     58                     59                     60
                      A                      A                      A
 Frequencies --   1298.1227              1302.7631              1309.5992
 Red. masses --      3.7490                 1.2793                 1.3547
 Frc consts  --      3.7222                 1.2793                 1.3689
 IR Inten    --    591.3854                 2.8858                66.3289

                     61                     62                     63
                      A                      A                      A
 Frequencies --   1337.0805              1347.2056              1353.4137
 Red. masses --      1.2330                 1.2640                 1.4962
 Frc consts  --      1.2988                 1.3517                 1.6148
 IR Inten    --     33.7573                 0.4569                 6.9150

                     64                     65                     66
                      A                      A                      A
 Frequencies --   1371.2536              1381.9271              1391.3000
 Red. masses --      4.8837                 1.3510                 1.3557
 Frc consts  --      5.4105                 1.5201                 1.5462
 IR Inten    --      2.1705                 1.6309                 0.0544

                     67                     68                     69
                      A                      A                      A
 Frequencies --   1400.7460              1402.7732              1406.3433
 Red. masses --      1.4780                 1.4858                 1.4197
 Frc consts  --      1.7086                 1.7226                 1.6544
 IR Inten    --      0.1375                 2.5043                 1.4420

                     70                     71                     72
                      A                      A                      A
 Frequencies --   1433.7064              1499.5272              1511.3409
 Red. masses --      1.5506                 2.2640                 1.0864
 Frc consts  --      1.8779                 2.9994                 1.4621
 IR Inten    --     13.2913                12.9289                 0.0113

                     73                     74                     75
                      A                      A                      A
 Frequencies --   1514.8691              1517.7494              1521.6410
 Red. masses --      1.0925                 1.0970                 1.0823
 Frc consts  --      1.4771                 1.4889                 1.4764
 IR Inten    --      1.9194                 2.2960                 9.8045

                     76                     77                     78
                      A                      A                      A
 Frequencies --   1536.2103              1543.1157              1644.1534
 Red. masses --      1.0997                 2.2433                 5.7339
 Frc consts  --      1.5291                 3.1473                 9.1324
 IR Inten    --      0.3051                 1.8756                 3.8368

                     79                     80                     81
                      A                      A                      A
 Frequencies --   1664.5999              1753.6289              1807.5037
 Red. masses --      5.5772                 6.7416                12.5223
 Frc consts  --      9.1052                12.2149                24.1041
 IR Inten    --     16.2885                15.3551               297.1220

                     82                     83                     84
                      A                      A                      A
 Frequencies --   3017.2140              3020.8589              3021.6702
 Red. masses --      1.0691                 1.0674                 1.0723
 Frc consts  --      5.7345                 5.7389                 5.7685
 IR Inten    --     20.8003                20.9130                 8.0516

                     85                     86                     87
                      A                      A                      A
 Frequencies --   3024.8889              3028.6054              3049.7094
 Red. masses --      1.0626                 1.0605                 1.0807
 Frc consts  --      5.7285                 5.7310                 5.9220
 IR Inten    --      4.4277                47.5692                20.8453

                     88                     89                     90
                      A                      A                      A
 Frequencies --   3072.4104              3073.1277              3077.1974
 Red. masses --      1.0973                 1.0932                 1.0994
 Frc consts  --      6.1027                 6.0829                 6.1336
 IR Inten    --     66.5604                76.4630                32.3193

                     91                     92                     93
                      A                      A                      A
 Frequencies --   3079.0422              3084.6940              3170.5777
 Red. masses --      1.0976                 1.1007                 1.0876
 Frc consts  --      6.1310                 6.1706                 6.4414
 IR Inten    --     35.6936                86.2716                11.9812

                     94                     95                     96
                      A                      A                      A
 Frequencies --   3188.7512              3200.8490              3211.1724
 Red. masses --      1.0859                 1.0900                 1.0949
 Frc consts  --      6.5053                 6.5797                 6.6521
 IR Inten    --      0.2482                15.0957                25.5050

                     97                     98                     99
                      A                      A                      A
 Frequencies --   3229.4743              3236.4294              3256.2892
 Red. masses --      1.0933                 1.0928                 1.0950
 Frc consts  --      6.7180                 6.7441                 6.8406
 IR Inten    --      6.2772                 3.2116                16.6291

 - Thermochemistry -
 -------------------
 Temperature   298.150 Kelvin.  Pressure   1.00000 Atm.
 Atom     1 has atomic number  6 and mass  12.00000

 Molecular mass:   230.13068 amu.
 Principal axes and moments of inertia in atomic units:
                           1         2         3
     Eigenvalues --  2083.120138759.03588**********
           X            1.00000   0.00138   0.00000
           Y           -0.00138   1.00000   0.00000
           Z           -0.00000  -0.00000   1.00000
 This molecule is an asymmetric top.
 Rotational symmetry number  1.
 Warning -- assumption of classical behavior for rotation
           may cause significant error
 Rotational temperatures (Kelvin)      0.04158     0.00989     0.00857
 Rotational constants (GHZ):           0.86636     0.20604     0.17853
 Zero-point vibrational energy     790250.0 (Joules/Mol)
                                  188.87428 (Kcal/Mol)
 Warning -- explicit consideration of  21 degrees of freedom as
           vibrations may cause significant error
 Vibrational temperatures:     24.89    27.33    52.87    76.54   138.32
          (Kelvin)            154.85   241.11   250.13   335.87   343.24
                              392.65   448.82   515.02   594.18   598.54
                              612.53   634.18   649.80   704.15   772.75
                              786.40   911.50   924.38  1001.97  1007.61
                             1029.91  1138.15  1156.29  1162.66  1163.41
                             1231.34  1246.99  1274.87  1309.56  1325.65
                             1354.64  1372.85  1385.53  1394.55  1414.40
                             1451.56  1472.21  1472.81  1507.58  1522.31
                             1534.48  1582.46  1589.58  1599.13  1615.86
                             1656.03  1708.72  1720.39  1739.47  1744.90
                             1802.74  1858.75  1867.71  1874.39  1884.22
                             1923.76  1938.33  1947.26  1972.93  1988.28
                             2001.77  2015.36  2018.28  2023.41  2062.78
                             2157.49  2174.48  2179.56  2183.70  2189.30
                             2210.26  2220.20  2365.57  2394.99  2523.08
                             2600.59  4341.10  4346.34  4347.51  4352.14
                             4357.49  4387.85  4420.51  4421.55  4427.40
                             4430.06  4438.19  4561.75  4587.90  4605.31
                             4620.16  4646.49  4656.50  4685.07

 Zero-point correction=                           0.300990 (Hartree/Particle)
 Thermal correction to Energy=                    0.316232
 Thermal correction to Enthalpy=                  0.317176
 Thermal correction to Gibbs Free Energy=         0.255287
 Sum of electronic and zero-point Energies=           -732.658924
 Sum of electronic and thermal Energies=              -732.643683
 Sum of electronic and thermal Enthalpies=            -732.642739
 Sum of electronic and thermal Free Energies=         -732.704628

                     E (Thermal)             CV                S
                      KCal/Mol        Cal/Mol-Kelvin    Cal/Mol-Kelvin
 Total                  198.438             59.005            130.256
 Electronic               0.000              0.000              0.000
 Translational            0.889              2.981             42.202
 Rotational               0.889              2.981             33.578
 Vibrational            196.661             53.044             54.476
 Vibration     1          0.593              1.986              6.922
 Vibration     2          0.593              1.986              6.737
 Vibration     3          0.594              1.982              5.427
 Vibration     4          0.596              1.976              4.695
 Vibration     5          0.603              1.952              3.531
 Vibration     6          0.606              1.943              3.311
 Vibration     7          0.624              1.882              2.462
 Vibration     8          0.627              1.875              2.393
 Vibration     9          0.654              1.790              1.852
 Vibration    10          0.657              1.782              1.814
 Vibration    11          0.676              1.723              1.578
 Vibration    12          0.700              1.651              1.352
 Vibration    13          0.733              1.559              1.131
 Vibration    14          0.777              1.442              0.916
 Vibration    15          0.779              1.435              0.906
 Vibration    16          0.788              1.414              0.873
 Vibration    17          0.801              1.381              0.824
 Vibration    18          0.810              1.357              0.791
 Vibration    19          0.845              1.274              0.685
 Vibration    20          0.892              1.168              0.572
 Vibration    21          0.902              1.147              0.551

 Optimization completed.
    -- Stationary point found.
 Normal termination of Gaussian 16 at Sun Dec 13 12:40:51 2020.

 ----------------------------------------------------------------------
 # B3LYP/6-311++G(d,p) empiricaldispersion=gd3bj scf=xqc pop=npa geom=c
 heck
 ----------------------------------------------------------------------

 ---------------------------------------
 CID_102260593_JID_7757_Energie_neutraal
 ---------------------------------------
 Structure from the checkpoint file:  "JID_7757.chk"
 Charge =  0 Multiplicity = 1

 SCF Done:  E(RB3LYP) =  -733.158025414     A.U. after   15 cycles
 Normal termination of Gaussian 16 at Sun Dec 13 12:46:33 2020.

 ----------------------------------------------------------------------
 # B3LYP/6-311++G(d,p) empiricaldispersion=gd3bj scf=xqc pop=npa geom=c
 heck
 ----------------------------------------------------------------------

 -------------------------------------
 CID_102260593_JID_7757_Energie_kation
 -------------------------------------
 Structure from the checkpoint file:  "JID_7757.chk"
 Charge =  1 Multiplicity = 2

 SCF Done:  E(UB3LYP) =  -732.849774085     A.U. after   24 cycles
 Normal termination of Gaussian 16 at Sun Dec 13 13:00:12 2020.
 Gaussian 16:  ES64L-G16RevA.03 25-Dec-2016

 ----------------------------------------------------------------------
 # B3LYP/6-311++G(d,p) empiricaldispersion=gd3bj scf=xqc pop=npa geom=c
 heck
 ----------------------------------------------------------------------

 ------------------------------------
 CID_102260593_JID_7757_Energie_anion
 ------------------------------------
 Structure from the checkpoint file:  "JID_7757.chk"
 Charge = -1 Multiplicity = 2

                         Standard orientation:
 ---------------------------------------------------------------------
 Center     Atomic      Atomic             Coordinates (Angstroms)
 Number     Number       Type             X           Y           Z
 ---------------------------------------------------------------------
      1          6           0       -4.704266   -1.373864    0.000125
      2          6           0       -3.862166   -1.165332   -1.265085
      3          6           0       -3.181668    0.209585   -1.265952
      4          6           0       -2.325713    0.425640   -0.000058
      5          6           0       -3.181510    0.209627    1.265959
      6          6           0       -3.862009   -1.165289    1.265223
      7          6           0       -1.697147    1.789391   -0.000103
      8          6           0       -0.393759    2.060488   -0.000093
      9          8           0        0.533823    1.029912   -0.000051
     10          6           0        1.859664    1.358229    0.000004
     11          8           0        2.265083    2.501528    0.000058
     12          6           0        2.722625    0.150715   -0.000005
     13          6           0        2.197648   -1.148650   -0.000134
     14          6           0        3.058697   -2.243382   -0.000139
     15          6           0        4.441533   -2.047755   -0.000016
     16          6           0        4.966457   -0.753047    0.000111
     17          6           0        4.110384    0.343899    0.000116
     18          1           0       -5.151161   -2.375746    0.000169
     19          1           0       -5.538456   -0.656986    0.000163
     20          1           0       -3.091408   -1.948141   -1.318581
     21          1           0       -4.484342   -1.277352   -2.161670
     22          1           0       -3.949488    0.996334   -1.313924
     23          1           0       -2.554477    0.329031   -2.157347
     24          1           0       -1.527637   -0.327939   -0.000092
     25          1           0       -3.949317    0.996385    1.314000
     26          1           0       -2.554197    0.329101    2.157264
     27          1           0       -4.484075   -1.277277    2.161889
     28          1           0       -3.091245   -1.948097    1.318653
     29          1           0       -2.369939    2.645337   -0.000119
     30          1           0        0.041948    3.051352   -0.000098
     31          1           0        1.123636   -1.292362   -0.000232
     32          1           0        2.651504   -3.250248   -0.000237
     33          1           0        5.110011   -2.904172   -0.000019
     34          1           0        6.041768   -0.600985    0.000205
     35          1           0        4.493009    1.358736    0.000212
 ---------------------------------------------------------------------

 SCF Done:  E(UB3LYP) =  -733.165374302     A.U. after   25 cycles

 The electronic state is 2-A.
 Alpha  occ. eigenvalues --  -19.02463 -18.92950 -10.11019 -10.09508 -10.08493
 Alpha  occ. eigenvalues --  -10.08037 -10.08036 -10.07140 -10.07135 -10.07095
 Alpha  occ. eigenvalues --  -10.04061 -10.02437 -10.02395 -10.01709 -10.01296
 Alpha  occ. eigenvalues --  -10.01279 -10.01196  -0.95682  -0.85741  -0.74649
 Alpha  occ. eigenvalues --   -0.70355  -0.68042  -0.65374  -0.62883  -0.59997
 Alpha  occ. eigenvalues --   -0.59545  -0.53025  -0.52104  -0.49912  -0.46689
 Alpha  occ. eigenvalues --   -0.45823  -0.44369  -0.41620  -0.38928  -0.38227
 Alpha  occ. eigenvalues --   -0.36102  -0.35223  -0.35097  -0.33495  -0.31384
 Alpha  occ. eigenvalues --   -0.30816  -0.30006  -0.29537  -0.29375  -0.29176
 Alpha  occ. eigenvalues --   -0.28074  -0.27625  -0.27503  -0.25662  -0.25013
 Alpha  occ. eigenvalues --   -0.23449  -0.22685  -0.22048  -0.21624  -0.20749
 Alpha  occ. eigenvalues --   -0.20252  -0.19706  -0.19241  -0.11971  -0.11798
 Alpha  occ. eigenvalues --   -0.10996  -0.10671   0.05202
 Alpha virt. eigenvalues --    0.05993   0.07725   0.07839   0.08834   0.09486
 Alpha virt. eigenvalues --    0.10099   0.10612   0.10909   0.11409   0.11850
 Alpha virt. eigenvalues --    0.12076   0.12763   0.13224   0.13261   0.13659

  Beta  occ. eigenvalues --  -19.02471 -18.92569 -10.10644 -10.09488 -10.08493
  Beta  occ. eigenvalues --  -10.08034 -10.08033 -10.07135 -10.07127 -10.07100
  Beta  occ. eigenvalues --  -10.03951 -10.02500 -10.02469 -10.01537 -10.01112
  Beta  occ. eigenvalues --  -10.01040 -10.00905  -0.95448  -0.85141  -0.74626
  Beta  occ. eigenvalues --   -0.69972  -0.67936  -0.65362  -0.62651  -0.59514
  Beta  occ. eigenvalues --   -0.59241  -0.52833  -0.52089  -0.49477  -0.46677
  Beta  occ. eigenvalues --   -0.45556  -0.44016  -0.41535  -0.38773  -0.38185
  Beta  occ. eigenvalues --   -0.36047  -0.35177  -0.35086  -0.33025  -0.30649
  Beta  occ. eigenvalues --   -0.30582  -0.29792  -0.29415  -0.29265  -0.29008
  Beta  occ. eigenvalues --   -0.27868  -0.27489  -0.27428  -0.25650  -0.24994
  Beta  occ. eigenvalues --   -0.23371  -0.22006  -0.21934  -0.21244  -0.20652
  Beta  occ. eigenvalues --   -0.20051  -0.19109  -0.18184  -0.11423  -0.11072
  Beta  occ. eigenvalues --   -0.10138  -0.09086
  Beta virt. eigenvalues --    0.05944   0.07667   0.07789   0.08773   0.09434
  Beta virt. eigenvalues --    0.10029   0.10541   0.10602   0.11367   0.11534
  Beta virt. eigenvalues --    0.11810   0.12029   0.12707   0.13195   0.13616

 Mulliken charges and spin densities:
               1          2
     1  C   -0.544694   0.003185
     2  C   -0.225815  -0.009735
     3  C   -0.350003   0.006746
     4  C   -0.311714  -0.034836
     5  C   -0.350008   0.006735
     6  C   -0.225801  -0.009733
     7  C   -0.037058   0.099140
     8  C    0.287457   0.019908
     9  O   -0.053066  -0.012368
    10  C   -0.294264   0.183887
    11  O   -0.396138   0.144433
    12  C    0.829287   0.058000
    13  C   -0.392795   0.148696
    14  C   -0.386550  -0.038990
    15  C   -0.295791   0.294486
    16  C   -0.421771  -0.041203
    17  C   -0.152564   0.208026
    18  H    0.151319   0.000024
    19  H    0.099020  -0.000054
    20  H    0.127725   0.003899
    21  H    0.138835   0.006406
    22  H    0.120694   0.002155
    23  H    0.188715  -0.000012
    24  H    0.084693   0.000585
    25  H    0.120689   0.002160
    26  H    0.188721  -0.000013
    27  H    0.138837   0.006403
    28  H    0.127724   0.003904
    29  H    0.158432  -0.005377
    30  H    0.182763  -0.003593
    31  H    0.012427  -0.013540
    32  H    0.127319   0.002642
    33  H    0.084768  -0.023817
    34  H    0.110745   0.003161
    35  H    0.157864  -0.011311
 Sum of Mulliken charges =  -1.00000   1.00000

 Dipole moment (field-independent basis, Debye):
    X=            -10.4540    Y=             -2.4129    Z=             -0.0000  Tot=             10.7289
 Quadrupole moment (field-independent basis, Debye-Ang):
   XX=           -158.6023   YY=           -127.1010   ZZ=           -114.3403
   XY=             -1.1879   XZ=              0.0000   YZ=             -0.0000

 Summary of Natural Population Analysis:

                                       Natural Population
                Natural  -----------------------------------------------
    Atom  No    Charge         Core      Valence    Rydberg      Total
 -----------------------------------------------------------------------
      C    1   -0.18913      0.99964     2.18248    0.00701     3.18913
      C    2   -0.18980      0.99963     2.18302    0.00715     3.18980
      C    3   -0.18276      0.99962     2.17565    0.00748     3.18276
      C    4   -0.13100      0.99958     2.12066    0.01076     3.13100
      C    5   -0.18276      0.99962     2.17565    0.00748     3.18276
      C    6   -0.18980      0.99963     2.18302    0.00715     3.18980
      C    7   -0.12056      0.99954     2.10969    0.01134     3.12056
      C    8    0.08106      0.99940     1.90746    0.01208     2.91894
      O    9   -0.28647      0.99985     3.27755    0.00907     4.28647
      C   10    0.44519      0.99963     1.53208    0.02310     2.55481
      O   11   -0.29118      0.99987     3.28584    0.00547     4.29118
      C   12   -0.05459      0.99946     2.04569    0.00943     3.05459
      C   13   -0.05460      0.99954     2.04646    0.00860     3.05460
      C   14   -0.13244      0.99958     2.12336    0.00951     3.13244
      C   15   -0.03702      0.99958     2.02777    0.00968     3.03702
      C   16   -0.13327      0.99957     2.12428    0.00942     3.13327
      C   17   -0.04522      0.99954     2.03658    0.00910     3.04522
      H   18    0.09371      0.00000     0.40515    0.00114     0.40629
      H   19    0.08913      0.00000     0.40955    0.00132     0.41087
      H   20    0.09404      0.00000     0.40465    0.00130     0.40596
      H   21    0.09331      0.00000     0.40548    0.00121     0.40669
      H   22    0.08825      0.00000     0.41049    0.00126     0.41175
      H   23    0.10277      0.00000     0.39630    0.00093     0.39723
      H   24    0.10586      0.00000     0.39212    0.00202     0.39414
      H   25    0.08825      0.00000     0.41049    0.00126     0.41175
      H   26    0.10277      0.00000     0.39630    0.00093     0.39723
      H   27    0.09331      0.00000     0.40548    0.00121     0.40669
      H   28    0.09404      0.00000     0.40465    0.00130     0.40596
      H   29    0.09080      0.00000     0.40833    0.00087     0.40920
      H   30    0.09878      0.00000     0.39926    0.00196     0.40122
      H   31    0.09683      0.00000     0.40213    0.00104     0.40317
      H   32    0.08854      0.00000     0.41033    0.00113     0.41146
      H   33    0.08294      0.00000     0.41554    0.00151     0.41706
      H   34    0.08887      0.00000     0.41003    0.00109     0.41113
      H   35    0.10213      0.00000     0.39680    0.00107     0.39787
 =======================================================================
   * Total *    0.00000     16.99328    44.82029    0.18643    62.00000

 Normal termination of Gaussian 16 at Sun Dec 13 13:14:41 2020.
