 Gaussian 16, Revision A.03,

 -----------------------------------------------------------
 # opt freq B3LYP/6-31G(d) empiricaldispersion=gd3bj scf=xqc
 -----------------------------------------------------------

 -------------------------------
 CID_141648636_JID_3534_neutraal
 -------------------------------
 Symbolic Z-matrix:
 Charge =  0 Multiplicity = 1

 SCF Done:  E(RB3LYP) =  -576.854657887     A.U. after   15 cycles
 SCF Done:  E(RB3LYP) =  -576.856205867     A.U. after   13 cycles
 SCF Done:  E(RB3LYP) =  -576.857003000     A.U. after   12 cycles
 SCF Done:  E(RB3LYP) =  -576.857525206     A.U. after   12 cycles
 SCF Done:  E(RB3LYP) =  -576.857929375     A.U. after   12 cycles
 SCF Done:  E(RB3LYP) =  -576.858380216     A.U. after   14 cycles
 SCF Done:  E(RB3LYP) =  -576.859337996     A.U. after   12 cycles
 SCF Done:  E(RB3LYP) =  -576.859729959     A.U. after   12 cycles
 SCF Done:  E(RB3LYP) =  -576.860078135     A.U. after   12 cycles
 SCF Done:  E(RB3LYP) =  -576.860295894     A.U. after   12 cycles
 SCF Done:  E(RB3LYP) =  -576.860651166     A.U. after   12 cycles
 SCF Done:  E(RB3LYP) =  -576.860732984     A.U. after   12 cycles
 SCF Done:  E(RB3LYP) =  -576.860798674     A.U. after   11 cycles
 SCF Done:  E(RB3LYP) =  -576.860803365     A.U. after   10 cycles
 SCF Done:  E(RB3LYP) =  -576.860803626     A.U. after    9 cycles
 SCF Done:  E(RB3LYP) =  -576.860804247     A.U. after    9 cycles
 Optimization completed.
    -- Stationary point found.
 Normal termination of Gaussian 16 at Wed Dec  9 23:36:59 2020.

 --------------------------------------------------------------------
 #N Geom=AllCheck Guess=TCheck SCRF=Check GenChk RB3LYP/6-31G(d) Freq
 --------------------------------------------------------------------

 Structure from the checkpoint file:  "JID_3534.chk"
 -------------------------------
 CID_141648636_JID_3534_neutraal
 -------------------------------
 Charge =  0 Multiplicity = 1

 SCF Done:  E(RB3LYP) =  -576.860804247     A.U. after    1 cycles

  Exact polarizability: 167.916   1.808 119.193   7.414  -2.288  71.880
 Approx polarizability: 226.549 -13.250 217.933  15.726  -8.254 113.845

                      1                      2                      3
                      A                      A                      A
 Frequencies --     46.1048                50.7481                78.6547
 Red. masses --      3.7034                 4.2876                 3.2513
 Frc consts  --      0.0046                 0.0065                 0.0119
 IR Inten    --      3.4808                 4.2174                 0.7823

                      4                      5                      6
                      A                      A                      A
 Frequencies --     96.4598               134.4374               161.0887
 Red. masses --      3.3970                 3.2876                 1.1877
 Frc consts  --      0.0186                 0.0350                 0.0182
 IR Inten    --      0.0596                 1.1885                 0.2590

                      7                      8                      9
                      A                      A                      A
 Frequencies --    220.5843               239.4750               274.4688
 Red. masses --      3.5626                 4.4378                 4.9834
 Frc consts  --      0.1021                 0.1499                 0.2212
 IR Inten    --      3.8556                 2.7451                 1.3977

                     10                     11                     12
                      A                      A                      A
 Frequencies --    308.2639               352.5612               377.1797
 Red. masses --      3.5906                 2.1128                 1.7993
 Frc consts  --      0.2010                 0.1547                 0.1508
 IR Inten    --      0.1745                72.8894                83.5608

                     13                     14                     15
                      A                      A                      A
 Frequencies --    397.1071               426.5272               460.1196
 Red. masses --      2.9426                 2.9343                 3.1020
 Frc consts  --      0.2734                 0.3145                 0.3869
 IR Inten    --     15.3982                 3.1721                27.4756

                     16                     17                     18
                      A                      A                      A
 Frequencies --    494.1917               546.1485               614.4109
 Red. masses --      4.7125                 3.2266                 3.5598
 Frc consts  --      0.6781                 0.5670                 0.7918
 IR Inten    --     15.7253                 6.5320                 6.0239

                     19                     20                     21
                      A                      A                      A
 Frequencies --    648.7328               667.6017               703.1688
 Red. masses --      5.2398                 1.8795                 3.9496
 Frc consts  --      1.2993                 0.4935                 1.1506
 IR Inten    --      0.0835                 6.7037                 7.9096

                     22                     23                     24
                      A                      A                      A
 Frequencies --    728.7433               810.2421               825.8692
 Red. masses --      2.7147                 1.9135                 4.1970
 Frc consts  --      0.8494                 0.7401                 1.6866
 IR Inten    --      1.8759                29.8943                14.1216

                     25                     26                     27
                      A                      A                      A
 Frequencies --    864.9544               875.9224               925.3786
 Red. masses --      1.8725                 1.2614                 3.1459
 Frc consts  --      0.8254                 0.5702                 1.5872
 IR Inten    --      7.5749                 5.2512                13.5950

                     28                     29                     30
                      A                      A                      A
 Frequencies --    966.3246               982.3446               991.1051
 Red. masses --      1.3366                 1.3465                 1.3561
 Frc consts  --      0.7354                 0.7656                 0.7849
 IR Inten    --     27.0276                 6.8434                12.2252

                     31                     32                     33
                      A                      A                      A
 Frequencies --   1000.3807              1008.0974              1039.2198
 Red. masses --      1.5220                 1.7839                 2.4216
 Frc consts  --      0.8974                 1.0681                 1.5409
 IR Inten    --     34.3434                23.5902                11.1180

                     34                     35                     36
                      A                      A                      A
 Frequencies --   1056.5224              1081.2700              1085.7124
 Red. masses --      1.8767                 4.7898                 1.4929
 Frc consts  --      1.2342                 3.2994                 1.0368
 IR Inten    --     20.1486                76.6473                 4.0642

                     37                     38                     39
                      A                      A                      A
 Frequencies --   1147.9041              1205.6054              1217.4059
 Red. masses --      1.3685                 1.3264                 1.1487
 Frc consts  --      1.0624                 1.1359                 1.0031
 IR Inten    --      3.7027                29.9859                12.3900

                     40                     41                     42
                      A                      A                      A
 Frequencies --   1234.4441              1235.9951              1334.9579
 Red. masses --      2.7926                 2.2850                 1.5385
 Frc consts  --      2.5073                 2.0567                 1.6154
 IR Inten    --     44.1017                41.5991                 4.9830

                     43                     44                     45
                      A                      A                      A
 Frequencies --   1344.8374              1361.7581              1399.8329
 Red. masses --      3.1780                 3.7267                 1.5366
 Frc consts  --      3.3864                 4.0717                 1.7741
 IR Inten    --     14.5952                95.0254                 6.7639

                     46                     47                     48
                      A                      A                      A
 Frequencies --   1428.6440              1433.9759              1459.2112
 Red. masses --      1.3722                 1.2404                 2.0461
 Frc consts  --      1.6501                 1.5027                 2.5669
 IR Inten    --     82.0212                 3.0880                17.4244

                     49                     50                     51
                      A                      A                      A
 Frequencies --   1468.5847              1502.3199              1522.7060
 Red. masses --      1.3554                 1.0477                 1.0560
 Frc consts  --      1.7223                 1.3932                 1.4426
 IR Inten    --     15.1441                 9.7162                16.1338

                     52                     53                     54
                      A                      A                      A
 Frequencies --   1525.5300              1554.7822              1624.1935
 Red. masses --      1.0980                 2.3696                 6.4596
 Frc consts  --      1.5055                 3.3749                10.0399
 IR Inten    --      0.8021                 1.4937                 7.5699

                     55                     56                     57
                      A                      A                      A
 Frequencies --   1669.5499              1709.1590              1737.2235
 Red. masses --      5.7356                 4.7309                11.9937
 Frc consts  --      9.4196                 8.1425                21.3263
 IR Inten    --     42.3502                13.4907               161.0325

                     58                     59                     60
                      A                      A                      A
 Frequencies --   3003.5220              3055.9418              3077.3553
 Red. masses --      1.0703                 1.0379                 1.0928
 Frc consts  --      5.6888                 5.7109                 6.0974
 IR Inten    --     57.5674                19.7307                22.3607

                     61                     62                     63
                      A                      A                      A
 Frequencies --   3115.9819              3144.6524              3170.1196
 Red. masses --      1.0969                 1.1041                 1.0612
 Frc consts  --      6.2750                 6.4330                 6.2835
 IR Inten    --     13.3944                13.4877                 8.9892

                     64                     65                     66
                      A                      A                      A
 Frequencies --   3179.6464              3207.8293              3223.3350
 Red. masses --      1.0892                 1.0875                 1.0922
 Frc consts  --      6.4882                 6.5933                 6.6859
 IR Inten    --     16.1484                 2.4240                10.3466

                     67                     68                     69
                      A                      A                      A
 Frequencies --   3224.0417              3256.1411              3732.2346
 Red. masses --      1.0934                 1.1144                 1.0661
 Frc consts  --      6.6963                 6.9613                 8.7493
 IR Inten    --      0.4716                12.1132                12.9194

 - Thermochemistry -
 -------------------
 Temperature   298.150 Kelvin.  Pressure   1.00000 Atm.
 Atom     1 has atomic number  6 and mass  12.00000

 Molecular mass:   176.08373 amu.
 Principal axes and moments of inertia in atomic units:
                           1         2         3
     Eigenvalues --   856.107414772.109035329.41999
           X            0.99987   0.01614   0.00264
           Y           -0.01616   0.99985   0.00566
           Z           -0.00255  -0.00571   0.99998
 This molecule is an asymmetric top.
 Rotational symmetry number  1.
 Warning -- assumption of classical behavior for rotation
           may cause significant error
 Rotational temperatures (Kelvin)      0.10117     0.01815     0.01625
 Rotational constants (GHZ):           2.10808     0.37819     0.33864
 Zero-point vibrational energy     538615.9 (Joules/Mol)
                                  128.73229 (Kcal/Mol)
 Warning -- explicit consideration of  18 degrees of freedom as
           vibrations may cause significant error
 Vibrational temperatures:     66.33    73.02   113.17   138.78   193.43
          (Kelvin)            231.77   317.37   344.55   394.90   443.52
                              507.26   542.68   571.35   613.68   662.01
                              711.03   785.79   884.00   933.38   960.53
                             1011.70  1048.50  1165.76  1188.24  1244.48
                             1260.26  1331.41  1390.33  1413.37  1425.98
                             1439.32  1450.43  1495.21  1520.10  1555.71
                             1562.10  1651.58  1734.60  1751.58  1776.09
                             1778.32  1920.71  1934.92  1959.27  2014.05
                             2055.50  2063.17  2099.48  2112.97  2161.50
                             2190.83  2194.90  2236.98  2336.85  2402.11
                             2459.10  2499.48  4321.40  4396.82  4427.63
                             4483.20  4524.45  4561.10  4574.80  4615.35
                             4637.66  4638.68  4684.86  5369.85

 Zero-point correction=                           0.205148 (Hartree/Particle)
 Thermal correction to Energy=                    0.217744
 Thermal correction to Enthalpy=                  0.218688
 Thermal correction to Gibbs Free Energy=         0.165490
 Sum of electronic and zero-point Energies=           -576.655656
 Sum of electronic and thermal Energies=              -576.643060
 Sum of electronic and thermal Enthalpies=            -576.642116
 Sum of electronic and thermal Free Energies=         -576.695315

                     E (Thermal)             CV                S
                      KCal/Mol        Cal/Mol-Kelvin    Cal/Mol-Kelvin
 Total                  136.637             47.022            111.966
 Electronic               0.000              0.000              0.000
 Translational            0.889              2.981             41.405
 Rotational               0.889              2.981             31.455
 Vibrational            134.859             41.060             39.107
 Vibration     1          0.595              1.979              4.978
 Vibration     2          0.595              1.977              4.788
 Vibration     3          0.600              1.964              3.924
 Vibration     4          0.603              1.952              3.525
 Vibration     5          0.613              1.919              2.882
 Vibration     6          0.622              1.890              2.537
 Vibration     7          0.647              1.810              1.954
 Vibration     8          0.657              1.780              1.807
 Vibration     9          0.677              1.721              1.568
 Vibration    10          0.698              1.658              1.372
 Vibration    11          0.729              1.570              1.155
 Vibration    12          0.748              1.519              1.050
 Vibration    13          0.764              1.476              0.973
 Vibration    14          0.788              1.413              0.870
 Vibration    15          0.818              1.339              0.766
 Vibration    16          0.850              1.263              0.673
 Vibration    17          0.901              1.148              0.552
 Vibration    18          0.974              1.001              0.426

                           ! Non-Optimized Parameters !
 Normal termination of Gaussian 16 at Wed Dec  9 23:42:23 2020.

 ----------------------------------------------------------------------
 # B3LYP/6-311++G(d,p) empiricaldispersion=gd3bj scf=xqc pop=npa geom=c
 heck
 ----------------------------------------------------------------------

 ---------------------------------------
 CID_141648636_JID_3534_Energie_neutraal
 ---------------------------------------
 Structure from the checkpoint file:  "JID_3534.chk"
 Charge =  0 Multiplicity = 1

 SCF Done:  E(RB3LYP) =  -577.028778874     A.U. after   16 cycles
 Normal termination of Gaussian 16 at Wed Dec  9 23:44:59 2020.

 ----------------------------------------------------------------------
 # B3LYP/6-311++G(d,p) empiricaldispersion=gd3bj scf=xqc pop=npa geom=c
 heck
 ----------------------------------------------------------------------

 -------------------------------------
 CID_141648636_JID_3534_Energie_kation
 -------------------------------------
 Structure from the checkpoint file:  "JID_3534.chk"
 Charge =  1 Multiplicity = 2

 SCF Done:  E(UB3LYP) =  -576.706954748     A.U. after   29 cycles
 Normal termination of Gaussian 16 at Wed Dec  9 23:51:48 2020.
 Gaussian 16:  ES64L-G16RevA.03 25-Dec-2016

 ----------------------------------------------------------------------
 # B3LYP/6-311++G(d,p) empiricaldispersion=gd3bj scf=xqc pop=npa geom=c
 heck
 ----------------------------------------------------------------------

 ------------------------------------
 CID_141648636_JID_3534_Energie_anion
 ------------------------------------
 Structure from the checkpoint file:  "JID_3534.chk"
 Charge = -1 Multiplicity = 2

                         Standard orientation:
 ---------------------------------------------------------------------
 Center     Atomic      Atomic             Coordinates (Angstroms)
 Number     Number       Type             X           Y           Z
 ---------------------------------------------------------------------
      1          6           0       -4.232341   -0.445640   -0.557852
      2          6           0       -2.898026   -0.563960    0.128749
      3          6           0       -2.610078   -1.534133    1.008018
      4          6           0       -1.949062    0.571297   -0.118268
      5          8           0       -2.399889    1.673970   -0.412036
      6          6           0       -0.470690    0.375612    0.006822
      7          6           0        0.313217    1.494905    0.325496
      8          6           0        1.695446    1.386719    0.409471
      9          6           0        2.332407    0.163775    0.160650
     10          6           0        1.555157   -0.946058   -0.184982
     11          6           0        0.167672   -0.844266   -0.258681
     12          6           0        3.837726    0.040192    0.276152
     13          8           0        4.395030   -0.954738   -0.570550
     14          1           0       -4.897501   -1.266352   -0.275781
     15          1           0       -4.113266   -0.448450   -1.648072
     16          1           0       -4.703612    0.507757   -0.299770
     17          1           0       -1.661836   -1.574901    1.532988
     18          1           0       -3.337727   -2.303741    1.252983
     19          1           0       -0.185407    2.443512    0.494125
     20          1           0        2.291628    2.260979    0.661114
     21          1           0        2.050180   -1.887238   -0.402153
     22          1           0       -0.420763   -1.709290   -0.544173
     23          1           0        4.303251    1.023784    0.105213
     24          1           0        4.110498   -0.266991    1.292817
     25          1           0        4.154860   -0.723586   -1.482049
 ---------------------------------------------------------------------

 SCF Done:  E(UB3LYP) =  -577.045920662     A.U. after   28 cycles

 The electronic state is 2-A.
 Alpha  occ. eigenvalues --  -19.02095 -18.91147 -10.10841 -10.05721 -10.03864
 Alpha  occ. eigenvalues --  -10.03671 -10.03312 -10.03198 -10.03038 -10.03023
 Alpha  occ. eigenvalues --  -10.02454 -10.02249 -10.01181  -0.92173  -0.85426
 Alpha  occ. eigenvalues --   -0.71858  -0.65597  -0.63310  -0.60770  -0.56470
 Alpha  occ. eigenvalues --   -0.54673  -0.48239  -0.47104  -0.44142  -0.40338
 Alpha  occ. eigenvalues --   -0.38423  -0.34848  -0.33725  -0.33309  -0.31022
 Alpha  occ. eigenvalues --   -0.29910  -0.29522  -0.28513  -0.28282  -0.27192
 Alpha  occ. eigenvalues --   -0.24607  -0.24067  -0.22954  -0.22770  -0.20910
 Alpha  occ. eigenvalues --   -0.20564  -0.19855  -0.17586  -0.12264  -0.11993
 Alpha  occ. eigenvalues --   -0.11198  -0.07847   0.04203
 Alpha virt. eigenvalues --    0.07908   0.09246   0.09557   0.10231   0.11083
 Alpha virt. eigenvalues --    0.11402   0.11653   0.12128   0.12772   0.13299
 Alpha virt. eigenvalues --    0.13918   0.14336   0.15108   0.15508   0.16662

  Beta  occ. eigenvalues --  -19.02074 -18.90534 -10.10857 -10.05387 -10.03929
  Beta  occ. eigenvalues --  -10.03429 -10.03317 -10.03186 -10.03064 -10.02944
  Beta  occ. eigenvalues --  -10.02306 -10.02187 -10.00930  -0.92118  -0.84329
  Beta  occ. eigenvalues --   -0.71602  -0.65279  -0.63023  -0.60568  -0.56270
  Beta  occ. eigenvalues --   -0.54441  -0.47473  -0.46990  -0.43725  -0.40248
  Beta  occ. eigenvalues --   -0.38246  -0.34597  -0.33573  -0.33130  -0.30879
  Beta  occ. eigenvalues --   -0.29729  -0.29122  -0.28410  -0.28114  -0.27022
  Beta  occ. eigenvalues --   -0.24445  -0.23491  -0.22507  -0.22273  -0.20580
  Beta  occ. eigenvalues --   -0.19898  -0.18627  -0.17315  -0.11677  -0.10842
  Beta  occ. eigenvalues --   -0.09768  -0.07188
  Beta virt. eigenvalues --    0.07815   0.09171   0.09488   0.09933   0.10498
  Beta virt. eigenvalues --    0.11109   0.11402   0.11907   0.12613   0.13206
  Beta virt. eigenvalues --    0.13339   0.13950   0.14358   0.15072   0.15444

 Mulliken charges and spin densities:
               1          2
     1  C   -0.470946   0.008016
     2  C    0.965707  -0.035399
     3  C   -1.191552   0.261896
     4  C   -1.048817   0.237682
     5  O   -0.358914   0.223287
     6  C    1.463141  -0.017580
     7  C    0.170399   0.229742
     8  C   -0.773703  -0.116832
     9  C    0.572314   0.218778
    10  C   -0.302651   0.084347
    11  C   -1.107465  -0.038608
    12  C   -0.242048  -0.148851
    13  O   -0.245456  -0.003917
    14  H    0.101818   0.002857
    15  H    0.139405  -0.001071
    16  H    0.159397   0.010365
    17  H    0.119791  -0.005098
    18  H    0.074282  -0.015534
    19  H    0.169650  -0.004849
    20  H    0.099307   0.000298
    21  H    0.140602   0.006456
    22  H    0.128200  -0.000227
    23  H    0.152216   0.005069
    24  H    0.085834   0.071603
    25  H    0.199491   0.027569
 Sum of Mulliken charges =  -1.00000   1.00000

 Dipole moment (field-independent basis, Debye):
    X=              3.4243    Y=             -1.3650    Z=             -0.4392  Tot=              3.7124
 Quadrupole moment (field-independent basis, Debye-Ang):
   XX=           -125.2027   YY=            -95.1063   ZZ=            -85.1504
   XY=             12.6881   XZ=             -1.2927   YZ=              3.4458

 Summary of Natural Population Analysis:

                                       Natural Population
                Natural  -----------------------------------------------
    Atom  No    Charge         Core      Valence    Rydberg      Total
 -----------------------------------------------------------------------
      C    1   -0.29360      0.99963     2.28835    0.00562     3.29360
      C    2   -0.04710      0.99951     2.03710    0.01050     3.04710
      C    3   -0.14379      0.99953     2.13752    0.00673     3.14379
      C    4    0.28975      0.99956     1.68910    0.02159     2.71025
      O    5   -0.24320      0.99988     3.23768    0.00564     4.24320
      C    6   -0.04653      0.99948     2.03543    0.01162     3.04653
      C    7   -0.05250      0.99954     2.04394    0.00902     3.05250
      C    8   -0.12586      0.99953     2.11783    0.00851     3.12586
      C    9   -0.00150      0.99950     1.99317    0.00884     3.00150
      C   10   -0.12009      0.99952     2.11141    0.00915     3.12009
      C   11   -0.07481      0.99954     2.06727    0.00799     3.07481
      C   12   -0.01258      0.99956     2.00058    0.01244     3.01258
      O   13   -0.37009      0.99990     3.36307    0.00712     4.37009
      H   14    0.08850      0.00000     0.41044    0.00105     0.41150
      H   15    0.09744      0.00000     0.40139    0.00117     0.40256
      H   16    0.10856      0.00000     0.39011    0.00133     0.39144
      H   17    0.09317      0.00000     0.40590    0.00093     0.40683
      H   18    0.07824      0.00000     0.42043    0.00133     0.42176
      H   19    0.10390      0.00000     0.39453    0.00157     0.39610
      H   20    0.08956      0.00000     0.40920    0.00124     0.41044
      H   21    0.09776      0.00000     0.40097    0.00127     0.40224
      H   22    0.10036      0.00000     0.39830    0.00135     0.39964
      H   23    0.07375      0.00000     0.42457    0.00168     0.42625
      H   24    0.08644      0.00000     0.41162    0.00194     0.41356
      H   25    0.22421      0.00000     0.27213    0.00366     0.27579
 =======================================================================
   * Total *   -0.00000     12.99468    33.86202    0.14329    47.00000

 Normal termination of Gaussian 16 at Wed Dec  9 23:58:09 2020.
