 Gaussian 16, Revision A.03,

 -----------------------------------------------------------
 # opt freq B3LYP/6-31G(d) empiricaldispersion=gd3bj scf=xqc
 -----------------------------------------------------------

 ------------------------------
 CID_10678616_JID_2836_neutraal
 ------------------------------
 Symbolic Z-matrix:
 Charge =  0 Multiplicity = 1

 SCF Done:  E(RB3LYP) =  -554.827270650     A.U. after   15 cycles
 SCF Done:  E(RB3LYP) =  -554.830660454     A.U. after   12 cycles
 SCF Done:  E(RB3LYP) =  -554.830914399     A.U. after   11 cycles
 SCF Done:  E(RB3LYP) =  -554.831005430     A.U. after   11 cycles
 SCF Done:  E(RB3LYP) =  -554.831059130     A.U. after   11 cycles
 SCF Done:  E(RB3LYP) =  -554.831071774     A.U. after   10 cycles
 SCF Done:  E(RB3LYP) =  -554.831086559     A.U. after   10 cycles
 SCF Done:  E(RB3LYP) =  -554.831137476     A.U. after   12 cycles
 SCF Done:  E(RB3LYP) =  -554.831184091     A.U. after   12 cycles
 SCF Done:  E(RB3LYP) =  -554.831207824     A.U. after   12 cycles
 SCF Done:  E(RB3LYP) =  -554.831441232     A.U. after   10 cycles
 SCF Done:  E(RB3LYP) =  -554.831446006     A.U. after    9 cycles
 SCF Done:  E(RB3LYP) =  -554.831449621     A.U. after    9 cycles
 SCF Done:  E(RB3LYP) =  -554.831452450     A.U. after   10 cycles
 SCF Done:  E(RB3LYP) =  -554.831452833     A.U. after    8 cycles
 SCF Done:  E(RB3LYP) =  -554.831452870     A.U. after    7 cycles
 Optimization completed.
    -- Stationary point found.
 Normal termination of Gaussian 16 at Wed Dec  9 18:09:42 2020.

 --------------------------------------------------------------------
 #N Geom=AllCheck Guess=TCheck SCRF=Check GenChk RB3LYP/6-31G(d) Freq
 --------------------------------------------------------------------

 Structure from the checkpoint file:  "JID_2836.chk"
 ------------------------------
 CID_10678616_JID_2836_neutraal
 ------------------------------
 Charge =  0 Multiplicity = 1

 SCF Done:  E(RB3LYP) =  -554.831452870     A.U. after    1 cycles

  Exact polarizability: 124.416  -2.394 116.919 -11.480  -0.073  62.809
 Approx polarizability: 170.163  -3.655 192.582 -23.666   5.423 105.482

                      1                      2                      3
                      A                      A                      A
 Frequencies --     31.7079                35.8256                59.4268
 Red. masses --      5.0352                 4.3330                 1.6765
 Frc consts  --      0.0030                 0.0033                 0.0035
 IR Inten    --      0.1992                 1.6972                 1.4393

                      4                      5                      6
                      A                      A                      A
 Frequencies --     86.2654               153.0569               216.9128
 Red. masses --      1.6873                 3.8805                 4.4870
 Frc consts  --      0.0074                 0.0536                 0.1244
 IR Inten    --      1.0794                 2.2962                 4.8933

                      7                      8                      9
                      A                      A                      A
 Frequencies --    247.8043               289.1281               299.7400
 Red. masses --      3.0747                 1.4513                 2.8729
 Frc consts  --      0.1112                 0.0715                 0.1521
 IR Inten    --      6.9698                25.3098                13.7627

                     10                     11                     12
                      A                      A                      A
 Frequencies --    315.1807               430.7637               441.4200
 Red. masses --      2.3991                 3.0130                 3.1200
 Frc consts  --      0.1404                 0.3294                 0.3582
 IR Inten    --     13.9884                 3.0044                 5.8816

                     13                     14                     15
                      A                      A                      A
 Frequencies --    507.4406               531.9243               544.1783
 Red. masses --      4.0354                 4.2295                 3.4900
 Frc consts  --      0.6122                 0.7051                 0.6089
 IR Inten    --     10.7700                 3.5254                20.0267

                     16                     17                     18
                      A                      A                      A
 Frequencies --    593.4649               616.7190               658.8023
 Red. masses --      3.4373                 4.7175                 1.5512
 Frc consts  --      0.7133                 1.0571                 0.3967
 IR Inten    --      5.0365                 3.1920               225.0005

                     19                     20                     21
                      A                      A                      A
 Frequencies --    666.5793               723.6548               765.0927
 Red. masses --      3.7767                 2.6262                 1.4475
 Frc consts  --      0.9887                 0.8103                 0.4992
 IR Inten    --     25.2246                 6.7465                74.3493

                     22                     23                     24
                      A                      A                      A
 Frequencies --    800.3948               849.1984               861.7611
 Red. masses --      4.2497                 2.0579                 2.5496
 Frc consts  --      1.6041                 0.8744                 1.1156
 IR Inten    --      1.6750                10.5115                 2.7026

                     25                     26                     27
                      A                      A                      A
 Frequencies --    865.2575               935.2523               968.0671
 Red. masses --      3.0147                 1.3390                 1.2321
 Frc consts  --      1.3298                 0.6901                 0.6803
 IR Inten    --     11.8083                 3.9798                 0.3728

                     28                     29                     30
                      A                      A                      A
 Frequencies --   1003.7615              1061.5885              1070.2772
 Red. masses --      2.0640                 2.0563                 2.2867
 Frc consts  --      1.2253                 1.3653                 1.5433
 IR Inten    --      1.9621                 7.1420                13.3150

                     31                     32                     33
                      A                      A                      A
 Frequencies --   1075.8604              1081.3724              1099.4682
 Red. masses --      1.8318                 2.5888                 2.0323
 Frc consts  --      1.2492                 1.7836                 1.4474
 IR Inten    --     14.6218                62.9400                39.0010

                     34                     35                     36
                      A                      A                      A
 Frequencies --   1173.8710              1194.5842              1220.8798
 Red. masses --      1.3351                 1.0933                 2.4769
 Frc consts  --      1.0840                 0.9192                 2.1752
 IR Inten    --      1.7500                 7.8435                 6.8519

                     37                     38                     39
                      A                      A                      A
 Frequencies --   1263.2901              1304.0839              1324.9778
 Red. masses --      3.0582                 2.3996                 1.2724
 Frc consts  --      2.8755                 2.4044                 1.3161
 IR Inten    --    391.8004                11.9947                36.5871

                     40                     41                     42
                      A                      A                      A
 Frequencies --   1340.8095              1371.6030              1419.8211
 Red. masses --      1.8057                 3.1957                 1.3161
 Frc consts  --      1.9126                 3.5422                 1.5631
 IR Inten    --     33.1897                 8.4642                31.2758

                     43                     44                     45
                      A                      A                      A
 Frequencies --   1434.8355              1500.2496              1505.6534
 Red. masses --      1.5247                 1.0499                 1.0595
 Frc consts  --      1.8494                 1.3923                 1.4152
 IR Inten    --     37.2437                11.0074                 6.2912

                     46                     47                     48
                      A                      A                      A
 Frequencies --   1508.5040              1513.5937              1550.6674
 Red. masses --      1.6745                 1.4020                 2.5807
 Frc consts  --      2.2450                 1.8924                 3.6562
 IR Inten    --      5.0590                37.4171                37.9224

                     49                     50                     51
                      A                      A                      A
 Frequencies --   1648.1804              1670.3730              1704.0059
 Red. masses --      6.1117                 3.9726                 1.2483
 Frc consts  --      9.7819                 6.5305                 2.1356
 IR Inten    --      9.6787                 9.8469                91.7569

                     52                     53                     54
                      A                      A                      A
 Frequencies --   1845.7933              3041.8868              3070.9268
 Red. masses --     10.7320                 1.0650                 1.0387
 Frc consts  --     21.5425                 5.8062                 5.7711
 IR Inten    --    206.2175                38.6632                 2.1755

                     55                     56                     57
                      A                      A                      A
 Frequencies --   3107.5591              3136.3008              3170.4138
 Red. masses --      1.0980                 1.0982                 1.0876
 Frc consts  --      6.2473                 6.3643                 6.4407
 IR Inten    --      3.0916                 7.4700                15.6428

                     58                     59                     60
                      A                      A                      A
 Frequencies --   3183.9997              3191.2180              3204.8498
 Red. masses --      1.1039                 1.0882                 1.0921
 Frc consts  --      6.5935                 6.5296                 6.6092
 IR Inten    --      7.7056                10.0662                25.0280

                     61                     62                     63
                      A                      A                      A
 Frequencies --   3218.5770              3542.3350              3636.9540
 Red. masses --      1.0948                 1.0483                 1.0973
 Frc consts  --      6.6819                 7.7503                 8.5517
 IR Inten    --     16.6004                 6.8715                 6.5577

 - Thermochemistry -
 -------------------
 Temperature   298.150 Kelvin.  Pressure   1.00000 Atm.
 Atom     1 has atomic number  6 and mass  12.00000

 Molecular mass:   165.07898 amu.
 Principal axes and moments of inertia in atomic units:
                           1         2         3
     Eigenvalues --  1040.388023087.985493708.09086
           X            0.99979  -0.01916  -0.00734
           Y            0.01905   0.99969  -0.01585
           Z            0.00764   0.01570   0.99985
 This molecule is an asymmetric top.
 Rotational symmetry number  1.
 Warning -- assumption of classical behavior for rotation
           may cause significant error
 Rotational temperatures (Kelvin)      0.08325     0.02805     0.02336
 Rotational constants (GHZ):           1.73468     0.58444     0.48670
 Zero-point vibrational energy     495781.2 (Joules/Mol)
                                  118.49455 (Kcal/Mol)
 Warning -- explicit consideration of  17 degrees of freedom as
           vibrations may cause significant error
 Vibrational temperatures:     45.62    51.55    85.50   124.12   220.21
          (Kelvin)            312.09   356.54   415.99   431.26   453.47
                              619.77   635.10   730.09   765.32   782.95
                              853.86   887.32   947.87   959.06  1041.18
                             1100.80  1151.59  1221.81  1239.88  1244.91
                             1345.62  1392.83  1444.19  1527.39  1539.89
                             1547.92  1555.85  1581.89  1688.94  1718.74
                             1756.57  1817.59  1876.29  1906.35  1929.13
                             1973.43  2042.81  2064.41  2158.52  2166.30
                             2170.40  2177.72  2231.06  2371.36  2403.29
                             2451.68  2655.68  4376.60  4418.38  4471.08
                             4512.44  4561.52  4581.07  4591.45  4611.06
                             4630.81  5096.63  5232.77

 Zero-point correction=                           0.188833 (Hartree/Particle)
 Thermal correction to Energy=                    0.200506
 Thermal correction to Enthalpy=                  0.201450
 Thermal correction to Gibbs Free Energy=         0.149486
 Sum of electronic and zero-point Energies=           -554.642620
 Sum of electronic and thermal Energies=              -554.630947
 Sum of electronic and thermal Enthalpies=            -554.630003
 Sum of electronic and thermal Free Energies=         -554.681967

                     E (Thermal)             CV                S
                      KCal/Mol        Cal/Mol-Kelvin    Cal/Mol-Kelvin
 Total                  125.819             43.118            109.367
 Electronic               0.000              0.000              0.000
 Translational            0.889              2.981             41.212
 Rotational               0.889              2.981             30.855
 Vibrational            124.042             37.157             37.299
 Vibration     1          0.594              1.983              5.720
 Vibration     2          0.594              1.982              5.477
 Vibration     3          0.597              1.974              4.476
 Vibration     4          0.601              1.959              3.743
 Vibration     5          0.619              1.899              2.634
 Vibration     6          0.646              1.815              1.985
 Vibration     7          0.661              1.766              1.746
 Vibration     8          0.686              1.694              1.479
 Vibration     9          0.692              1.674              1.418
 Vibration    10          0.703              1.645              1.335
 Vibration    11          0.792              1.403              0.856
 Vibration    12          0.801              1.380              0.822
 Vibration    13          0.863              1.234              0.640
 Vibration    14          0.887              1.179              0.583
 Vibration    15          0.899              1.152              0.556
 Vibration    16          0.951              1.046              0.461
 Vibration    17          0.976              0.997              0.422

 Optimization completed.
    -- Stationary point found.
 Normal termination of Gaussian 16 at Wed Dec  9 18:14:35 2020.

 ----------------------------------------------------------------------
 # B3LYP/6-311++G(d,p) empiricaldispersion=gd3bj scf=xqc pop=npa geom=c
 heck
 ----------------------------------------------------------------------

 --------------------------------------
 CID_10678616_JID_2836_Energie_neutraal
 --------------------------------------
 Structure from the checkpoint file:  "JID_2836.chk"
 Charge =  0 Multiplicity = 1

 SCF Done:  E(RB3LYP) =  -554.996052923     A.U. after   15 cycles
 Normal termination of Gaussian 16 at Wed Dec  9 18:17:21 2020.

 ----------------------------------------------------------------------
 # B3LYP/6-311++G(d,p) empiricaldispersion=gd3bj scf=xqc pop=npa geom=c
 heck
 ----------------------------------------------------------------------

 ------------------------------------
 CID_10678616_JID_2836_Energie_kation
 ------------------------------------
 Structure from the checkpoint file:  "JID_2836.chk"
 Charge =  1 Multiplicity = 2

 SCF Done:  E(UB3LYP) =  -554.706317190     A.U. after   23 cycles
 Normal termination of Gaussian 16 at Wed Dec  9 18:21:56 2020.
 Gaussian 16:  ES64L-G16RevA.03 25-Dec-2016

 ----------------------------------------------------------------------
 # B3LYP/6-311++G(d,p) empiricaldispersion=gd3bj scf=xqc pop=npa geom=c
 heck
 ----------------------------------------------------------------------

 -----------------------------------
 CID_10678616_JID_2836_Energie_anion
 -----------------------------------
 Structure from the checkpoint file:  "JID_2836.chk"
 Charge = -1 Multiplicity = 2

                         Standard orientation:
 ---------------------------------------------------------------------
 Center     Atomic      Atomic             Coordinates (Angstroms)
 Number     Number       Type             X           Y           Z
 ---------------------------------------------------------------------
      1          6           0        3.738571   -0.825255   -0.002919
      2          6           0        2.566103    0.077929    0.291096
      3          8           0        2.314513    0.581084    1.360511
      4          8           0        1.809409    0.245724   -0.827494
      5          6           0        0.605616    1.013309   -0.669780
      6          6           0       -0.590771    0.149787   -0.350564
      7          6           0       -0.532241   -1.242046   -0.392330
      8          6           0       -1.638735   -2.024050   -0.060054
      9          6           0       -2.827035   -1.398890    0.315270
     10          6           0       -2.909781   -0.009198    0.341477
     11          6           0       -1.800766    0.779762    0.007464
     12          7           0       -1.867143    2.179374    0.090845
     13          1           0        4.439795   -0.793215    0.831432
     14          1           0        4.233349   -0.526253   -0.931166
     15          1           0        3.381773   -1.852880   -0.135613
     16          1           0        0.752744    1.758674    0.117674
     17          1           0        0.484413    1.532490   -1.629254
     18          1           0        0.400183   -1.713734   -0.684037
     19          1           0       -1.570311   -3.107077   -0.091413
     20          1           0       -3.698520   -1.991049    0.580384
     21          1           0       -3.839954    0.478015    0.626068
     22          1           0       -1.358606    2.679791   -0.628245
     23          1           0       -2.812007    2.537064    0.166160
 ---------------------------------------------------------------------

 SCF Done:  E(UB3LYP) =  -554.983486059     A.U. after   32 cycles

 The electronic state is 2-A.
 Alpha  occ. eigenvalues --  -19.07103 -19.01839 -14.21282 -10.20985 -10.12976
 Alpha  occ. eigenvalues --  -10.11313 -10.08681 -10.07873 -10.07449 -10.07207
 Alpha  occ. eigenvalues --  -10.06815 -10.06703  -1.01157  -0.92852  -0.81877
 Alpha  occ. eigenvalues --   -0.74149  -0.68862  -0.65346  -0.63074  -0.59281
 Alpha  occ. eigenvalues --   -0.51961  -0.49823  -0.46027  -0.42743  -0.40871
 Alpha  occ. eigenvalues --   -0.40815  -0.38642  -0.38290  -0.36466  -0.33829
 Alpha  occ. eigenvalues --   -0.33443  -0.33084  -0.32383  -0.31295  -0.28830
 Alpha  occ. eigenvalues --   -0.28200  -0.26728  -0.25486  -0.24521  -0.21545
 Alpha  occ. eigenvalues --   -0.20941  -0.18841  -0.15055  -0.11109   0.04377
 Alpha virt. eigenvalues --    0.05920   0.07086   0.08124   0.08458   0.08707
 Alpha virt. eigenvalues --    0.09593   0.09909   0.09993   0.11015   0.11287
 Alpha virt. eigenvalues --    0.12144   0.13066   0.13858   0.14518   0.14600

  Beta  occ. eigenvalues --  -19.07098 -19.01830 -14.21215 -10.20981 -10.12947
  Beta  occ. eigenvalues --  -10.11310 -10.08642 -10.07871 -10.07444 -10.07195
  Beta  occ. eigenvalues --  -10.06794 -10.06699  -1.01143  -0.92835  -0.81800
  Beta  occ. eigenvalues --   -0.74108  -0.68826  -0.65307  -0.63023  -0.59229
  Beta  occ. eigenvalues --   -0.51923  -0.49778  -0.45982  -0.42683  -0.40823
  Beta  occ. eigenvalues --   -0.40763  -0.38607  -0.38245  -0.36415  -0.33783
  Beta  occ. eigenvalues --   -0.33406  -0.33050  -0.32345  -0.31256  -0.28795
  Beta  occ. eigenvalues --   -0.28166  -0.26702  -0.25460  -0.24494  -0.21516
  Beta  occ. eigenvalues --   -0.20910  -0.18825  -0.15029  -0.11069
  Beta virt. eigenvalues --    0.06563   0.07261   0.07867   0.08508   0.08881
  Beta virt. eigenvalues --    0.09165   0.09998   0.10055   0.10362   0.11612
  Beta virt. eigenvalues --    0.11824   0.12413   0.13500   0.14271   0.14566

 Mulliken charges and spin densities:
               1          2
     1  C    1.017557  -1.565122
     2  C   -0.562306   0.647938
     3  O   -0.246766  -0.001367
     4  O   -0.024987   0.021708
     5  C    2.424330  -2.800107
     6  C    0.608804   0.393360
     7  C    1.005735  -0.621194
     8  C   -0.720989   0.270275
     9  C    0.876137  -1.028280
    10  C    0.126297  -0.323134
    11  C   -2.824358   1.577128
    12  N   -0.317632   0.027887
    13  H   -0.039387   0.196329
    14  H   -0.262953   0.438419
    15  H   -0.352523   0.521977
    16  H    0.154114   0.076786
    17  H   -0.593848   0.806998
    18  H    0.067077   0.074215
    19  H   -0.117804   0.264846
    20  H    0.068335   0.068150
    21  H   -0.587693   0.731206
    22  H   -0.255201   0.513682
    23  H   -0.441939   0.708299
 Sum of Mulliken charges =  -1.00000   1.00000

 Dipole moment (field-independent basis, Debye):
    X=              1.3702    Y=             -4.4531    Z=              0.7435  Tot=              4.7181
 Quadrupole moment (field-independent basis, Debye-Ang):
   XX=           -133.2652   YY=           -116.8990   ZZ=           -103.3651
   XY=             15.9759   XZ=              0.3303   YZ=              2.1562

 Summary of Natural Population Analysis:

                                       Natural Population
                Natural  -----------------------------------------------
    Atom  No    Charge         Core      Valence    Rydberg      Total
 -----------------------------------------------------------------------
      C    1   -0.33330      0.99962     2.32840    0.00529     3.33330
      C    2    0.40783      0.99971     1.56739    0.02507     2.59217
      O    3   -0.29994      0.99987     3.29447    0.00560     4.29994
      O    4   -0.28462      0.99987     3.27460    0.01015     4.28462
      C    5   -0.02431      0.99950     2.01193    0.01288     3.02431
      C    6   -0.04983      0.99946     2.03935    0.01102     3.04983
      C    7   -0.09223      0.99952     2.08420    0.00852     3.09223
      C    8   -0.12185      0.99956     2.11204    0.01025     3.12185
      C    9   -0.09747      0.99957     2.08854    0.00937     3.09747
      C   10   -0.12076      0.99952     2.11099    0.01025     3.12076
      C   11    0.08842      0.99945     1.89965    0.01248     2.91158
      N   12   -0.39591      0.99972     2.88540    0.01080     3.89591
      H   13    0.10904      0.00000     0.39013    0.00083     0.39096
      H   14    0.11373      0.00000     0.38492    0.00134     0.38627
      H   15    0.11542      0.00000     0.38294    0.00165     0.38458
      H   16    0.10763      0.00000     0.39070    0.00167     0.39237
      H   17    0.09904      0.00000     0.39882    0.00213     0.40096
      H   18    0.10371      0.00000     0.39494    0.00134     0.39629
      H   19    0.09799      0.00000     0.40120    0.00081     0.40201
      H   20    0.09740      0.00000     0.40180    0.00080     0.40260
      H   21    0.10107      0.00000     0.39765    0.00128     0.39893
      H   22    0.18955      0.00000     0.30397    0.00648     0.31045
      H   23    0.18939      0.00000     0.30394    0.00668     0.31061
 =======================================================================
   * Total *    0.00000     11.99536    31.84796    0.15668    44.00000

 Normal termination of Gaussian 16 at Wed Dec  9 18:27:44 2020.
