 Gaussian 16, Revision A.03,

 -----------------------------------------------------------
 # opt freq B3LYP/6-31G(d) empiricaldispersion=gd3bj scf=xqc
 -----------------------------------------------------------

 -------------------------------
 CID_116655505_JID_2687_neutraal
 -------------------------------
 Symbolic Z-matrix:
 Charge =  0 Multiplicity = 1

 SCF Done:  E(RB3LYP) =  -539.799411827     A.U. after   14 cycles
 SCF Done:  E(RB3LYP) =  -539.802808289     A.U. after   12 cycles
 SCF Done:  E(RB3LYP) =  -539.802709492     A.U. after   12 cycles
 SCF Done:  E(RB3LYP) =  -539.803997731     A.U. after   11 cycles
 SCF Done:  E(RB3LYP) =  -539.804386680     A.U. after   12 cycles
 SCF Done:  E(RB3LYP) =  -539.804507523     A.U. after   11 cycles
 SCF Done:  E(RB3LYP) =  -539.804548240     A.U. after   10 cycles
 SCF Done:  E(RB3LYP) =  -539.804575498     A.U. after    9 cycles
 SCF Done:  E(RB3LYP) =  -539.804601148     A.U. after   10 cycles
 SCF Done:  E(RB3LYP) =  -539.804612617     A.U. after    9 cycles
 SCF Done:  E(RB3LYP) =  -539.804631077     A.U. after    9 cycles
 SCF Done:  E(RB3LYP) =  -539.804634307     A.U. after    9 cycles
 SCF Done:  E(RB3LYP) =  -539.804635037     A.U. after    8 cycles
 SCF Done:  E(RB3LYP) =  -539.804635344     A.U. after    7 cycles
 SCF Done:  E(RB3LYP) =  -539.804635556     A.U. after    7 cycles
 SCF Done:  E(RB3LYP) =  -539.804635619     A.U. after    6 cycles
 Optimization completed.
    -- Stationary point found.
 Normal termination of Gaussian 16 at Wed Dec  9 17:54:59 2020.

 --------------------------------------------------------------------
 #N Geom=AllCheck Guess=TCheck SCRF=Check GenChk RB3LYP/6-31G(d) Freq
 --------------------------------------------------------------------

 Structure from the checkpoint file:  "JID_2687.chk"
 -------------------------------
 CID_116655505_JID_2687_neutraal
 -------------------------------
 Charge =  0 Multiplicity = 1

 SCF Done:  E(RB3LYP) =  -539.804635619     A.U. after    1 cycles

  Exact polarizability: 116.790   5.863 113.002  -3.177   4.322 101.154
 Approx polarizability: 149.372   4.241 152.852 -10.909  10.143 154.991

                      1                      2                      3
                      A                      A                      A
 Frequencies --     34.6863                42.5904                76.4413
 Red. masses --      3.4438                 3.4628                 3.3726
 Frc consts  --      0.0024                 0.0037                 0.0116
 IR Inten    --      0.8228                 0.4239                 1.2916

                      4                      5                      6
                      A                      A                      A
 Frequencies --     91.1752               101.7508               117.2845
 Red. masses --      3.0452                 2.5758                 1.8379
 Frc consts  --      0.0149                 0.0157                 0.0149
 IR Inten    --      0.3490                 1.8185                 2.2196

                      7                      8                      9
                      A                      A                      A
 Frequencies --    159.0704               183.4251               207.4349
 Red. masses --      1.5635                 1.4255                 2.0507
 Frc consts  --      0.0233                 0.0283                 0.0520
 IR Inten    --      0.6087                 0.6193                 0.7484

                     10                     11                     12
                      A                      A                      A
 Frequencies --    222.6116               249.3758               256.7456
 Red. masses --      1.5595                 1.1877                 1.8775
 Frc consts  --      0.0455                 0.0435                 0.0729
 IR Inten    --      2.1051                 0.0841                 7.8438

                     13                     14                     15
                      A                      A                      A
 Frequencies --    293.5371               324.3619               333.7505
 Red. masses --      1.5083                 2.4746                 2.4393
 Frc consts  --      0.0766                 0.1534                 0.1601
 IR Inten    --      0.1479                 1.8204                 0.4739

                     16                     17                     18
                      A                      A                      A
 Frequencies --    349.6372               397.7511               409.9961
 Red. masses --      2.4783                 2.4168                 2.5431
 Frc consts  --      0.1785                 0.2253                 0.2519
 IR Inten    --      2.0581                 4.3577                 3.4847

                     19                     20                     21
                      A                      A                      A
 Frequencies --    448.1399               508.2246               558.4753
 Red. masses --      2.2847                 2.8208                 3.1708
 Frc consts  --      0.2703                 0.4293                 0.5827
 IR Inten    --      2.1562                 7.0757                26.4376

                     22                     23                     24
                      A                      A                      A
 Frequencies --    630.1946               724.4544               753.8412
 Red. masses --      3.8218                 1.9526                 1.8710
 Frc consts  --      0.8943                 0.6038                 0.6265
 IR Inten    --     19.1510                 1.4963                 7.4272

                     25                     26                     27
                      A                      A                      A
 Frequencies --    782.8285               820.3362               823.0193
 Red. masses --      2.5636                 2.9559                 2.0129
 Frc consts  --      0.9256                 1.1720                 0.8033
 IR Inten    --     23.6243                33.3508                19.5375

                     28                     29                     30
                      A                      A                      A
 Frequencies --    854.4686               918.0798               931.2278
 Red. masses --      1.6802                 1.4625                 1.6730
 Frc consts  --      0.7228                 0.7263                 0.8548
 IR Inten    --     35.5556                 1.9034                 3.1183

                     31                     32                     33
                      A                      A                      A
 Frequencies --    965.9171               994.1331              1037.2038
 Red. masses --      1.6182                 1.7673                 2.0815
 Frc consts  --      0.8895                 1.0291                 1.3193
 IR Inten    --      4.0796                 1.7392                29.5351

                     34                     35                     36
                      A                      A                      A
 Frequencies --   1055.2376              1076.1141              1095.0873
 Red. masses --      1.4457                 1.6750                 1.3916
 Frc consts  --      0.9485                 1.1428                 0.9833
 IR Inten    --      7.7244                12.3966                 7.5430

                     37                     38                     39
                      A                      A                      A
 Frequencies --   1105.0456              1145.8052              1167.3691
 Red. masses --      2.4105                 1.2195                 2.4068
 Frc consts  --      1.7342                 0.9433                 1.9324
 IR Inten    --      2.6075                 2.3266                36.8664

                     40                     41                     42
                      A                      A                      A
 Frequencies --   1168.8473              1181.5967              1186.5104
 Red. masses --      2.1066                 1.3902                 2.4425
 Frc consts  --      1.6957                 1.1436                 2.0260
 IR Inten    --      4.6059                 8.1598                58.1627

                     43                     44                     45
                      A                      A                      A
 Frequencies --   1245.4001              1264.7366              1284.4764
 Red. masses --      1.8164                 1.6478                 1.5287
 Frc consts  --      1.6599                 1.5529                 1.4860
 IR Inten    --     52.1949                18.2581                 3.6327

                     46                     47                     48
                      A                      A                      A
 Frequencies --   1298.5832              1328.2034              1365.9050
 Red. masses --      3.6072                 1.1804                 1.3255
 Frc consts  --      3.5840                 1.2269                 1.4570
 IR Inten    --     64.6943                 3.1069                 2.1433

                     49                     50                     51
                      A                      A                      A
 Frequencies --   1378.7314              1397.0339              1406.8603
 Red. masses --      1.2793                 1.3608                 1.3667
 Frc consts  --      1.4328                 1.5648                 1.5938
 IR Inten    --      3.2794                 1.1220                 5.5131

                     52                     53                     54
                      A                      A                      A
 Frequencies --   1420.6997              1428.8749              1441.3312
 Red. masses --      1.3985                 2.5153                 1.2841
 Frc consts  --      1.6631                 3.0257                 1.5717
 IR Inten    --      1.3903               207.8193                 7.6656

                     55                     56                     57
                      A                      A                      A
 Frequencies --   1447.7976              1462.9997              1487.5042
 Red. masses --      1.2546                 1.1462                 1.2490
 Frc consts  --      1.5495                 1.4455                 1.6283
 IR Inten    --     11.1328                 4.6899                 3.8580

                     58                     59                     60
                      A                      A                      A
 Frequencies --   1496.7384              1508.2236              1516.0604
 Red. masses --      1.2761                 1.0723                 1.0656
 Frc consts  --      1.6843                 1.4371                 1.4431
 IR Inten    --     47.5399                 0.6068                 6.5641

                     61                     62                     63
                      A                      A                      A
 Frequencies --   1522.5867              1527.4234              1529.7211
 Red. masses --      1.0794                 1.0634                 1.0469
 Frc consts  --      1.4743                 1.4617                 1.4434
 IR Inten    --      5.8393                 3.0939                 8.2916

                     64                     65                     66
                      A                      A                      A
 Frequencies --   1530.8530              1533.2992              1536.7560
 Red. masses --      1.0647                 1.0634                 1.0533
 Frc consts  --      1.4701                 1.4729                 1.4656
 IR Inten    --      4.9437                 4.8120                 3.8012

                     67                     68                     69
                      A                      A                      A
 Frequencies --   1538.4848              1548.5056              1559.5069
 Red. masses --      1.0677                 1.0725                 1.1787
 Frc consts  --      1.4889                 1.5152                 1.6890
 IR Inten    --     13.3431                 5.4156                42.6699

                     70                     71                     72
                      A                      A                      A
 Frequencies --   1779.4435              3021.0854              3027.5316
 Red. masses --      7.4551                 1.0437                 1.0448
 Frc consts  --     13.9082                 5.6123                 5.6424
 IR Inten    --    370.5253                37.0655                88.4791

                     73                     74                     75
                      A                      A                      A
 Frequencies --   3029.7471              3034.2560              3040.3946
 Red. masses --      1.0645                 1.0623                 1.0616
 Frc consts  --      5.7571                 5.7626                 5.7819
 IR Inten    --     10.8938                28.2126                23.7636

                     76                     77                     78
                      A                      A                      A
 Frequencies --   3045.0455              3048.0333              3062.3874
 Red. masses --      1.0389                 1.0434                 1.0949
 Frc consts  --      5.6755                 5.7116                 6.0499
 IR Inten    --     23.5268                23.2474                31.0289

                     79                     80                     81
                      A                      A                      A
 Frequencies --   3068.5529              3069.8264              3090.6172
 Red. masses --      1.1039                 1.1026                 1.0962
 Frc consts  --      6.1242                 6.1221                 6.1695
 IR Inten    --     55.8476                30.6127                40.3967

                     82                     83                     84
                      A                      A                      A
 Frequencies --   3091.4797              3108.5199              3109.6087
 Red. masses --      1.0937                 1.1001                 1.0940
 Frc consts  --      6.1586                 6.2629                 6.2325
 IR Inten    --     38.7606                41.9057                 3.9332

                     85                     86                     87
                      A                      A                      A
 Frequencies --   3118.7628              3132.6329              3136.3189
 Red. masses --      1.1018                 1.0883                 1.1029
 Frc consts  --      6.3140                 6.2925                 6.3920
 IR Inten    --     41.8552                38.6852                26.9686

                     88                     89                     90
                      A                      A                      A
 Frequencies --   3173.6639              3186.3069              3537.9363
 Red. masses --      1.0961                 1.0971                 1.0741
 Frc consts  --      6.5044                 6.5623                 7.9210
 IR Inten    --      6.0779                 4.0329                 8.9546

 - Thermochemistry -
 -------------------
 Temperature   298.150 Kelvin.  Pressure   1.00000 Atm.
 Atom     1 has atomic number  6 and mass  12.00000

 Molecular mass:   172.15756 amu.
 Principal axes and moments of inertia in atomic units:
                           1         2         3
     Eigenvalues --  1653.260382758.139863418.70071
           X            0.99933   0.03341   0.01468
           Y           -0.03315   0.99930  -0.01710
           Z           -0.01524   0.01660   0.99975
 This molecule is an asymmetric top.
 Rotational symmetry number  1.
 Warning -- assumption of classical behavior for rotation
           may cause significant error
 Rotational temperatures (Kelvin)      0.05239     0.03140     0.02534
 Rotational constants (GHZ):           1.09163     0.65433     0.52790
 Zero-point vibrational energy     769816.3 (Joules/Mol)
                                  183.99051 (Kcal/Mol)
 Warning -- explicit consideration of  21 degrees of freedom as
           vibrations may cause significant error
 Vibrational temperatures:     49.91    61.28   109.98   131.18   146.40
          (Kelvin)            168.75   228.87   263.91   298.45   320.29
                              358.80   369.40   422.33   466.68   480.19
                              503.05   572.28   589.89   644.77   731.22
                              803.52   906.71  1042.33  1084.61  1126.32
                             1180.28  1184.14  1229.39  1320.91  1339.83
                             1389.74  1430.34  1492.30  1518.25  1548.29
                             1575.59  1589.91  1648.56  1679.58  1681.71
                             1700.05  1707.12  1791.85  1819.67  1848.08
                             1868.37  1910.99  1965.23  1983.69  2010.02
                             2024.16  2044.07  2055.83  2073.75  2083.06
                             2104.93  2140.19  2153.47  2170.00  2181.27
                             2190.66  2197.62  2200.93  2202.56  2206.08
                             2211.05  2213.54  2227.95  2243.78  2560.22
                             4346.67  4355.94  4359.13  4365.62  4374.45
                             4381.14  4385.44  4406.09  4414.96  4416.80
                             4446.71  4447.95  4472.47  4474.03  4487.20
                             4507.16  4512.46  4566.19  4584.38  5090.30

 Zero-point correction=                           0.293208 (Hartree/Particle)
 Thermal correction to Energy=                    0.308044
 Thermal correction to Enthalpy=                  0.308988
 Thermal correction to Gibbs Free Energy=         0.251124
 Sum of electronic and zero-point Energies=           -539.511428
 Sum of electronic and thermal Energies=              -539.496592
 Sum of electronic and thermal Enthalpies=            -539.495648
 Sum of electronic and thermal Free Energies=         -539.553511

                     E (Thermal)             CV                S
                      KCal/Mol        Cal/Mol-Kelvin    Cal/Mol-Kelvin
 Total                  193.300             53.718            121.784
 Electronic               0.000              0.000              0.000
 Translational            0.889              2.981             41.337
 Rotational               0.889              2.981             31.123
 Vibrational            191.523             47.757             49.324
 Vibration     1          0.594              1.983              5.542
 Vibration     2          0.595              1.980              5.135
 Vibration     3          0.599              1.965              3.980
 Vibration     4          0.602              1.955              3.635
 Vibration     5          0.604              1.948              3.420
 Vibration     6          0.608              1.935              3.145
 Vibration     7          0.621              1.892              2.561
 Vibration     8          0.631              1.862              2.293
 Vibration     9          0.641              1.829              2.066
 Vibration    10          0.648              1.807              1.938
 Vibration    11          0.662              1.764              1.735
 Vibration    12          0.666              1.751              1.684
 Vibration    13          0.688              1.686              1.453
 Vibration    14          0.709              1.627              1.288
 Vibration    15          0.715              1.608              1.242
 Vibration    16          0.727              1.576              1.168
 Vibration    17          0.764              1.475              0.971
 Vibration    18          0.774              1.449              0.927
 Vibration    19          0.807              1.365              0.801
 Vibration    20          0.863              1.232              0.638
 Vibration    21          0.914              1.121              0.527

 Optimization completed.
    -- Stationary point found.
 Normal termination of Gaussian 16 at Wed Dec  9 18:03:48 2020.

 ----------------------------------------------------------------------
 # B3LYP/6-311++G(d,p) empiricaldispersion=gd3bj scf=xqc pop=npa geom=c
 heck
 ----------------------------------------------------------------------

 ---------------------------------------
 CID_116655505_JID_2687_Energie_neutraal
 ---------------------------------------
 Structure from the checkpoint file:  "JID_2687.chk"
 Charge =  0 Multiplicity = 1

 SCF Done:  E(RB3LYP) =  -539.964394760     A.U. after   13 cycles
 Normal termination of Gaussian 16 at Wed Dec  9 18:07:12 2020.

 ----------------------------------------------------------------------
 # B3LYP/6-311++G(d,p) empiricaldispersion=gd3bj scf=xqc pop=npa geom=c
 heck
 ----------------------------------------------------------------------

 -------------------------------------
 CID_116655505_JID_2687_Energie_kation
 -------------------------------------
 Structure from the checkpoint file:  "JID_2687.chk"
 Charge =  1 Multiplicity = 2

 SCF Done:  E(UB3LYP) =  -539.649705447     A.U. after   27 cycles
 Normal termination of Gaussian 16 at Wed Dec  9 18:16:55 2020.
 Gaussian 16:  ES64L-G16RevA.03 25-Dec-2016

 ----------------------------------------------------------------------
 # B3LYP/6-311++G(d,p) empiricaldispersion=gd3bj scf=xqc pop=npa geom=c
 heck
 ----------------------------------------------------------------------

 ------------------------------------
 CID_116655505_JID_2687_Energie_anion
 ------------------------------------
 Structure from the checkpoint file:  "JID_2687.chk"
 Charge = -1 Multiplicity = 2

                         Standard orientation:
 ---------------------------------------------------------------------
 Center     Atomic      Atomic             Coordinates (Angstroms)
 Number     Number       Type             X           Y           Z
 ---------------------------------------------------------------------
      1          6           0       -1.565365    2.383866   -0.117788
      2          6           0       -2.615747    1.331607    0.253490
      3          6           0       -2.686015    0.147394   -0.725769
      4          6           0       -1.350436   -0.577123   -0.955371
      5          6           0       -0.671473   -1.107138    0.320226
      6          6           0       -1.441128   -2.254534    0.971713
      7          7           0        0.710368   -1.558925    0.051566
      8          6           0        1.653486   -0.648829   -0.448459
      9          8           0        2.292105   -0.872226   -1.471920
     10          7           0        1.805944    0.512811    0.289152
     11          6           0        1.640544    0.547499    1.735804
     12          6           0        2.680624    1.535782   -0.261446
     13          1           0       -0.549971    1.973997   -0.079086
     14          1           0       -1.607478    3.239460    0.565491
     15          1           0       -1.729801    2.761165   -1.134737
     16          1           0       -2.418872    0.964422    1.269875
     17          1           0       -3.605417    1.804387    0.296105
     18          1           0       -3.443217   -0.564403   -0.372037
     19          1           0       -3.045806    0.512872   -1.697158
     20          1           0       -1.504398   -1.416552   -1.647864
     21          1           0       -0.652301    0.104046   -1.455107
     22          1           0       -0.605672   -0.290415    1.041003
     23          1           0       -1.527657   -3.105035    0.283236
     24          1           0       -0.929220   -2.599131    1.875484
     25          1           0       -2.454379   -1.942865    1.243348
     26          1           0        0.719670   -2.363573   -0.569719
     27          1           0        1.317427   -0.428775    2.096425
     28          1           0        2.600366    0.787078    2.214071
     29          1           0        0.909813    1.308429    2.039915
     30          1           0        2.653125    1.481996   -1.348922
     31          1           0        2.333821    2.520883    0.069442
     32          1           0        3.721999    1.401481    0.066167
 ---------------------------------------------------------------------

 SCF Done:  E(UB3LYP) =  -539.951047886     A.U. after   29 cycles

 The electronic state is 2-A.
 Alpha  occ. eigenvalues --  -18.98628 -14.24021 -14.22314 -10.19167 -10.11176
 Alpha  occ. eigenvalues --  -10.10001 -10.09799 -10.06845 -10.06781 -10.06625
 Alpha  occ. eigenvalues --  -10.06454 -10.05525  -0.95036  -0.84047  -0.81379
 Alpha  occ. eigenvalues --   -0.70769  -0.66273  -0.62313  -0.61494  -0.59113
 Alpha  occ. eigenvalues --   -0.55849  -0.51218  -0.46909  -0.46140  -0.42037
 Alpha  occ. eigenvalues --   -0.39023  -0.38165  -0.37041  -0.36275  -0.34187
 Alpha  occ. eigenvalues --   -0.33963  -0.33070  -0.31297  -0.30608  -0.29999
 Alpha  occ. eigenvalues --   -0.29316  -0.28900  -0.28780  -0.28129  -0.27847
 Alpha  occ. eigenvalues --   -0.25777  -0.25337  -0.23145  -0.22545  -0.22265
 Alpha  occ. eigenvalues --   -0.18370  -0.14900  -0.14505   0.04361
 Alpha virt. eigenvalues --    0.06420   0.07055   0.07776   0.08835   0.09095
 Alpha virt. eigenvalues --    0.09692   0.09976   0.10540   0.11332   0.11865
 Alpha virt. eigenvalues --    0.12188   0.12437   0.12817   0.12998   0.13293

  Beta  occ. eigenvalues --  -18.98627 -14.24019 -14.22305 -10.19166 -10.11169
  Beta  occ. eigenvalues --  -10.09958 -10.09776 -10.06838 -10.06764 -10.06590
  Beta  occ. eigenvalues --  -10.06430 -10.05495  -0.95031  -0.84037  -0.81363
  Beta  occ. eigenvalues --   -0.70739  -0.66237  -0.62262  -0.61451  -0.59065
  Beta  occ. eigenvalues --   -0.55791  -0.51160  -0.46871  -0.46079  -0.41999
  Beta  occ. eigenvalues --   -0.38998  -0.38131  -0.37002  -0.36246  -0.34154
  Beta  occ. eigenvalues --   -0.33928  -0.33045  -0.31262  -0.30570  -0.29962
  Beta  occ. eigenvalues --   -0.29287  -0.28869  -0.28746  -0.28099  -0.27822
  Beta  occ. eigenvalues --   -0.25741  -0.25295  -0.23115  -0.22508  -0.22225
  Beta  occ. eigenvalues --   -0.18358  -0.14883  -0.14489
  Beta virt. eigenvalues --    0.06619   0.07312   0.07753   0.08316   0.09403
  Beta virt. eigenvalues --    0.09564   0.10243   0.10360   0.10974   0.11597
  Beta virt. eigenvalues --    0.12182   0.12605   0.12736   0.13172   0.13310

 Mulliken charges and spin densities:
               1          2
     1  C    0.135726  -0.773615
     2  C   -1.160176   1.022386
     3  C    1.300802  -1.738176
     4  C   -0.431084   0.544139
     5  C   -1.275349   0.872774
     6  C    1.282523  -1.828745
     7  N   -0.133029   0.106353
     8  C   -0.324293   0.201255
     9  O   -0.327864  -0.000323
    10  N   -0.091931   0.106108
    11  C    0.457808  -0.913745
    12  C    0.149924  -0.445917
    13  H    1.424108  -1.297809
    14  H   -0.631769   0.778310
    15  H   -0.094877   0.224700
    16  H   -0.306814   0.468906
    17  H   -0.348056   0.512965
    18  H   -0.026674   0.171373
    19  H   -0.071545   0.223753
    20  H   -0.015113   0.167363
    21  H    0.199169   0.011612
    22  H    1.039729  -0.901441
    23  H   -0.231292   0.367833
    24  H   -0.194564   0.352765
    25  H   -0.221198   0.376893
    26  H    0.265465   0.026947
    27  H   -0.105348   0.293028
    28  H   -0.715877   0.870366
    29  H   -0.328350   0.510794
    30  H    0.125420   0.042928
    31  H   -0.217100   0.361775
    32  H   -0.128372   0.284444
 Sum of Mulliken charges =  -1.00000   1.00000

 Dipole moment (field-independent basis, Debye):
    X=              0.7200    Y=             -2.1386    Z=             -3.4523  Tot=              4.1244
 Quadrupole moment (field-independent basis, Debye-Ang):
   XX=           -141.4932   YY=           -126.7723   ZZ=           -120.1715
   XY=              2.1942   XZ=              1.0727   YZ=             -5.6626

 Summary of Natural Population Analysis:

                                       Natural Population
                Natural  -----------------------------------------------
    Atom  No    Charge         Core      Valence    Rydberg      Total
 -----------------------------------------------------------------------
      C    1   -0.28950      0.99966     2.28358    0.00626     3.28950
      C    2   -0.19131      0.99964     2.18370    0.00798     3.19131
      C    3   -0.18867      0.99963     2.18046    0.00858     3.18867
      C    4   -0.19582      0.99961     2.18756    0.00865     3.19582
      C    5   -0.01942      0.99958     2.00789    0.01196     3.01942
      C    6   -0.28702      0.99964     2.28090    0.00648     3.28702
      N    7   -0.34044      0.99968     2.83054    0.01022     3.84044
      C    8    0.41488      0.99966     1.56187    0.02359     2.58512
      O    9   -0.33817      0.99987     3.33345    0.00485     4.33817
      N   10   -0.27055      0.99966     2.76090    0.00999     3.77055
      C   11   -0.17857      0.99963     2.17062    0.00832     3.17857
      C   12   -0.17489      0.99964     2.16697    0.00828     3.17489
      H   13    0.09781      0.00000     0.40029    0.00190     0.40219
      H   14    0.10183      0.00000     0.39692    0.00124     0.39817
      H   15    0.09349      0.00000     0.40553    0.00098     0.40651
      H   16    0.09376      0.00000     0.40451    0.00173     0.40624
      H   17    0.09695      0.00000     0.40165    0.00141     0.40305
      H   18    0.09732      0.00000     0.40140    0.00128     0.40268
      H   19    0.09526      0.00000     0.40379    0.00095     0.40474
      H   20    0.09639      0.00000     0.40254    0.00107     0.40361
      H   21    0.10101      0.00000     0.39745    0.00154     0.39899
      H   22    0.09962      0.00000     0.39654    0.00384     0.40038
      H   23    0.09515      0.00000     0.40373    0.00112     0.40485
      H   24    0.10466      0.00000     0.39414    0.00119     0.39534
      H   25    0.10465      0.00000     0.39421    0.00114     0.39535
      H   26    0.18660      0.00000     0.31123    0.00217     0.31340
      H   27    0.10790      0.00000     0.39043    0.00167     0.39210
      H   28    0.09540      0.00000     0.40288    0.00172     0.40460
      H   29    0.09704      0.00000     0.40107    0.00189     0.40296
      H   30    0.10929      0.00000     0.38987    0.00084     0.39071
      H   31    0.09511      0.00000     0.40376    0.00113     0.40489
      H   32    0.09025      0.00000     0.40871    0.00104     0.40975
 =======================================================================
   * Total *   -0.00000     11.99591    35.85909    0.14500    48.00000

 Normal termination of Gaussian 16 at Wed Dec  9 18:28:14 2020.
