 Gaussian 16, Revision A.03,

 -----------------------------------------------------------
 # opt freq B3LYP/6-31G(d) empiricaldispersion=gd3bj scf=xqc
 -----------------------------------------------------------

 ------------------------------
 CID_17804643_JID_1043_neutraal
 ------------------------------
 Symbolic Z-matrix:
 Charge =  0 Multiplicity = 1

 SCF Done:  E(RB3LYP) =  -553.829402346     A.U. after   15 cycles
 SCF Done:  E(RB3LYP) =  -553.832576809     A.U. after   14 cycles
 SCF Done:  E(RB3LYP) =  -553.831082895     A.U. after   13 cycles
 SCF Done:  E(RB3LYP) =  -553.833384716     A.U. after   12 cycles
 SCF Done:  E(RB3LYP) =  -553.833623157     A.U. after   13 cycles
 SCF Done:  E(RB3LYP) =  -553.833789153     A.U. after   13 cycles
 SCF Done:  E(RB3LYP) =  -553.833972343     A.U. after   12 cycles
 SCF Done:  E(RB3LYP) =  -553.834118921     A.U. after   12 cycles
 SCF Done:  E(RB3LYP) =  -553.834285127     A.U. after   12 cycles
 SCF Done:  E(RB3LYP) =  -553.834308530     A.U. after   15 cycles
 SCF Done:  E(RB3LYP) =  -553.836331138     A.U. after   11 cycles
 SCF Done:  E(RB3LYP) =  -553.836353522     A.U. after   11 cycles
 SCF Done:  E(RB3LYP) =  -553.836367648     A.U. after   11 cycles
 SCF Done:  E(RB3LYP) =  -553.836368126     A.U. after    8 cycles
 SCF Done:  E(RB3LYP) =  -553.836368259     A.U. after    8 cycles
 SCF Done:  E(RB3LYP) =  -553.836368293     A.U. after    7 cycles
 Optimization completed.
    -- Stationary point found.
 Normal termination of Gaussian 16 at Tue Dec  8 19:15:22 2020.

 --------------------------------------------------------------------
 #N Geom=AllCheck Guess=TCheck SCRF=Check GenChk RB3LYP/6-31G(d) Freq
 --------------------------------------------------------------------

 Structure from the checkpoint file:  "JID_1043.chk"
 ------------------------------
 CID_17804643_JID_1043_neutraal
 ------------------------------
 Charge =  0 Multiplicity = 1

 SCF Done:  E(RB3LYP) =  -553.836368293     A.U. after    1 cycles

  Exact polarizability: 101.565   7.614  79.923   9.184   2.747  73.110
 Approx polarizability: 128.402  25.099 138.321  21.435  16.391 108.703

                      1                      2                      3
                      A                      A                      A
 Frequencies --     35.9087                48.1447                54.6053
 Red. masses --      3.4595                 5.5619                 4.1081
 Frc consts  --      0.0026                 0.0076                 0.0072
 IR Inten    --      0.5074                 0.9504                 2.1583

                      4                      5                      6
                      A                      A                      A
 Frequencies --     71.0233               115.0193               128.6142
 Red. masses --      6.3459                 6.1777                 2.3583
 Frc consts  --      0.0189                 0.0482                 0.0230
 IR Inten    --      1.5903                 0.9963                 2.6188

                      7                      8                      9
                      A                      A                      A
 Frequencies --    199.8282               250.9510               283.5121
 Red. masses --      1.6242                 3.1651                 1.6995
 Frc consts  --      0.0382                 0.1174                 0.0805
 IR Inten    --      2.2616                22.3961                 3.4078

                     10                     11                     12
                      A                      A                      A
 Frequencies --    315.8700               349.8137               376.2715
 Red. masses --      1.6861                 1.8393                 2.7318
 Frc consts  --      0.0991                 0.1326                 0.2279
 IR Inten    --     84.4415                77.6089                49.8595

                     13                     14                     15
                      A                      A                      A
 Frequencies --    405.6540               423.0427               455.3264
 Red. masses --      4.7022                 3.6478                 2.7027
 Frc consts  --      0.4559                 0.3846                 0.3301
 IR Inten    --      7.4530                65.6392                 7.5571

                     16                     17                     18
                      A                      A                      A
 Frequencies --    532.9129               585.9381               597.3039
 Red. masses --      4.7656                 2.3245                 3.2905
 Frc consts  --      0.7974                 0.4702                 0.6917
 IR Inten    --     21.7006                 0.2471                22.4321

                     19                     20                     21
                      A                      A                      A
 Frequencies --    670.2134               710.2307               752.8806
 Red. masses --      1.3981                 2.4907                 1.9282
 Frc consts  --      0.3700                 0.7402                 0.6439
 IR Inten    --      1.8680                 0.5832                 5.1548

                     22                     23                     24
                      A                      A                      A
 Frequencies --    794.6456               840.9920               863.4714
 Red. masses --      3.4242                 2.0609                 1.8362
 Frc consts  --      1.2740                 0.8588                 0.8066
 IR Inten    --      6.5099                 9.5453                 5.8398

                     25                     26                     27
                      A                      A                      A
 Frequencies --    908.1385               952.5359              1068.3057
 Red. masses --      2.5879                 1.8379                 1.9813
 Frc consts  --      1.2575                 0.9825                 1.3323
 IR Inten    --      5.3647                 5.1823                 3.2742

                     28                     29                     30
                      A                      A                      A
 Frequencies --   1073.2120              1094.8416              1104.2062
 Red. masses --      1.7082                 2.0938                 1.9173
 Frc consts  --      1.1592                 1.4788                 1.3773
 IR Inten    --     10.9230                68.8304                 3.8673

                     31                     32                     33
                      A                      A                      A
 Frequencies --   1150.4320              1162.2670              1244.2961
 Red. masses --      2.6659                 2.1170                 1.4851
 Frc consts  --      2.0788                 1.6849                 1.3547
 IR Inten    --    126.9752                30.9510                21.8549

                     34                     35                     36
                      A                      A                      A
 Frequencies --   1271.2717              1295.3350              1316.1466
 Red. masses --      1.3510                 1.4644                 1.2597
 Frc consts  --      1.2864                 1.4477                 1.2857
 IR Inten    --     15.0901                23.5693                19.5622

                     37                     38                     39
                      A                      A                      A
 Frequencies --   1393.6707              1396.7043              1409.9350
 Red. masses --      1.4394                 3.1469                 1.5933
 Frc consts  --      1.6472                 3.6169                 1.8662
 IR Inten    --      1.6718                12.2430                20.6286

                     40                     41                     42
                      A                      A                      A
 Frequencies --   1440.6083              1460.7804              1482.6479
 Red. masses --      1.2624                 1.1180                 1.0887
 Frc consts  --      1.5436                 1.4056                 1.4101
 IR Inten    --      6.1593                12.9602                 6.1084

                     43                     44                     45
                      A                      A                      A
 Frequencies --   1514.2546              1530.0536              1542.2233
 Red. masses --      1.0742                 1.0502                 1.0511
 Frc consts  --      1.4512                 1.4485                 1.4730
 IR Inten    --      4.7145                 6.8021                 5.9804

                     46                     47                     48
                      A                      A                      A
 Frequencies --   1616.2987              1790.2200              1806.9063
 Red. masses --      1.3549                11.9358                 9.5416
 Frc consts  --      2.0854                22.5379                18.3545
 IR Inten    --    147.8165               407.5484                80.0023

                     49                     50                     51
                      A                      A                      A
 Frequencies --   1833.4382              3030.6955              3047.4149
 Red. masses --     10.7939                 1.0603                 1.0397
 Frc consts  --     21.3777                 5.7378                 5.6887
 IR Inten    --    109.2334                17.3774                26.3665

                     52                     53                     54
                      A                      A                      A
 Frequencies --   3055.9813              3066.8394              3074.3084
 Red. masses --      1.0691                 1.0947                 1.0594
 Frc consts  --      5.8826                 6.0662                 5.8996
 IR Inten    --     20.9400                14.9760                 1.5379

                     55                     56                     57
                      A                      A                      A
 Frequencies --   3098.6441              3115.9710              3135.3397
 Red. masses --      1.0974                 1.1002                 1.1020
 Frc consts  --      6.2082                 6.2936                 6.3826
 IR Inten    --      5.8732                44.7910                30.4127

                     58                     59                     60
                      A                      A                      A
 Frequencies --   3136.1720              3588.8886              3719.2564
 Red. masses --      1.1034                 1.0441                 1.1061
 Frc consts  --      6.3939                 7.9238                 9.0148
 IR Inten    --      1.5805                60.3352                68.9953

 - Thermochemistry -
 -------------------
 Temperature   298.150 Kelvin.  Pressure   1.00000 Atm.
 Atom     1 has atomic number  6 and mass  12.00000

 Molecular mass:   157.07389 amu.
 Principal axes and moments of inertia in atomic units:
                           1         2         3
     Eigenvalues --   929.468473071.353443144.71010
           X            0.99988  -0.01207  -0.00985
           Y            0.01036   0.98733  -0.15832
           Z            0.01164   0.15820   0.98734
 This molecule is an asymmetric top.
 Rotational symmetry number  1.
 Warning -- assumption of classical behavior for rotation
           may cause significant error
 Rotational temperatures (Kelvin)      0.09319     0.02820     0.02754
 Rotational constants (GHZ):           1.94169     0.58760     0.57390
 Zero-point vibrational energy     471271.3 (Joules/Mol)
                                  112.63655 (Kcal/Mol)
 Warning -- explicit consideration of  18 degrees of freedom as
           vibrations may cause significant error
 Vibrational temperatures:     51.66    69.27    78.56   102.19   165.49
          (Kelvin)            185.05   287.51   361.06   407.91   454.47
                              503.30   541.37   583.65   608.66   655.11
                              766.74   843.03   859.39   964.29  1021.86
                             1083.23  1143.32  1210.00  1242.34  1306.61
                             1370.49  1537.05  1544.11  1575.23  1588.71
                             1655.22  1672.24  1790.26  1829.08  1863.70
                             1893.64  2005.18  2009.55  2028.58  2072.71
                             2101.74  2133.20  2178.67  2201.41  2218.92
                             2325.49  2575.73  2599.74  2637.91  4360.49
                             4384.55  4396.88  4412.50  4423.24  4458.26
                             4483.19  4511.05  4512.25  5163.61  5351.18

 Zero-point correction=                           0.179498 (Hartree/Particle)
 Thermal correction to Energy=                    0.191889
 Thermal correction to Enthalpy=                  0.192833
 Thermal correction to Gibbs Free Energy=         0.139491
 Sum of electronic and zero-point Energies=           -553.656871
 Sum of electronic and thermal Energies=              -553.644479
 Sum of electronic and thermal Enthalpies=            -553.643535
 Sum of electronic and thermal Free Energies=         -553.696878

                     E (Thermal)             CV                S
                      KCal/Mol        Cal/Mol-Kelvin    Cal/Mol-Kelvin
 Total                  120.412             43.600            112.268
 Electronic               0.000              0.000              0.000
 Translational            0.889              2.981             41.064
 Rotational               0.889              2.981             30.574
 Vibrational            118.635             37.638             40.630
 Vibration     1          0.594              1.982              5.473
 Vibration     2          0.595              1.978              4.892
 Vibration     3          0.596              1.976              4.643
 Vibration     4          0.598              1.968              4.125
 Vibration     5          0.608              1.937              3.182
 Vibration     6          0.611              1.925              2.967
 Vibration     7          0.638              1.840              2.135
 Vibration     8          0.663              1.761              1.724
 Vibration     9          0.682              1.704              1.512
 Vibration    10          0.703              1.643              1.331
 Vibration    11          0.727              1.576              1.167
 Vibration    12          0.747              1.521              1.054
 Vibration    13          0.771              1.458              0.942
 Vibration    14          0.785              1.420              0.882
 Vibration    15          0.814              1.349              0.780
 Vibration    16          0.888              1.177              0.581
 Vibration    17          0.943              1.062              0.474
 Vibration    18          0.955              1.038              0.454

                           ! Non-Optimized Parameters !
 Normal termination of Gaussian 16 at Tue Dec  8 19:19:11 2020.

 ----------------------------------------------------------------------
 # B3LYP/6-311++G(d,p) empiricaldispersion=gd3bj scf=xqc pop=npa geom=c
 heck
 ----------------------------------------------------------------------

 --------------------------------------
 CID_17804643_JID_1043_Energie_neutraal
 --------------------------------------
 Structure from the checkpoint file:  "JID_1043.chk"
 Charge =  0 Multiplicity = 1

 SCF Done:  E(RB3LYP) =  -554.010219807     A.U. after   14 cycles
 Normal termination of Gaussian 16 at Tue Dec  8 19:20:31 2020.

 ----------------------------------------------------------------------
 # B3LYP/6-311++G(d,p) empiricaldispersion=gd3bj scf=xqc pop=npa geom=c
 heck
 ----------------------------------------------------------------------

 ------------------------------------
 CID_17804643_JID_1043_Energie_kation
 ------------------------------------
 Structure from the checkpoint file:  "JID_1043.chk"
 Charge =  1 Multiplicity = 2

 SCF Done:  E(UB3LYP) =  -553.676106185     A.U. after   23 cycles
 Normal termination of Gaussian 16 at Tue Dec  8 19:23:20 2020.
 Gaussian 16:  ES64L-G16RevA.03 25-Dec-2016

 ----------------------------------------------------------------------
 # B3LYP/6-311++G(d,p) empiricaldispersion=gd3bj scf=xqc pop=npa geom=c
 heck
 ----------------------------------------------------------------------

 -----------------------------------
 CID_17804643_JID_1043_Energie_anion
 -----------------------------------
 Structure from the checkpoint file:  "JID_1043.chk"
 Charge = -1 Multiplicity = 2

                         Standard orientation:
 ---------------------------------------------------------------------
 Center     Atomic      Atomic             Coordinates (Angstroms)
 Number     Number       Type             X           Y           Z
 ---------------------------------------------------------------------
      1          6           0        3.720109   -0.548846   -0.500178
      2          6           0        2.649423    0.368080   -1.097368
      3          6           0        1.227557   -0.042182   -0.709687
      4          6           0        0.896462    0.191578    0.753836
      5          8           0        1.577851    0.871871    1.488695
      6          6           0       -0.344459   -0.536355    1.315832
      7          6           0       -1.472503   -0.756721    0.340983
      8          8           0       -1.854300   -1.850332   -0.034007
      9          6           0       -2.142330    0.524879   -0.197629
     10          8           0       -1.660841    1.627571    0.027781
     11          7           0       -3.254824    0.268307   -0.919275
     12          1           0        3.689923   -0.521302    0.593265
     13          1           0        4.722477   -0.239727   -0.815446
     14          1           0        3.574926   -1.588031   -0.821432
     15          1           0        2.818135    1.397898   -0.765355
     16          1           0        2.726563    0.365963   -2.191440
     17          1           0        0.488919    0.539610   -1.279917
     18          1           0        1.034021   -1.096986   -0.952672
     19          1           0       -0.021460   -1.520721    1.673414
     20          1           0       -0.694626    0.057895    2.164792
     21          1           0       -3.511592   -0.692963   -1.097484
     22          1           0       -3.750749    1.024725   -1.367277
 ---------------------------------------------------------------------

 SCF Done:  E(UB3LYP) =  -554.034085811     A.U. after   24 cycles

 The electronic state is 2-A.
 Alpha  occ. eigenvalues --  -18.96987 -18.91358 -18.90679 -14.17005 -10.11706
 Alpha  occ. eigenvalues --  -10.08105 -10.05474 -10.05399 -10.04313 -10.03629
 Alpha  occ. eigenvalues --  -10.01868  -0.90651  -0.87023  -0.84564  -0.74413
 Alpha  occ. eigenvalues --   -0.67710  -0.61495  -0.57256  -0.49091  -0.47580
 Alpha  occ. eigenvalues --   -0.40245  -0.39075  -0.37191  -0.34886  -0.33623
 Alpha  occ. eigenvalues --   -0.31619  -0.30586  -0.28370  -0.28087  -0.27278
 Alpha  occ. eigenvalues --   -0.25708  -0.25118  -0.23702  -0.22815  -0.22286
 Alpha  occ. eigenvalues --   -0.22001  -0.20722  -0.19052  -0.12853  -0.12084
 Alpha  occ. eigenvalues --   -0.11064  -0.05611   0.05046
 Alpha virt. eigenvalues --    0.08101   0.09909   0.10269   0.11027   0.11929
 Alpha virt. eigenvalues --    0.12256   0.13441   0.13880   0.14236   0.14745
 Alpha virt. eigenvalues --    0.15320   0.15963   0.17968   0.18559   0.18802

  Beta  occ. eigenvalues --  -18.96960 -18.91008 -18.89913 -14.16940 -10.11622
  Beta  occ. eigenvalues --  -10.07915 -10.05469 -10.05398 -10.04316 -10.03102
  Beta  occ. eigenvalues --  -10.01917  -0.90577  -0.86280  -0.83308  -0.74135
  Beta  occ. eigenvalues --   -0.67687  -0.61232  -0.57087  -0.48891  -0.46675
  Beta  occ. eigenvalues --   -0.39800  -0.38959  -0.36877  -0.34772  -0.33485
  Beta  occ. eigenvalues --   -0.31380  -0.30360  -0.28218  -0.27487  -0.26873
  Beta  occ. eigenvalues --   -0.25106  -0.24268  -0.23125  -0.22612  -0.22125
  Beta  occ. eigenvalues --   -0.21707  -0.20476  -0.15634  -0.12370  -0.11022
  Beta  occ. eigenvalues --   -0.10584  -0.04962
  Beta virt. eigenvalues --    0.08047   0.09847   0.10203   0.10972   0.11879
  Beta virt. eigenvalues --    0.12330   0.13163   0.13682   0.14130   0.14447
  Beta virt. eigenvalues --    0.14723   0.15407   0.16008   0.17973   0.18546

 Mulliken charges and spin densities:
               1          2
     1  C   -0.599913  -0.016712
     2  C   -0.175313  -0.087242
     3  C   -0.028308   0.072001
     4  C    0.042986   0.027910
     5  O   -0.286871   0.010701
     6  C   -0.536148  -0.046364
     7  C    0.226725   0.378536
     8  O   -0.459114   0.269383
     9  C   -0.170878   0.115716
    10  O   -0.453761   0.132936
    11  N   -0.315099   0.038711
    12  H    0.169053  -0.000814
    13  H    0.114830  -0.002085
    14  H    0.112333   0.000020
    15  H    0.154063   0.010913
    16  H    0.113468   0.006706
    17  H    0.178716   0.039546
    18  H    0.115146   0.021045
    19  H    0.151193   0.007905
    20  H    0.168280   0.026959
    21  H    0.252972  -0.003831
    22  H    0.225641  -0.001940
 Sum of Mulliken charges =  -1.00000   1.00000

 Dipole moment (field-independent basis, Debye):
    X=              3.2901    Y=             -0.7654    Z=             -2.6651  Tot=              4.3027
 Quadrupole moment (field-independent basis, Debye-Ang):
   XX=            -87.2341   YY=            -89.1120   ZZ=            -74.9511
   XY=             -5.5634   XZ=             -0.7322   YZ=             -3.8540

 Summary of Natural Population Analysis:

                                       Natural Population
                Natural  -----------------------------------------------
    Atom  No    Charge         Core      Valence    Rydberg      Total
 -----------------------------------------------------------------------
      C    1   -0.28703      0.99967     2.28326    0.00410     3.28703
      C    2   -0.18951      0.99965     2.18276    0.00710     3.18951
      C    3   -0.24730      0.99957     2.24035    0.00738     3.24730
      C    4    0.32286      0.99968     1.65510    0.02237     2.67714
      O    5   -0.30457      0.99987     3.29733    0.00737     4.30457
      C    6   -0.27539      0.99956     2.26649    0.00935     3.27539
      C    7    0.30308      0.99966     1.67393    0.02333     2.69692
      O    8   -0.23563      0.99987     3.22880    0.00696     4.23563
      C    9    0.32025      0.99968     1.65468    0.02539     2.67975
      O   10   -0.30607      0.99988     3.29932    0.00687     4.30607
      N   11   -0.40653      0.99970     2.89769    0.00914     3.90653
      H   12    0.10410      0.00000     0.39492    0.00098     0.39590
      H   13    0.09047      0.00000     0.40867    0.00086     0.40953
      H   14    0.09064      0.00000     0.40839    0.00097     0.40936
      H   15    0.10063      0.00000     0.39753    0.00184     0.39937
      H   16    0.08741      0.00000     0.41088    0.00171     0.41259
      H   17    0.12539      0.00000     0.37228    0.00233     0.37461
      H   18    0.10692      0.00000     0.39113    0.00194     0.39308
      H   19    0.10713      0.00000     0.39056    0.00231     0.39287
      H   20    0.11540      0.00000     0.38271    0.00189     0.38460
      H   21    0.19970      0.00000     0.29806    0.00224     0.30030
      H   22    0.17803      0.00000     0.31735    0.00462     0.32197
 =======================================================================
   * Total *    0.00000     10.99678    30.85219    0.15103    42.00000

 Normal termination of Gaussian 16 at Tue Dec  8 19:26:17 2020.
