 Gaussian 16, Revision A.03,

 -----------------------------------------------------------
 # opt freq B3LYP/6-31G(d) empiricaldispersion=gd3bj scf=xqc
 -----------------------------------------------------------

 -------------------------------
 CID_114356543_JID_2034_neutraal
 -------------------------------
 Symbolic Z-matrix:
 Charge =  0 Multiplicity = 1

 SCF Done:  E(RB3LYP) =  -576.831591286     A.U. after   13 cycles
 SCF Done:  E(RB3LYP) =  -576.836893506     A.U. after   11 cycles
 SCF Done:  E(RB3LYP) =  -576.836071414     A.U. after   11 cycles
 SCF Done:  E(RB3LYP) =  -576.837651739     A.U. after   11 cycles
 SCF Done:  E(RB3LYP) =  -576.838243309     A.U. after   10 cycles
 SCF Done:  E(RB3LYP) =  -576.838196937     A.U. after   10 cycles
 SCF Done:  E(RB3LYP) =  -576.838443927     A.U. after   10 cycles
 SCF Done:  E(RB3LYP) =  -576.838465725     A.U. after    9 cycles
 SCF Done:  E(RB3LYP) =  -576.838466803     A.U. after    9 cycles
 SCF Done:  E(RB3LYP) =  -576.838469927     A.U. after    8 cycles
 SCF Done:  E(RB3LYP) =  -576.838471922     A.U. after    7 cycles
 SCF Done:  E(RB3LYP) =  -576.838472396     A.U. after    7 cycles
 SCF Done:  E(RB3LYP) =  -576.838472931     A.U. after    8 cycles
 SCF Done:  E(RB3LYP) =  -576.838473169     A.U. after    8 cycles
 SCF Done:  E(RB3LYP) =  -576.838473216     A.U. after    7 cycles
 SCF Done:  E(RB3LYP) =  -576.838473174     A.U. after    6 cycles
 Optimization completed.
    -- Stationary point found.
 Normal termination of Gaussian 16 at Wed Dec  9 16:51:04 2020.

 --------------------------------------------------------------------
 #N Geom=AllCheck Guess=TCheck SCRF=Check GenChk RB3LYP/6-31G(d) Freq
 --------------------------------------------------------------------

 Structure from the checkpoint file:  "JID_2034.chk"
 -------------------------------
 CID_114356543_JID_2034_neutraal
 -------------------------------
 Charge =  0 Multiplicity = 1

 SCF Done:  E(RB3LYP) =  -576.838473174     A.U. after    1 cycles

  Exact polarizability: 113.372   0.346 106.994  -1.735   1.759  99.529
 Approx polarizability: 142.283   0.007 144.293  -4.113   0.984 142.422

                      1                      2                      3
                      A                      A                      A
 Frequencies --     35.2810                55.1054                71.5504
 Red. masses --      2.9107                 3.0313                 2.9385
 Frc consts  --      0.0021                 0.0054                 0.0089
 IR Inten    --      9.5452                 2.0512                 0.3243

                      4                      5                      6
                      A                      A                      A
 Frequencies --     93.8984               108.8620               132.6974
 Red. masses --      1.2552                 2.5209                 3.8520
 Frc consts  --      0.0065                 0.0176                 0.0400
 IR Inten    --     46.8904                34.2326                 5.2162

                      7                      8                      9
                      A                      A                      A
 Frequencies --    138.9146               169.4887               190.6102
 Red. masses --      2.2988                 2.2996                 3.4104
 Frc consts  --      0.0261                 0.0389                 0.0730
 IR Inten    --      0.7723                 1.6518                 3.8074

                     10                     11                     12
                      A                      A                      A
 Frequencies --    224.0803               228.6029               235.0601
 Red. masses --      3.8948                 1.2186                 1.4261
 Frc consts  --      0.1152                 0.0375                 0.0464
 IR Inten    --      3.3761                 0.2157                 2.8961

                     13                     14                     15
                      A                      A                      A
 Frequencies --    261.6367               281.9839               295.1126
 Red. masses --      1.5302                 1.5748                 1.4078
 Frc consts  --      0.0617                 0.0738                 0.0722
 IR Inten    --      1.9133                18.6339                33.7959

                     16                     17                     18
                      A                      A                      A
 Frequencies --    305.9909               348.5094               363.1946
 Red. masses --      1.5503                 3.1688                 2.3402
 Frc consts  --      0.0855                 0.2268                 0.1819
 IR Inten    --      4.8348                 3.8933                 5.4250

                     19                     20                     21
                      A                      A                      A
 Frequencies --    392.0475               427.9684               505.4121
 Red. masses --      2.6376                 2.4258                 2.4344
 Frc consts  --      0.2389                 0.2618                 0.3664
 IR Inten    --      4.2964                 3.1883                13.3714

                     22                     23                     24
                      A                      A                      A
 Frequencies --    509.9321               623.1333               689.6093
 Red. masses --      3.2817                 3.6217                 3.1436
 Frc consts  --      0.5028                 0.8286                 0.8808
 IR Inten    --      3.5855                 8.7114                25.4195

                     25                     26                     27
                      A                      A                      A
 Frequencies --    786.5509               819.4685               865.7451
 Red. masses --      2.7897                 1.1618                 2.8474
 Frc consts  --      1.0168                 0.4597                 1.2574
 IR Inten    --      2.3974                 6.2941                19.9372

                     28                     29                     30
                      A                      A                      A
 Frequencies --    911.4787               924.2555               963.2885
 Red. masses --      2.4140                 1.9126                 1.7798
 Frc consts  --      1.1816                 0.9626                 0.9730
 IR Inten    --     25.6428                54.7409                61.8239

                     31                     32                     33
                      A                      A                      A
 Frequencies --    981.4033              1008.6237              1054.5291
 Red. masses --      1.8158                 2.2377                 2.8150
 Frc consts  --      1.0304                 1.3412                 1.8444
 IR Inten    --     27.4918                11.4160                16.7588

                     34                     35                     36
                      A                      A                      A
 Frequencies --   1074.8754              1101.9353              1110.8540
 Red. masses --      2.6774                 1.6694                 1.7846
 Frc consts  --      1.8226                 1.1943                 1.2975
 IR Inten    --     48.7488                 6.4747                37.2294

                     37                     38                     39
                      A                      A                      A
 Frequencies --   1118.3388              1128.7684              1165.5951
 Red. masses --      2.9807                 1.9065                 1.7951
 Frc consts  --      2.1964                 1.4312                 1.4370
 IR Inten    --     78.3974                17.7297                50.6181

                     40                     41                     42
                      A                      A                      A
 Frequencies --   1169.1394              1175.8711              1200.8173
 Red. masses --      2.8889                 1.6152                 1.4681
 Frc consts  --      2.3265                 1.3158                 1.2472
 IR Inten    --     70.8492                13.8137                 7.5985

                     43                     44                     45
                      A                      A                      A
 Frequencies --   1207.8181              1214.3339              1226.9845
 Red. masses --      1.7893                 1.3794                 1.7144
 Frc consts  --      1.5379                 1.1985                 1.5207
 IR Inten    --     27.3161                26.0921                22.7431

                     46                     47                     48
                      A                      A                      A
 Frequencies --   1261.6951              1289.0866              1295.8424
 Red. masses --      1.6184                 1.1871                 1.8670
 Frc consts  --      1.5179                 1.1623                 1.8471
 IR Inten    --     18.2666                23.6467                 6.6472

                     49                     50                     51
                      A                      A                      A
 Frequencies --   1308.4706              1330.8505              1355.9744
 Red. masses --      1.2987                 1.3586                 1.1635
 Frc consts  --      1.3100                 1.4178                 1.2604
 IR Inten    --     12.5154                24.2819                14.4918

                     52                     53                     54
                      A                      A                      A
 Frequencies --   1391.3637              1410.8251              1421.2441
 Red. masses --      1.4374                 1.2228                 1.3239
 Frc consts  --      1.6395                 1.4340                 1.5756
 IR Inten    --      2.3631                 1.4763                16.5100

                     55                     56                     57
                      A                      A                      A
 Frequencies --   1435.4168              1437.5815              1445.6164
 Red. masses --      1.3030                 1.3309                 1.3257
 Frc consts  --      1.5818                 1.6206                 1.6323
 IR Inten    --      3.5341                 5.7960                20.8829

                     58                     59                     60
                      A                      A                      A
 Frequencies --   1465.7425              1492.7731              1499.2951
 Red. masses --      1.4023                 1.1846                 1.1477
 Frc consts  --      1.7751                 1.5553                 1.5200
 IR Inten    --      2.2204                 3.2457                11.3698

                     61                     62                     63
                      A                      A                      A
 Frequencies --   1514.2929              1517.5152              1521.8685
 Red. masses --      1.0483                 1.0476                 1.0573
 Frc consts  --      1.4163                 1.4214                 1.4428
 IR Inten    --      4.3497                 0.7699                 2.3393

                     64                     65                     66
                      A                      A                      A
 Frequencies --   1525.6035              1530.9117              1531.4120
 Red. masses --      1.0700                 1.0676                 1.0857
 Frc consts  --      1.4673                 1.4741                 1.5001
 IR Inten    --     23.0491                 4.4052                12.7202

                     67                     68                     69
                      A                      A                      A
 Frequencies --   1543.5397              1547.4621              1555.2995
 Red. masses --      1.0541                 1.0808                 1.0700
 Frc consts  --      1.4797                 1.5249                 1.5250
 IR Inten    --      2.0905                 2.8300                 4.3458

                     70                     71                     72
                      A                      A                      A
 Frequencies --   1699.6263              2931.0342              2969.1019
 Red. masses --      1.0891                 1.0623                 1.0670
 Frc consts  --      1.8537                 5.3768                 5.5421
 IR Inten    --     19.5108                89.2019                59.0175

                     73                     74                     75
                      A                      A                      A
 Frequencies --   2981.0404              2990.2279              2997.0987
 Red. masses --      1.0708                 1.0408                 1.0695
 Frc consts  --      5.6064                 5.4833                 5.6601
 IR Inten    --     60.7815                99.9864                80.6774

                     76                     77                     78
                      A                      A                      A
 Frequencies --   3034.3289              3052.5549              3059.9115
 Red. masses --      1.1031                 1.0551                 1.0751
 Frc consts  --      5.9840                 5.7927                 5.9309
 IR Inten    --     62.4247                21.4539                34.4498

                     79                     80                     81
                      A                      A                      A
 Frequencies --   3063.7064              3069.6533              3074.4980
 Red. masses --      1.0824                 1.0907                 1.0705
 Frc consts  --      5.9861                 6.0552                 5.9619
 IR Inten    --      2.4476                38.2351                60.0355

                     82                     83                     84
                      A                      A                      A
 Frequencies --   3093.5171              3112.6443              3119.5509
 Red. masses --      1.0929                 1.1009                 1.1028
 Frc consts  --      6.1625                 6.2845                 6.3233
 IR Inten    --     28.2227                46.5612                38.9501

                     85                     86                     87
                      A                      A                      A
 Frequencies --   3128.1309              3129.4401              3170.0188
 Red. masses --      1.0858                 1.0969                 1.0974
 Frc consts  --      6.2597                 6.3292                 6.4972
 IR Inten    --     28.9252                28.9041                15.0750

                     88                     89                     90
                      A                      A                      A
 Frequencies --   3456.2756              3541.6709              3771.7549
 Red. masses --      1.0496                 1.0917                 1.0668
 Frc consts  --      7.3875                 8.0678                 8.9420
 IR Inten    --      2.0129                 1.7632                18.7742

 - Thermochemistry -
 -------------------
 Temperature   298.150 Kelvin.  Pressure   1.00000 Atm.
 Atom     1 has atomic number  6 and mass  12.00000

 Molecular mass:   176.15248 amu.
 Principal axes and moments of inertia in atomic units:
                           1         2         3
     Eigenvalues --  1619.787592723.851293268.43131
           X            0.99998   0.00459   0.00379
           Y           -0.00460   0.99998   0.00523
           Z           -0.00377  -0.00525   0.99998
 This molecule is an asymmetric top.
 Rotational symmetry number  1.
 Warning -- assumption of classical behavior for rotation
           may cause significant error
 Rotational temperatures (Kelvin)      0.05347     0.03180     0.02650
 Rotational constants (GHZ):           1.11418     0.66257     0.55217
 Zero-point vibrational energy     765459.4 (Joules/Mol)
                                  182.94920 (Kcal/Mol)
 Warning -- explicit consideration of  22 degrees of freedom as
           vibrations may cause significant error
 Vibrational temperatures:     50.76    79.28   102.95   135.10   156.63
          (Kelvin)            190.92   199.87   243.86   274.25   322.40
                              328.91   338.20   376.44   405.71   424.60
                              440.25   501.43   522.56   564.07   615.75
                              727.18   733.68   896.55   992.19  1131.67
                             1179.03  1245.61  1311.41  1329.80  1385.96
                             1412.02  1451.18  1517.23  1546.51  1585.44
                             1598.27  1609.04  1624.05  1677.03  1682.13
                             1691.82  1727.71  1737.78  1747.16  1765.36
                             1815.30  1854.71  1864.43  1882.60  1914.80
                             1950.94  2001.86  2029.86  2044.85  2065.24
                             2068.36  2079.92  2108.88  2147.77  2157.15
                             2178.73  2183.37  2189.63  2195.00  2202.64
                             2203.36  2220.81  2226.45  2237.73  2445.38
                             4217.10  4271.88  4289.05  4302.27  4312.16
                             4365.72  4391.95  4402.53  4407.99  4416.55
                             4423.52  4450.88  4478.40  4488.34  4500.68
                             4502.57  4560.95  4972.81  5095.67  5426.71

 Zero-point correction=                           0.291548 (Hartree/Particle)
 Thermal correction to Energy=                    0.307032
 Thermal correction to Enthalpy=                  0.307976
 Thermal correction to Gibbs Free Energy=         0.249082
 Sum of electronic and zero-point Energies=           -576.546925
 Sum of electronic and thermal Energies=              -576.531442
 Sum of electronic and thermal Enthalpies=            -576.530497
 Sum of electronic and thermal Free Energies=         -576.589392

                     E (Thermal)             CV                S
                      KCal/Mol        Cal/Mol-Kelvin    Cal/Mol-Kelvin
 Total                  192.665             55.329            123.953
 Electronic               0.000              0.000              0.000
 Translational            0.889              2.981             41.406
 Rotational               0.889              2.981             31.045
 Vibrational            190.888             49.367             51.502
 Vibration     1          0.594              1.982              5.508
 Vibration     2          0.596              1.976              4.625
 Vibration     3          0.598              1.968              4.110
 Vibration     4          0.603              1.954              3.577
 Vibration     5          0.606              1.942              3.289
 Vibration     6          0.613              1.921              2.907
 Vibration     7          0.615              1.914              2.819
 Vibration     8          0.625              1.880              2.441
 Vibration     9          0.634              1.853              2.222
 Vibration    10          0.649              1.804              1.926
 Vibration    11          0.651              1.797              1.890
 Vibration    12          0.655              1.787              1.840
 Vibration    13          0.669              1.743              1.651
 Vibration    14          0.681              1.707              1.522
 Vibration    15          0.689              1.683              1.444
 Vibration    16          0.696              1.662              1.384
 Vibration    17          0.726              1.578              1.173
 Vibration    18          0.737              1.548              1.108
 Vibration    19          0.759              1.487              0.992
 Vibration    20          0.789              1.409              0.865
 Vibration    21          0.861              1.238              0.645
 Vibration    22          0.865              1.228              0.634

                           ! Non-Optimized Parameters !
 Normal termination of Gaussian 16 at Wed Dec  9 16:59:18 2020.

 ----------------------------------------------------------------------
 # B3LYP/6-311++G(d,p) empiricaldispersion=gd3bj scf=xqc pop=npa geom=c
 heck
 ----------------------------------------------------------------------

 ---------------------------------------
 CID_114356543_JID_2034_Energie_neutraal
 ---------------------------------------
 Structure from the checkpoint file:  "JID_2034.chk"
 Charge =  0 Multiplicity = 1

 SCF Done:  E(RB3LYP) =  -577.026590617     A.U. after   14 cycles
 Normal termination of Gaussian 16 at Wed Dec  9 17:02:40 2020.

 ----------------------------------------------------------------------
 # B3LYP/6-311++G(d,p) empiricaldispersion=gd3bj scf=xqc pop=npa geom=c
 heck
 ----------------------------------------------------------------------

 -------------------------------------
 CID_114356543_JID_2034_Energie_kation
 -------------------------------------
 Structure from the checkpoint file:  "JID_2034.chk"
 Charge =  1 Multiplicity = 2

 SCF Done:  E(UB3LYP) =  -576.750362894     A.U. after   22 cycles
 Normal termination of Gaussian 16 at Wed Dec  9 17:10:10 2020.
 Gaussian 16:  ES64L-G16RevA.03 25-Dec-2016

 ----------------------------------------------------------------------
 # B3LYP/6-311++G(d,p) empiricaldispersion=gd3bj scf=xqc pop=npa geom=c
 heck
 ----------------------------------------------------------------------

 ------------------------------------
 CID_114356543_JID_2034_Energie_anion
 ------------------------------------
 Structure from the checkpoint file:  "JID_2034.chk"
 Charge = -1 Multiplicity = 2

                         Standard orientation:
 ---------------------------------------------------------------------
 Center     Atomic      Atomic             Coordinates (Angstroms)
 Number     Number       Type             X           Y           Z
 ---------------------------------------------------------------------
      1          6           0       -1.826293   -0.937369    1.904298
      2          6           0       -1.853366   -1.424507    0.456579
      3          7           0       -0.642588   -1.122660   -0.316895
      4          6           0       -0.553682   -1.970078   -1.498452
      5          6           0       -0.365244    0.289208   -0.645753
      6          6           0       -1.566140    1.127189   -1.099667
      7          8           0       -2.384924    1.477911    0.018490
      8          6           0        0.456171    1.012987    0.449392
      9          6           0        1.638676    0.154963    0.897752
     10          8           0        2.498377   -0.012339   -0.222675
     11          6           0        3.608193   -0.832140    0.059937
     12          7           0        0.874979    2.320269   -0.084486
     13          1           0       -0.909775   -1.264242    2.407709
     14          1           0       -2.681427   -1.358640    2.446026
     15          1           0       -1.904520    0.149072    1.960411
     16          1           0       -1.936536   -2.518044    0.466413
     17          1           0       -2.766374   -1.046357   -0.034354
     18          1           0       -1.341759   -1.778710   -2.253495
     19          1           0        0.419939   -1.826570   -1.977745
     20          1           0       -0.631674   -3.021916   -1.202121
     21          1           0        0.299578    0.253703   -1.516321
     22          1           0       -1.177079    2.028613   -1.583446
     23          1           0       -2.148952    0.553222   -1.838238
     24          1           0       -2.908671    2.251582   -0.232777
     25          1           0       -0.180574    1.200913    1.316250
     26          1           0        2.183046    0.661715    1.714380
     27          1           0        1.292245   -0.822177    1.256264
     28          1           0        4.233322   -0.408864    0.863352
     29          1           0        3.296747   -1.844037    0.363172
     30          1           0        4.204733   -0.901513   -0.853971
     31          1           0        1.208649    2.903479    0.681430
     32          1           0        1.684821    2.159411   -0.684309
 ---------------------------------------------------------------------

 SCF Done:  E(UB3LYP) =  -577.009936737     A.U. after   26 cycles

 The electronic state is 2-A.
 Alpha  occ. eigenvalues --  -19.02238 -19.01306 -14.19597 -14.18369 -10.10748
 Alpha  occ. eigenvalues --  -10.10172 -10.10161 -10.08878 -10.08792 -10.08477
 Alpha  occ. eigenvalues --  -10.08225 -10.05082  -0.93521  -0.91350  -0.81631
 Alpha  occ. eigenvalues --   -0.77788  -0.65831  -0.64111  -0.62187  -0.56401
 Alpha  occ. eigenvalues --   -0.55413  -0.52572  -0.49282  -0.44839  -0.41341
 Alpha  occ. eigenvalues --   -0.39815  -0.38356  -0.37600  -0.36579  -0.36032
 Alpha  occ. eigenvalues --   -0.34676  -0.33532  -0.32544  -0.31515  -0.31069
 Alpha  occ. eigenvalues --   -0.29433  -0.29223  -0.28386  -0.26051  -0.25419
 Alpha  occ. eigenvalues --   -0.24662  -0.23625  -0.23210  -0.22659  -0.21654
 Alpha  occ. eigenvalues --   -0.16981  -0.15991  -0.14145  -0.10604   0.04597
 Alpha virt. eigenvalues --    0.06373   0.07135   0.07704   0.08419   0.09465
 Alpha virt. eigenvalues --    0.09594   0.10112   0.10364   0.11490   0.11921
 Alpha virt. eigenvalues --    0.12228   0.12760   0.13319   0.13762   0.13994

  Beta  occ. eigenvalues --  -19.02226 -19.01272 -14.19593 -14.18348 -10.10708
  Beta  occ. eigenvalues --  -10.10156 -10.10139 -10.08877 -10.08785 -10.08465
  Beta  occ. eigenvalues --  -10.08206 -10.05072  -0.93505  -0.91276  -0.81617
  Beta  occ. eigenvalues --   -0.77754  -0.65801  -0.64083  -0.62140  -0.56328
  Beta  occ. eigenvalues --   -0.55370  -0.52519  -0.49237  -0.44800  -0.41271
  Beta  occ. eigenvalues --   -0.39756  -0.38326  -0.37575  -0.36537  -0.36000
  Beta  occ. eigenvalues --   -0.34641  -0.33501  -0.32521  -0.31486  -0.31048
  Beta  occ. eigenvalues --   -0.29410  -0.29197  -0.28358  -0.26019  -0.25391
  Beta  occ. eigenvalues --   -0.24640  -0.23591  -0.23173  -0.22620  -0.21620
  Beta  occ. eigenvalues --   -0.16944  -0.15968  -0.14123  -0.10580
  Beta virt. eigenvalues --    0.06767   0.07562   0.07819   0.08019   0.09063
  Beta virt. eigenvalues --    0.09832   0.10159   0.10329   0.10631   0.12058
  Beta virt. eigenvalues --    0.12200   0.12515   0.12980   0.13659   0.13899

 Mulliken charges and spin densities:
               1          2
     1  C   -0.201117  -0.354834
     2  C   -0.252980   0.073426
     3  N    0.087840   0.122065
     4  C    0.456918  -0.714249
     5  C   -0.823717   0.585247
     6  C    1.187396  -1.790009
     7  O   -0.419624   0.145318
     8  C    0.288674  -0.597708
     9  C   -0.635151   0.203732
    10  O   -0.186095   0.060366
    11  C    1.003672  -1.243616
    12  N   -0.467159   0.223612
    13  H   -0.079122   0.206335
    14  H   -0.010165   0.139036
    15  H    0.134544   0.037334
    16  H   -0.099428   0.226084
    17  H    0.097907   0.038998
    18  H   -0.073053   0.183914
    19  H   -0.086326   0.229322
    20  H   -0.078285   0.210941
    21  H    0.368222  -0.154925
    22  H   -0.186356   0.350935
    23  H   -0.164254   0.315804
    24  H   -0.129696   0.406575
    25  H    0.057135   0.156529
    26  H   -0.383788   0.534201
    27  H    0.512791  -0.356059
    28  H   -0.337516   0.461836
    29  H   -0.340168   0.460544
    30  H   -0.330747   0.468019
    31  H   -0.000486   0.234620
    32  H    0.090133   0.136607
 Sum of Mulliken charges =  -1.00000   1.00000

 Dipole moment (field-independent basis, Debye):
    X=             -1.7740    Y=             -1.4551    Z=              0.3246  Tot=              2.3173
 Quadrupole moment (field-independent basis, Debye-Ang):
   XX=           -143.2152   YY=           -124.1298   ZZ=           -108.1847
   XY=              8.8830   XZ=             -3.8046   YZ=             -0.3733

 Summary of Natural Population Analysis:

                                       Natural Population
                Natural  -----------------------------------------------
    Atom  No    Charge         Core      Valence    Rydberg      Total
 -----------------------------------------------------------------------
      C    1   -0.29122      0.99965     2.28692    0.00465     3.29122
      C    2   -0.08194      0.99961     2.07177    0.01055     3.08194
      N    3   -0.28999      0.99971     2.77610    0.01418     3.78999
      C    4   -0.17216      0.99964     2.16404    0.00848     3.17216
      C    5   -0.01580      0.99954     1.99936    0.01690     3.01580
      C    6   -0.01905      0.99954     2.00681    0.01270     3.01905
      O    7   -0.37836      0.99989     3.37115    0.00731     4.37836
      C    8   -0.02903      0.99956     2.01499    0.01448     3.02903
      C    9   -0.01363      0.99955     2.00121    0.01287     3.01363
      O   10   -0.30575      0.99988     3.29611    0.00975     4.30575
      C   11   -0.09415      0.99962     2.08518    0.00935     3.09415
      N   12   -0.42379      0.99977     2.91358    0.01044     3.92379
      H   13    0.09503      0.00000     0.40362    0.00136     0.40497
      H   14    0.09493      0.00000     0.40430    0.00077     0.40507
      H   15    0.10762      0.00000     0.39051    0.00187     0.39238
      H   16    0.08896      0.00000     0.40968    0.00136     0.41104
      H   17    0.08560      0.00000     0.41279    0.00161     0.41440
      H   18    0.07730      0.00000     0.42133    0.00137     0.42270
      H   19    0.09724      0.00000     0.40163    0.00113     0.40276
      H   20    0.09303      0.00000     0.40581    0.00116     0.40697
      H   21    0.10355      0.00000     0.39407    0.00238     0.39645
      H   22    0.09389      0.00000     0.40438    0.00173     0.40611
      H   23    0.07594      0.00000     0.42247    0.00159     0.42406
      H   24    0.23431      0.00000     0.25930    0.00638     0.26569
      H   25    0.10093      0.00000     0.39680    0.00227     0.39907
      H   26    0.07696      0.00000     0.42138    0.00166     0.42304
      H   27    0.09153      0.00000     0.40645    0.00202     0.40847
      H   28    0.07778      0.00000     0.42006    0.00216     0.42222
      H   29    0.07926      0.00000     0.41911    0.00164     0.42074
      H   30    0.08920      0.00000     0.40942    0.00138     0.41080
      H   31    0.17482      0.00000     0.32350    0.00168     0.32518
      H   32    0.17698      0.00000     0.32067    0.00235     0.32302
 =======================================================================
   * Total *    0.00000     11.99597    36.83451    0.16952    49.00000

 Normal termination of Gaussian 16 at Wed Dec  9 17:18:22 2020.
