 Gaussian 16, Revision A.03,

 -----------------------------------------------------------
 # opt freq B3LYP/6-31G(d) empiricaldispersion=gd3bj scf=xqc
 -----------------------------------------------------------

 -------------------------------
 CID_141332702_JID_5177_neutraal
 -------------------------------
 Symbolic Z-matrix:
 Charge =  0 Multiplicity = 1

 SCF Done:  E(RB3LYP) =  -742.015216744     A.U. after   14 cycles
 SCF Done:  E(RB3LYP) =  -742.023380531     A.U. after   14 cycles
 SCF Done:  E(RB3LYP) =  -742.019966621     A.U. after   15 cycles
 SCF Done:  E(RB3LYP) =  -742.023447570     A.U. after   13 cycles
 SCF Done:  E(RB3LYP) =  -742.025093606     A.U. after   14 cycles
 SCF Done:  E(RB3LYP) =  -742.025058178     A.U. after   13 cycles
 SCF Done:  E(RB3LYP) =  -742.025120868     A.U. after   12 cycles
 SCF Done:  E(RB3LYP) =  -742.025670718     A.U. after   12 cycles
 SCF Done:  E(RB3LYP) =  -742.025734942     A.U. after   11 cycles
 SCF Done:  E(RB3LYP) =  -742.025750371     A.U. after   11 cycles
 SCF Done:  E(RB3LYP) =  -742.025758849     A.U. after    9 cycles
 SCF Done:  E(RB3LYP) =  -742.025759446     A.U. after    8 cycles
 SCF Done:  E(RB3LYP) =  -742.025759698     A.U. after    8 cycles
 SCF Done:  E(RB3LYP) =  -742.025759761     A.U. after    7 cycles
 Optimization completed.
    -- Stationary point found.
 Normal termination of Gaussian 16 at Thu Dec 10 14:53:22 2020.

 --------------------------------------------------------------------
 #N Geom=AllCheck Guess=TCheck SCRF=Check GenChk RB3LYP/6-31G(d) Freq
 --------------------------------------------------------------------

 Structure from the checkpoint file:  "JID_5177.chk"
 -------------------------------
 CID_141332702_JID_5177_neutraal
 -------------------------------
 Charge =  0 Multiplicity = 1

 SCF Done:  E(RB3LYP) =  -742.025759761     A.U. after    1 cycles

  Exact polarizability: 119.730  -8.609 116.588  10.214   3.027 107.836
 Approx polarizability: 166.602 -17.847 165.815  29.908  -4.549 179.755

                      1                      2                      3
                      A                      A                      A
 Frequencies --     39.9769                47.5111                56.5702
 Red. masses --      6.7231                 4.3505                 5.7291
 Frc consts  --      0.0063                 0.0058                 0.0108
 IR Inten    --      0.1332                 0.2800                 1.2389

                      4                      5                      6
                      A                      A                      A
 Frequencies --     77.0531                91.6501                98.0528
 Red. masses --      7.8271                 3.3214                 4.6828
 Frc consts  --      0.0274                 0.0164                 0.0265
 IR Inten    --      1.7848                 0.6216                 2.3153

                      7                      8                      9
                      A                      A                      A
 Frequencies --    142.0538               154.7858               176.4116
 Red. masses --      3.9961                 2.2032                 6.7185
 Frc consts  --      0.0475                 0.0311                 0.1232
 IR Inten    --      3.9015                 2.9864                 2.6268

                     10                     11                     12
                      A                      A                      A
 Frequencies --    199.2725               248.4412               257.1517
 Red. masses --      3.1953                 2.3836                 1.3903
 Frc consts  --      0.0748                 0.0867                 0.0542
 IR Inten    --      0.7369                 1.1591                 1.1169

                     13                     14                     15
                      A                      A                      A
 Frequencies --    319.1474               338.3852               362.0395
 Red. masses --      2.3703                 2.2155                 4.3597
 Frc consts  --      0.1422                 0.1495                 0.3367
 IR Inten    --      4.1325                 2.6629                 7.0583

                     16                     17                     18
                      A                      A                      A
 Frequencies --    415.5812               457.3423               493.3861
 Red. masses --      3.4939                 2.4126                 2.7092
 Frc consts  --      0.3555                 0.2973                 0.3886
 IR Inten    --     14.2023                 3.3716                 7.3253

                     19                     20                     21
                      A                      A                      A
 Frequencies --    541.1019               559.8740               566.0604
 Red. masses --      1.2222                 2.1786                 2.6113
 Frc consts  --      0.2108                 0.4023                 0.4930
 IR Inten    --     81.8379                65.0538                19.5058

                     22                     23                     24
                      A                      A                      A
 Frequencies --    586.7906               593.0644               598.1567
 Red. masses --      4.0490                 2.2243                 2.6148
 Frc consts  --      0.8214                 0.4609                 0.5512
 IR Inten    --      0.4834                85.6535                28.5339

                     25                     26                     27
                      A                      A                      A
 Frequencies --    685.3462               697.9348               745.4047
 Red. masses --      4.9409                 3.0649                 9.1345
 Frc consts  --      1.3673                 0.8796                 2.9903
 IR Inten    --      6.9055                27.8607                25.8933

                     28                     29                     30
                      A                      A                      A
 Frequencies --    763.6221               800.5879               814.8600
 Red. masses --      2.5069                 1.9496                 2.3409
 Frc consts  --      0.8613                 0.7362                 0.9158
 IR Inten    --      4.4505                11.6155                12.0621

                     31                     32                     33
                      A                      A                      A
 Frequencies --    873.0802               896.5951               903.7273
 Red. masses --      2.8279                 3.6252                 1.3137
 Frc consts  --      1.2700                 1.7170                 0.6322
 IR Inten    --      2.2487                11.4979                 1.4310

                     34                     35                     36
                      A                      A                      A
 Frequencies --    953.5683               982.6256              1024.7938
 Red. masses --      2.2716                 2.1770                 1.6982
 Frc consts  --      1.2170                 1.2385                 1.0508
 IR Inten    --      6.6565                11.1980                 4.2067

                     37                     38                     39
                      A                      A                      A
 Frequencies --   1026.7338              1047.8289              1099.0723
 Red. masses --      1.9043                 2.5400                 2.3516
 Frc consts  --      1.1828                 1.6431                 1.6737
 IR Inten    --      0.8805                16.4777                21.5135

                     40                     41                     42
                      A                      A                      A
 Frequencies --   1124.9486              1135.3659              1181.3849
 Red. masses --      3.1613                 1.7313                 1.6270
 Frc consts  --      2.3571                 1.3149                 1.3379
 IR Inten    --     43.8184                10.0205                19.2064

                     43                     44                     45
                      A                      A                      A
 Frequencies --   1192.3835              1202.8348              1232.6939
 Red. masses --      2.4291                 1.1127                 1.7159
 Frc consts  --      2.0349                 0.9485                 1.5362
 IR Inten    --      4.0583                 1.9090                44.3822

                     46                     47                     48
                      A                      A                      A
 Frequencies --   1273.5652              1293.3712              1320.2722
 Red. masses --      1.6573                 1.3152                 1.2315
 Frc consts  --      1.5837                 1.2963                 1.2648
 IR Inten    --     42.7323                 9.2219                 7.7269

                     49                     50                     51
                      A                      A                      A
 Frequencies --   1328.9120              1339.5723              1361.4072
 Red. masses --      1.7890                 2.4945                 2.1198
 Frc consts  --      1.8615                 2.6373                 2.3148
 IR Inten    --     21.9616                98.1932                60.5512

                     52                     53                     54
                      A                      A                      A
 Frequencies --   1364.3013              1394.7063              1406.0694
 Red. masses --      2.3473                 1.3908                 1.3124
 Frc consts  --      2.5742                 1.5939                 1.5288
 IR Inten    --     63.4730                 7.5651                 8.3277

                     55                     56                     57
                      A                      A                      A
 Frequencies --   1406.7929              1438.7597              1452.4586
 Red. masses --      1.4046                 1.5092                 1.3735
 Frc consts  --      1.6378                 1.8407                 1.7072
 IR Inten    --     63.7914                62.8365                 5.3574

                     58                     59                     60
                      A                      A                      A
 Frequencies --   1461.1201              1495.6755              1503.9789
 Red. masses --      2.3016                 1.5295                 1.2490
 Frc consts  --      2.8950                 2.0159                 1.6646
 IR Inten    --    105.6324                29.3099                24.3628

                     61                     62                     63
                      A                      A                      A
 Frequencies --   1510.1287              1512.6481              1524.1316
 Red. masses --      1.0841                 1.0818                 1.1278
 Frc consts  --      1.4567                 1.4584                 1.5436
 IR Inten    --     19.4381                 1.6264                22.9189

                     64                     65                     66
                      A                      A                      A
 Frequencies --   1527.6531              1533.6613              1544.7021
 Red. masses --      1.1958                 1.0643                 1.0567
 Frc consts  --      1.6442                 1.4750                 1.4855
 IR Inten    --     52.0277                14.5372                16.0649

                     67                     68                     69
                      A                      A                      A
 Frequencies --   1789.8080              1848.4228              1881.3903
 Red. masses --      7.9488                 9.4066                12.5438
 Frc consts  --     15.0025                18.9358                26.1599
 IR Inten    --    262.7806               773.1039               126.5279

                     70                     71                     72
                      A                      A                      A
 Frequencies --   3044.5229              3048.3649              3049.2180
 Red. masses --      1.0584                 1.0508                 1.0545
 Frc consts  --      5.7801                 5.7529                 5.7769
 IR Inten    --     15.0354                26.9926                17.0270

                     73                     74                     75
                      A                      A                      A
 Frequencies --   3062.4835              3070.9629              3079.6520
 Red. masses --      1.0606                 1.0639                 1.0815
 Frc consts  --      5.8605                 5.9117                 6.0431
 IR Inten    --     31.8249                20.2032                33.1494

                     76                     77                     78
                      A                      A                      A
 Frequencies --   3081.4215              3092.4286              3104.3562
 Red. masses --      1.0870                 1.0984                 1.1009
 Frc consts  --      6.0810                 6.1891                 6.2509
 IR Inten    --     13.0700                 9.4675                27.8501

                     79                     80                     81
                      A                      A                      A
 Frequencies --   3117.3369              3123.4675              3138.5621
 Red. masses --      1.0998                 1.1015                 1.1021
 Frc consts  --      6.2969                 6.3316                 6.3964
 IR Inten    --     64.9865                26.9558                19.5304

                     82                     83                     84
                      A                      A                      A
 Frequencies --   3149.2721              3599.4981              3652.3558
 Red. masses --      1.1003                 1.0760                 1.0799
 Frc consts  --      6.4297                 8.2137                 8.4876
 IR Inten    --      1.8489                23.3635                69.4911

 - Thermochemistry -
 -------------------
 Temperature   298.150 Kelvin.  Pressure   1.00000 Atm.
 Atom     1 has atomic number  6 and mass  12.00000

 Molecular mass:   213.11134 amu.
 Principal axes and moments of inertia in atomic units:
                           1         2         3
     Eigenvalues --  2137.639423783.695344518.80118
           X            0.99954   0.02917  -0.00823
           Y           -0.02872   0.99834   0.04985
           Z            0.00967  -0.04959   0.99872
 This molecule is an asymmetric top.
 Rotational symmetry number  1.
 Warning -- assumption of classical behavior for rotation
           may cause significant error
 Rotational temperatures (Kelvin)      0.04052     0.02289     0.01917
 Rotational constants (GHZ):           0.84427     0.47698     0.39938
 Zero-point vibrational energy     662328.4 (Joules/Mol)
                                  158.30029 (Kcal/Mol)
 Warning -- explicit consideration of  24 degrees of freedom as
           vibrations may cause significant error
 Vibrational temperatures:     57.52    68.36    81.39   110.86   131.86
          (Kelvin)            141.08   204.38   222.70   253.82   286.71
                              357.45   369.98   459.18   486.86   520.89
                              597.93   658.01   709.87   778.52   805.53
                              814.43   844.26   853.29   860.61   986.06
                             1004.17  1072.47  1098.68  1151.87  1172.40
                             1256.17  1290.00  1300.26  1371.97  1413.78
                             1474.45  1477.24  1507.59  1581.32  1618.55
                             1633.54  1699.75  1715.57  1730.61  1773.57
                             1832.38  1860.87  1899.58  1912.01  1927.35
                             1958.76  1962.93  2006.67  2023.02  2024.06
                             2070.05  2089.76  2102.23  2151.94  2163.89
                             2172.74  2176.36  2192.89  2197.95  2206.60
                             2222.48  2575.13  2659.47  2706.90  4380.39
                             4385.92  4387.14  4406.23  4418.43  4430.93
                             4433.48  4449.32  4466.48  4485.15  4493.97
                             4515.69  4531.10  5178.87  5254.93

 Zero-point correction=                           0.252268 (Hartree/Particle)
 Thermal correction to Energy=                    0.267460
 Thermal correction to Enthalpy=                  0.268405
 Thermal correction to Gibbs Free Energy=         0.208914
 Sum of electronic and zero-point Energies=           -741.773492
 Sum of electronic and thermal Energies=              -741.758299
 Sum of electronic and thermal Enthalpies=            -741.757355
 Sum of electronic and thermal Free Energies=         -741.816846

                     E (Thermal)             CV                S
                      KCal/Mol        Cal/Mol-Kelvin    Cal/Mol-Kelvin
 Total                  167.834             55.749            125.209
 Electronic               0.000              0.000              0.000
 Translational            0.889              2.981             41.973
 Rotational               0.889              2.981             31.969
 Vibrational            166.057             49.787             51.267
 Vibration     1          0.594              1.981              5.260
 Vibration     2          0.595              1.979              4.918
 Vibration     3          0.596              1.975              4.573
 Vibration     4          0.599              1.964              3.965
 Vibration     5          0.602              1.955              3.625
 Vibration     6          0.603              1.951              3.493
 Vibration     7          0.616              1.911              2.776
 Vibration     8          0.620              1.897              2.613
 Vibration     9          0.628              1.871              2.366
 Vibration    10          0.637              1.841              2.140
 Vibration    11          0.662              1.765              1.742
 Vibration    12          0.667              1.751              1.681
 Vibration    13          0.705              1.637              1.314
 Vibration    14          0.719              1.599              1.220
 Vibration    15          0.736              1.550              1.113
 Vibration    16          0.779              1.436              0.907
 Vibration    17          0.815              1.345              0.774
 Vibration    18          0.849              1.265              0.675
 Vibration    19          0.896              1.159              0.563
 Vibration    20          0.915              1.118              0.524
 Vibration    21          0.922              1.105              0.512
 Vibration    22          0.944              1.060              0.473
 Vibration    23          0.951              1.047              0.462
 Vibration    24          0.956              1.036              0.453

                           ! Non-Optimized Parameters !
 Normal termination of Gaussian 16 at Thu Dec 10 15:03:41 2020.

 ----------------------------------------------------------------------
 # B3LYP/6-311++G(d,p) empiricaldispersion=gd3bj scf=xqc pop=npa geom=c
 heck
 ----------------------------------------------------------------------

 ---------------------------------------
 CID_141332702_JID_5177_Energie_neutraal
 ---------------------------------------
 Structure from the checkpoint file:  "JID_5177.chk"
 Charge =  0 Multiplicity = 1

 SCF Done:  E(RB3LYP) =  -742.248955449     A.U. after   15 cycles
 Normal termination of Gaussian 16 at Thu Dec 10 15:08:25 2020.

 ----------------------------------------------------------------------
 # B3LYP/6-311++G(d,p) empiricaldispersion=gd3bj scf=xqc pop=npa geom=c
 heck
 ----------------------------------------------------------------------

 -------------------------------------
 CID_141332702_JID_5177_Energie_kation
 -------------------------------------
 Structure from the checkpoint file:  "JID_5177.chk"
 Charge =  1 Multiplicity = 2

 SCF Done:  E(UB3LYP) =  -741.921509179     A.U. after   33 cycles
 SCF Done:  E(UB3LYP) =  -741.921509265     a.u. after    2 cycles
 Normal termination of Gaussian 16 at Thu Dec 10 15:34:55 2020.
 Gaussian 16:  ES64L-G16RevA.03 25-Dec-2016

 ----------------------------------------------------------------------
 # B3LYP/6-311++G(d,p) empiricaldispersion=gd3bj scf=xqc pop=npa geom=c
 heck
 ----------------------------------------------------------------------

 ------------------------------------
 CID_141332702_JID_5177_Energie_anion
 ------------------------------------
 Structure from the checkpoint file:  "JID_5177.chk"
 Charge = -1 Multiplicity = 2

                         Standard orientation:
 ---------------------------------------------------------------------
 Center     Atomic      Atomic             Coordinates (Angstroms)
 Number     Number       Type             X           Y           Z
 ---------------------------------------------------------------------
      1          6           0        0.431150    2.637110    0.783646
      2          6           0        0.569937    2.116636   -0.647665
      3          6           0        1.991768    1.652586   -0.993852
      4          7           0        2.544476    0.650136   -0.091218
      5          6           0        2.311990   -0.695079   -0.037460
      6          8           0        2.815740   -1.395217    0.831472
      7          6           0        1.424756   -1.336994   -1.104130
      8          6           0        0.254249   -2.087388   -0.441652
      9          7           0       -0.875044   -1.232105   -0.121391
     10          6           0       -1.911554   -0.869511   -1.068410
     11          6           0       -2.789977    0.107816   -0.278451
     12          8           0       -3.790741    0.672603   -0.661050
     13          7           0       -2.186040    0.204107    0.955991
     14          6           0       -1.014962   -0.579453    1.077581
     15          8           0       -0.297402   -0.632025    2.054984
     16          1           0        0.632790    1.843863    1.509836
     17          1           0       -0.583083    3.008233    0.964490
     18          1           0        1.125939    3.465007    0.972765
     19          1           0       -0.123328    1.282458   -0.801625
     20          1           0        0.284754    2.895787   -1.366969
     21          1           0        2.027268    1.275045   -2.021399
     22          1           0        2.672441    2.510687   -0.960062
     23          1           0        3.091144    0.976338    0.696039
     24          1           0        1.050737   -0.634971   -1.854381
     25          1           0        2.055663   -2.068131   -1.621809
     26          1           0       -0.110551   -2.880403   -1.102484
     27          1           0        0.611630   -2.544012    0.483961
     28          1           0       -1.517284   -0.369562   -1.962907
     29          1           0       -2.504069   -1.733850   -1.393872
     30          1           0       -2.522716    0.781317    1.713854
 ---------------------------------------------------------------------

 SCF Done:  E(UB3LYP) =  -742.242430268     A.U. after   33 cycles
 SCF Done:  E(UB3LYP) =  -742.242430268     a.u. after    1 cycles

 The electronic state is 2-A.
 Alpha  occ. eigenvalues --  -19.02906 -19.01353 -18.98785 -14.27890 -14.26475
 Alpha  occ. eigenvalues --  -14.24169 -10.22406 -10.21268 -10.17635 -10.13843
 Alpha  occ. eigenvalues --  -10.12362 -10.11632 -10.08794 -10.07875 -10.06759
 Alpha  occ. eigenvalues --   -0.99348  -0.96802  -0.94110  -0.89716  -0.83441
 Alpha  occ. eigenvalues --   -0.82873  -0.69836  -0.68908  -0.65166  -0.60487
 Alpha  occ. eigenvalues --   -0.59478  -0.54578  -0.52388  -0.50643  -0.46931
 Alpha  occ. eigenvalues --   -0.44888  -0.42900  -0.40729  -0.40116  -0.38783
 Alpha  occ. eigenvalues --   -0.37884  -0.36900  -0.36235  -0.35083  -0.34409
 Alpha  occ. eigenvalues --   -0.34250  -0.33372  -0.32189  -0.31261  -0.30740
 Alpha  occ. eigenvalues --   -0.28964  -0.28313  -0.27977  -0.25891  -0.25737
 Alpha  occ. eigenvalues --   -0.25100  -0.21267  -0.20999  -0.18513  -0.16927
 Alpha  occ. eigenvalues --   -0.16186  -0.15905   0.03868
 Alpha virt. eigenvalues --    0.05780   0.06500   0.06963   0.07886   0.08258
 Alpha virt. eigenvalues --    0.09228   0.09495   0.10674   0.10836   0.11241
 Alpha virt. eigenvalues --    0.11450   0.11910   0.12779   0.13150   0.13435

  Beta  occ. eigenvalues --  -19.02901 -19.01349 -18.98783 -14.27873 -14.26477
  Beta  occ. eigenvalues --  -14.24160 -10.22403 -10.21266 -10.17635 -10.13793
  Beta  occ. eigenvalues --  -10.12339 -10.11597 -10.08761 -10.07851 -10.06741
  Beta  occ. eigenvalues --   -0.99337  -0.96796  -0.94105  -0.89706  -0.83420
  Beta  occ. eigenvalues --   -0.82852  -0.69790  -0.68864  -0.65106  -0.60436
  Beta  occ. eigenvalues --   -0.59428  -0.54545  -0.52346  -0.50586  -0.46883
  Beta  occ. eigenvalues --   -0.44840  -0.42868  -0.40671  -0.40078  -0.38749
  Beta  occ. eigenvalues --   -0.37832  -0.36872  -0.36195  -0.35053  -0.34376
  Beta  occ. eigenvalues --   -0.34222  -0.33340  -0.32168  -0.31240  -0.30699
  Beta  occ. eigenvalues --   -0.28913  -0.28285  -0.27943  -0.25855  -0.25697
  Beta  occ. eigenvalues --   -0.25063  -0.21254  -0.20986  -0.18500  -0.16911
  Beta  occ. eigenvalues --   -0.16166  -0.15882
  Beta virt. eigenvalues --    0.06300   0.06561   0.07220   0.07449   0.08487
  Beta virt. eigenvalues --    0.09036   0.09586   0.10018   0.10735   0.11083
  Beta virt. eigenvalues --    0.11702   0.11897   0.12270   0.13133   0.13404

 Mulliken charges and spin densities:
               1          2
     1  C   -0.487469  -0.255207
     2  C   -0.541697   0.828584
     3  C    1.174215  -1.745375
     4  N   -0.181968   0.059726
     5  C   -0.449547   0.205912
     6  O   -0.320744  -0.001897
     7  C    0.728226  -0.621567
     8  C   -0.102651  -0.293778
     9  N   -0.089530   0.092365
    10  C    0.865859  -1.039795
    11  C   -0.155639   0.174965
    12  O   -0.323267   0.013497
    13  N   -0.182451   0.013456
    14  C    0.576404  -0.568823
    15  O   -0.319806   0.027159
    16  H    0.138925   0.054633
    17  H   -0.007474   0.138475
    18  H   -0.217070   0.355591
    19  H    1.503360  -1.485072
    20  H   -0.608651   0.801939
    21  H   -0.570430   0.765006
    22  H   -0.217323   0.384887
    23  H    0.219687   0.075461
    24  H   -0.089059   0.225912
    25  H   -0.227292   0.448408
    26  H   -0.503204   0.680940
    27  H    0.272671  -0.040018
    28  H   -0.433989   0.669593
    29  H   -0.626872   0.854789
    30  H    0.176784   0.180233
 Sum of Mulliken charges =  -1.00000   1.00000

 Dipole moment (field-independent basis, Debye):
    X=             -0.8696    Y=              0.6068    Z=              4.4668  Tot=              4.5910
 Quadrupole moment (field-independent basis, Debye-Ang):
   XX=           -146.3574   YY=           -140.9390   ZZ=           -139.1001
   XY=              0.6318   XZ=             -7.0034   YZ=              3.0536

 Summary of Natural Population Analysis:

                                       Natural Population
                Natural  -----------------------------------------------
    Atom  No    Charge         Core      Valence    Rydberg      Total
 -----------------------------------------------------------------------
      C    1   -0.29247      0.99966     2.28707    0.00574     3.29247
      C    2   -0.19553      0.99963     2.18799    0.00792     3.19553
      C    3   -0.08777      0.99961     2.07644    0.01173     3.08777
      N    4   -0.31709      0.99967     2.80740    0.01002     3.81709
      C    5    0.34498      0.99966     1.63201    0.02335     2.65502
      O    6   -0.32585      0.99988     3.32053    0.00545     4.32585
      C    7   -0.23920      0.99958     2.23064    0.00898     3.23920
      C    8   -0.08281      0.99960     2.07086    0.01235     3.08281
      N    9   -0.26239      0.99964     2.75042    0.01234     3.76239
      C   10   -0.12254      0.99959     2.11261    0.01034     3.12254
      C   11    0.34617      0.99970     1.63205    0.02208     2.65383
      O   12   -0.29788      0.99987     3.29221    0.00580     4.29788
      N   13   -0.32833      0.99964     2.82098    0.00771     3.82833
      C   14    0.40965      0.99967     1.56649    0.02419     2.59035
      O   15   -0.31129      0.99987     3.30646    0.00495     4.31129
      H   16    0.10596      0.00000     0.39284    0.00120     0.39404
      H   17    0.09941      0.00000     0.39965    0.00094     0.40059
      H   18    0.09530      0.00000     0.40379    0.00091     0.40470
      H   19    0.08942      0.00000     0.40675    0.00383     0.41058
      H   20    0.09999      0.00000     0.39826    0.00175     0.40001
      H   21    0.10149      0.00000     0.39638    0.00212     0.39851
      H   22    0.09858      0.00000     0.39995    0.00147     0.40142
      H   23    0.19429      0.00000     0.30380    0.00191     0.30571
      H   24    0.10559      0.00000     0.39202    0.00239     0.39441
      H   25    0.11599      0.00000     0.38284    0.00117     0.38401
      H   26    0.10240      0.00000     0.39581    0.00179     0.39760
      H   27    0.11829      0.00000     0.38028    0.00143     0.38171
      H   28    0.11386      0.00000     0.38376    0.00237     0.38614
      H   29    0.11421      0.00000     0.38341    0.00237     0.38579
      H   30    0.20758      0.00000     0.29050    0.00192     0.29242
 =======================================================================
   * Total *   -0.00000     14.99526    41.80420    0.20054    57.00000

 Normal termination of Gaussian 16 at Thu Dec 10 15:49:04 2020.
