 Gaussian 16, Revision A.03,

 -----------------------------------------------------------
 # opt freq B3LYP/6-31G(d) empiricaldispersion=gd3bj scf=xqc
 -----------------------------------------------------------

 -------------------------------
 CID_137238951_JID_3929_neutraal
 -------------------------------
 Symbolic Z-matrix:
 Charge =  0 Multiplicity = 1

 SCF Done:  E(RB3LYP) =  -690.248399576     A.U. after   17 cycles
 SCF Done:  E(RB3LYP) =  -690.261642213     A.U. after   13 cycles
 SCF Done:  E(RB3LYP) =  -690.264023824     A.U. after   13 cycles
 SCF Done:  E(RB3LYP) =  -690.264850050     A.U. after   14 cycles
 SCF Done:  E(RB3LYP) =  -690.265181576     A.U. after   13 cycles
 SCF Done:  E(RB3LYP) =  -690.265808179     A.U. after   13 cycles
 SCF Done:  E(RB3LYP) =  -690.266746550     A.U. after   14 cycles
 SCF Done:  E(RB3LYP) =  -690.268526983     A.U. after   14 cycles
 SCF Done:  E(RB3LYP) =  -690.270178044     A.U. after   14 cycles
 SCF Done:  E(RB3LYP) =  -690.270572617     A.U. after   14 cycles
 SCF Done:  E(RB3LYP) =  -690.271273613     A.U. after   13 cycles
 SCF Done:  E(RB3LYP) =  -690.271299425     A.U. after   12 cycles
 SCF Done:  E(RB3LYP) =  -690.271309905     A.U. after   11 cycles
 SCF Done:  E(RB3LYP) =  -690.271311111     A.U. after    8 cycles
 SCF Done:  E(RB3LYP) =  -690.271312003     A.U. after    9 cycles
 SCF Done:  E(RB3LYP) =  -690.271312286     A.U. after    8 cycles
 Optimization completed.
    -- Stationary point found.
 Normal termination of Gaussian 16 at Sun Dec 13 15:58:45 2020.

 --------------------------------------------------------------------
 #N Geom=AllCheck Guess=TCheck SCRF=Check GenChk RB3LYP/6-31G(d) Freq
 --------------------------------------------------------------------

 Structure from the checkpoint file:  "JID_3929.chk"
 -------------------------------
 CID_137238951_JID_3929_neutraal
 -------------------------------
 Charge =  0 Multiplicity = 1

 SCF Done:  E(RB3LYP) =  -690.271312286     A.U. after    1 cycles

  Exact polarizability: 151.453   1.364  76.794   7.841  -0.268  69.805
 Approx polarizability: 245.051  -1.379 133.376  26.599  -0.672 112.141

                      1                      2                      3
                      A                      A                      A
 Frequencies --     26.6163                84.4603               124.9869
 Red. masses --      6.3413                 6.2669                 3.9530
 Frc consts  --      0.0026                 0.0263                 0.0364
 IR Inten    --      2.5489                 9.3346                12.4821

                      4                      5                      6
                      A                      A                      A
 Frequencies --    133.8677               162.3161               163.7825
 Red. masses --      5.6744                 5.8416                 5.4381
 Frc consts  --      0.0599                 0.0907                 0.0859
 IR Inten    --      1.9223                 8.0126                 1.7297

                      7                      8                      9
                      A                      A                      A
 Frequencies --    216.6294               247.1046               312.3837
 Red. masses --      5.1707                 5.7780                 7.6959
 Frc consts  --      0.1430                 0.2079                 0.4425
 IR Inten    --     13.3191                 2.4975                 2.9636

                     10                     11                     12
                      A                      A                      A
 Frequencies --    354.4964               370.6037               405.5239
 Red. masses --      1.8788                 1.4177                 1.9720
 Frc consts  --      0.1391                 0.1147                 0.1911
 IR Inten    --      8.8438                43.2291                22.7290

                     13                     14                     15
                      A                      A                      A
 Frequencies --    480.0512               501.7551               511.3324
 Red. masses --      7.0555                 5.8199                 7.4990
 Frc consts  --      0.9580                 0.8633                 1.1552
 IR Inten    --     13.0055                13.8776                11.9797

                     16                     17                     18
                      A                      A                      A
 Frequencies --    544.8161               566.9719               581.6446
 Red. masses --      4.1080                 1.7219                 2.2148
 Frc consts  --      0.7184                 0.3261                 0.4415
 IR Inten    --      2.5573                27.8120                34.2321

                     19                     20                     21
                      A                      A                      A
 Frequencies --    608.4414               658.5387               679.0661
 Red. masses --      4.5231                 4.7602                 5.3432
 Frc consts  --      0.9866                 1.2163                 1.4517
 IR Inten    --     27.3570                35.6733                10.6082

                     22                     23                     24
                      A                      A                      A
 Frequencies --    711.7111               727.1652               771.9422
 Red. masses --      9.1082                 1.7984                 5.9282
 Frc consts  --      2.7183                 0.5603                 2.0814
 IR Inten    --     43.0551               118.0436                 3.0053

                     25                     26                     27
                      A                      A                      A
 Frequencies --    815.3403               868.3973               927.1329
 Red. masses --      1.5459                 2.8827                 2.3290
 Frc consts  --      0.6055                 1.2808                 1.1795
 IR Inten    --    447.0602                45.4712                53.9140

                     28                     29                     30
                      A                      A                      A
 Frequencies --    950.1591               965.7035              1015.2808
 Red. masses --      3.7995                 4.0246                 3.1139
 Frc consts  --      2.0210                 2.2114                 1.8912
 IR Inten    --     43.6799                 1.1409                18.0196

                     31                     32                     33
                      A                      A                      A
 Frequencies --   1171.1722              1180.4643              1234.3059
 Red. masses --      3.6033                 2.8698                 1.4507
 Frc consts  --      2.9120                 2.3562                 1.3022
 IR Inten    --    100.7276                 5.9265                49.8728

                     34                     35                     36
                      A                      A                      A
 Frequencies --   1251.8915              1282.6597              1333.7111
 Red. masses --      1.5989                 2.4077                 1.7634
 Frc consts  --      1.4764                 2.3338                 1.8481
 IR Inten    --     56.9713                51.6692                79.6270

                     37                     38                     39
                      A                      A                      A
 Frequencies --   1336.9777              1371.1090              1388.5874
 Red. masses --      1.1593                 3.6701                 2.4639
 Frc consts  --      1.2209                 4.0651                 2.7992
 IR Inten    --      4.3852                13.7114                73.6793

                     40                     41                     42
                      A                      A                      A
 Frequencies --   1434.1636              1489.6172              1605.7632
 Red. masses --      1.9714                 2.0379                10.8061
 Frc consts  --      2.3890                 2.6642                16.4165
 IR Inten    --     63.9623                18.4973                77.1348

                     43                     44                     45
                      A                      A                      A
 Frequencies --   1694.0015              1712.4272              1722.0113
 Red. masses --      1.7376                 1.1295                 2.2276
 Frc consts  --      2.9378                 1.9515                 3.8918
 IR Inten    --     25.2589                43.7708                27.4545

                     46                     47                     48
                      A                      A                      A
 Frequencies --   1817.8589              1831.6217              3075.4063
 Red. masses --      9.8245                 8.4182                 1.0824
 Frc consts  --     19.1286                16.6396                 6.0316
 IR Inten    --    265.1807               444.8342                 0.1636

                     49                     50                     51
                      A                      A                      A
 Frequencies --   3421.7148              3471.6337              3534.1014
 Red. masses --      1.0552                 1.0454                 1.0757
 Frc consts  --      7.2791                 7.4237                 7.9156
 IR Inten    --      0.5635                 4.3720                23.6331

                     52                     53                     54
                      A                      A                      A
 Frequencies --   3535.3382              3568.7892              3601.8176
 Red. masses --      1.0765                 1.0997                 1.0892
 Frc consts  --      7.9271                 8.2519                 8.3255
 IR Inten    --     12.7947                 5.2714                28.7532

 - Thermochemistry -
 -------------------
 Temperature   298.150 Kelvin.  Pressure   1.00000 Atm.
 Atom     1 has atomic number  6 and mass  12.00000

 Molecular mass:   185.06612 amu.
 Principal axes and moments of inertia in atomic units:
                           1         2         3
     Eigenvalues --  1050.206193433.408833662.05983
           X            0.99978   0.01247  -0.01702
           Y           -0.01257   0.99990  -0.00584
           Z            0.01695   0.00605   0.99984
 This molecule is an asymmetric top.
 Rotational symmetry number  1.
 Warning -- assumption of classical behavior for rotation
           may cause significant error
 Rotational temperatures (Kelvin)      0.08247     0.02523     0.02365
 Rotational constants (GHZ):           1.71846     0.52564     0.49282
 Zero-point vibrational energy     386126.8 (Joules/Mol)
                                   92.28653 (Kcal/Mol)
 Warning -- explicit consideration of  19 degrees of freedom as
           vibrations may cause significant error
 Vibrational temperatures:     38.29   121.52   179.83   192.61   233.54
          (Kelvin)            235.65   311.68   355.53   449.45   510.04
                              533.22   583.46   690.69   721.91   735.69
                              783.87   815.75   836.86   875.41   947.49
                              977.02  1023.99  1046.23  1110.65  1173.09
                             1249.43  1333.94  1367.07  1389.43  1460.76
                             1685.06  1698.42  1775.89  1801.19  1845.46
                             1918.91  1923.61  1972.72  1997.87  2063.44
                             2143.23  2310.34  2437.29  2463.80  2477.59
                             2615.49  2635.30  4424.82  4923.08  4994.91
                             5084.78  5086.56  5134.69  5182.21

 Zero-point correction=                           0.147068 (Hartree/Particle)
 Thermal correction to Energy=                    0.158948
 Thermal correction to Enthalpy=                  0.159892
 Thermal correction to Gibbs Free Energy=         0.108509
 Sum of electronic and zero-point Energies=           -690.124244
 Sum of electronic and thermal Energies=              -690.112365
 Sum of electronic and thermal Enthalpies=            -690.111421
 Sum of electronic and thermal Free Energies=         -690.162803

                     E (Thermal)             CV                S
                      KCal/Mol        Cal/Mol-Kelvin    Cal/Mol-Kelvin
 Total                   99.741             44.156            108.143
 Electronic               0.000              0.000              0.000
 Translational            0.889              2.981             41.553
 Rotational               0.889              2.981             30.958
 Vibrational             97.964             38.194             35.633
 Vibration     1          0.593              1.984              6.067
 Vibration     2          0.601              1.960              3.784
 Vibration     3          0.610              1.928              3.022
 Vibration     4          0.613              1.920              2.890
 Vibration     5          0.622              1.889              2.523
 Vibration     6          0.623              1.887              2.506
 Vibration     7          0.645              1.816              1.987
 Vibration     8          0.661              1.768              1.751
 Vibration     9          0.701              1.650              1.350
 Vibration    10          0.730              1.566              1.146
 Vibration    11          0.743              1.533              1.077
 Vibration    12          0.771              1.458              0.943
 Vibration    13          0.836              1.294              0.710
 Vibration    14          0.857              1.246              0.654
 Vibration    15          0.866              1.225              0.630
 Vibration    16          0.900              1.151              0.555
 Vibration    17          0.923              1.103              0.510
 Vibration    18          0.938              1.071              0.482
 Vibration    19          0.967              1.014              0.435

                           ! Non-Optimized Parameters !
 Normal termination of Gaussian 16 at Sun Dec 13 16:03:08 2020.

 ----------------------------------------------------------------------
 # B3LYP/6-311++G(d,p) empiricaldispersion=gd3bj scf=xqc pop=npa geom=c
 heck
 ----------------------------------------------------------------------

 ---------------------------------------
 CID_137238951_JID_3929_Energie_neutraal
 ---------------------------------------
 Structure from the checkpoint file:  "JID_3929.chk"
 Charge =  0 Multiplicity = 1

 SCF Done:  E(RB3LYP) =  -690.489593414     A.U. after   15 cycles
 Normal termination of Gaussian 16 at Sun Dec 13 16:04:29 2020.

 ----------------------------------------------------------------------
 # B3LYP/6-311++G(d,p) empiricaldispersion=gd3bj scf=xqc pop=npa geom=c
 heck
 ----------------------------------------------------------------------

 -------------------------------------
 CID_137238951_JID_3929_Energie_kation
 -------------------------------------
 Structure from the checkpoint file:  "JID_3929.chk"
 Charge =  1 Multiplicity = 2

 SCF Done:  E(UB3LYP) =  -690.170675919     A.U. after   29 cycles
 Normal termination of Gaussian 16 at Sun Dec 13 16:07:54 2020.
 Gaussian 16:  ES64L-G16RevA.03 25-Dec-2016

 ----------------------------------------------------------------------
 # B3LYP/6-311++G(d,p) empiricaldispersion=gd3bj scf=xqc pop=npa geom=c
 heck
 ----------------------------------------------------------------------

 ------------------------------------
 CID_137238951_JID_3929_Energie_anion
 ------------------------------------
 Structure from the checkpoint file:  "JID_3929.chk"
 Charge = -1 Multiplicity = 2

                         Standard orientation:
 ---------------------------------------------------------------------
 Center     Atomic      Atomic             Coordinates (Angstroms)
 Number     Number       Type             X           Y           Z
 ---------------------------------------------------------------------
      1          6           0       -0.761944   -0.188627   -0.791228
      2          6           0       -0.067755    1.044965   -0.252115
      3          8           0       -0.609018    2.111722   -0.031047
      4          7           0        1.283560    0.840083   -0.054685
      5          6           0        1.841590   -0.444523   -0.003611
      6          7           0        3.104707   -0.674802    0.078510
      7          7           0        3.920036    0.431904    0.047753
      8          7           0        1.003073   -1.580475    0.007743
      9          7           0       -0.200272   -1.495538   -0.311903
     10          6           0       -2.265823   -0.160540   -0.498015
     11          8           0       -3.111368   -0.115788   -1.371917
     12          7           0       -2.581275   -0.230025    0.830592
     13          7           0       -1.591344   -0.123420    1.811222
     14          1           0       -0.675780   -0.210282   -1.884447
     15          1           0        1.773075    1.584252    0.436846
     16          1           0        3.647018    1.135547   -0.642781
     17          1           0        4.874324    0.129799   -0.112958
     18          1           0       -3.566299   -0.134381    1.060138
     19          1           0       -1.684209    0.754778    2.317989
     20          1           0       -1.650846   -0.908927    2.454131
 ---------------------------------------------------------------------

 SCF Done:  E(UB3LYP) =  -690.517354552     A.U. after   25 cycles

 The electronic state is 2-A.
 Alpha  occ. eigenvalues --  -18.97187 -18.96899 -14.24705 -14.23410 -14.21928
 Alpha  occ. eigenvalues --  -14.20458 -14.15795 -14.15555 -14.14910 -10.15052
 Alpha  occ. eigenvalues --  -10.14840 -10.09007 -10.06577  -0.93222  -0.92103
 Alpha  occ. eigenvalues --   -0.87413  -0.87186  -0.83758  -0.78623  -0.69307
 Alpha  occ. eigenvalues --   -0.67192  -0.62519  -0.52402  -0.50293  -0.47118
 Alpha  occ. eigenvalues --   -0.43128  -0.42373  -0.41348  -0.39695  -0.39182
 Alpha  occ. eigenvalues --   -0.35186  -0.33487  -0.33183  -0.30606  -0.29482
 Alpha  occ. eigenvalues --   -0.27315  -0.26728  -0.25726  -0.21228  -0.18888
 Alpha  occ. eigenvalues --   -0.18023  -0.16794  -0.15328  -0.15095  -0.13257
 Alpha  occ. eigenvalues --   -0.12674  -0.08537  -0.05414   0.04025
 Alpha virt. eigenvalues --    0.07549   0.08531   0.10589   0.11447   0.11616
 Alpha virt. eigenvalues --    0.12741   0.13438   0.13832   0.13904   0.16518
 Alpha virt. eigenvalues --    0.16903   0.17400   0.18336   0.19646   0.19833

  Beta  occ. eigenvalues --  -18.97189 -18.96885 -14.24697 -14.23401 -14.21932
  Beta  occ. eigenvalues --  -14.20390 -14.15119 -14.15117 -14.13997 -10.15031
  Beta  occ. eigenvalues --  -10.14799 -10.09032 -10.06627  -0.93186  -0.92059
  Beta  occ. eigenvalues --   -0.87190  -0.86744  -0.82774  -0.78296  -0.69261
  Beta  occ. eigenvalues --   -0.66749  -0.62224  -0.51374  -0.50069  -0.46917
  Beta  occ. eigenvalues --   -0.43103  -0.42152  -0.41299  -0.39429  -0.38770
  Beta  occ. eigenvalues --   -0.35020  -0.33113  -0.32856  -0.30463  -0.29397
  Beta  occ. eigenvalues --   -0.26849  -0.26286  -0.24540  -0.19309  -0.18227
  Beta  occ. eigenvalues --   -0.17739  -0.16107  -0.15132  -0.14482  -0.12740
  Beta  occ. eigenvalues --   -0.12268  -0.06407  -0.04427
  Beta virt. eigenvalues --    0.07512   0.08520   0.10509   0.11306   0.11516
  Beta virt. eigenvalues --    0.12466   0.13102   0.13748   0.14088   0.14697
  Beta virt. eigenvalues --    0.16505   0.16876   0.17454   0.18349   0.19684

 Mulliken charges and spin densities:
               1          2
     1  C    0.441562  -0.029480
     2  C   -0.056716  -0.034189
     3  O   -0.397718   0.006178
     4  N   -0.256460  -0.010661
     5  C   -0.267540  -0.014393
     6  N   -0.294822   0.273700
     7  N   -0.197412   0.048224
     8  N   -0.199048   0.231682
     9  N   -0.065455   0.361684
    10  C   -0.265050   0.031659
    11  O   -0.362062  -0.000401
    12  N   -0.266866   0.005055
    13  N   -0.410862  -0.001722
    14  H    0.207131   0.086852
    15  H    0.258938  -0.002395
    16  H    0.167133   0.029021
    17  H    0.252816   0.003625
    18  H    0.283413   0.006725
    19  H    0.193760   0.005699
    20  H    0.235259   0.003138
 Sum of Mulliken charges =  -1.00000   1.00000

 Dipole moment (field-independent basis, Debye):
    X=             -1.1028    Y=              3.6407    Z=              3.4396  Tot=              5.1285
 Quadrupole moment (field-independent basis, Debye-Ang):
   XX=           -101.6847   YY=           -100.4037   ZZ=            -77.8942
   XY=              9.9131   XZ=            -18.2379   YZ=             -0.8377

 Summary of Natural Population Analysis:

                                       Natural Population
                Natural  -----------------------------------------------
    Atom  No    Charge         Core      Valence    Rydberg      Total
 -----------------------------------------------------------------------
      C    1   -0.13808      0.99951     2.12051    0.01807     3.13808
      C    2    0.34992      0.99967     1.62613    0.02428     2.65008
      O    3   -0.33251      0.99987     3.32603    0.00660     4.33251
      N    4   -0.33624      0.99963     2.82422    0.01239     3.83624
      C    5    0.21268      0.99960     1.76787    0.01985     2.78732
      N    6   -0.06378      0.99962     2.54343    0.02072     3.56378
      N    7   -0.32454      0.99976     2.81128    0.01350     3.82454
      N    8   -0.05526      0.99972     2.53890    0.01665     3.55526
      N    9    0.02214      0.99977     2.45893    0.01917     3.47786
      C   10    0.35998      0.99966     1.61342    0.02694     2.64002
      O   11   -0.32380      0.99987     3.31735    0.00657     4.32380
      N   12   -0.23751      0.99965     2.72217    0.01570     3.73751
      N   13   -0.30816      0.99977     2.79599    0.01240     3.80816
      H   14    0.12441      0.00000     0.37382    0.00177     0.37559
      H   15    0.19376      0.00000     0.30296    0.00328     0.30624
      H   16    0.16179      0.00000     0.33524    0.00297     0.33821
      H   17    0.17314      0.00000     0.32520    0.00167     0.32686
      H   18    0.17603      0.00000     0.32132    0.00266     0.32397
      H   19    0.17125      0.00000     0.32709    0.00166     0.32875
      H   20    0.17478      0.00000     0.32369    0.00153     0.32522
 =======================================================================
   * Total *   -0.00000     12.99609    34.77553    0.22837    48.00000

 Normal termination of Gaussian 16 at Sun Dec 13 16:10:51 2020.
