 Gaussian 16, Revision A.03,

 -----------------------------------------------------------
 # opt freq B3LYP/6-31G(d) empiricaldispersion=gd3bj scf=xqc
 -----------------------------------------------------------

 -------------------------------
 CID_154124104_JID_4192_neutraal
 -------------------------------
 Symbolic Z-matrix:
 Charge =  0 Multiplicity = 1

 SCF Done:  E(RB3LYP) =  -722.454020566     A.U. after   15 cycles
 SCF Done:  E(RB3LYP) =  -722.465739547     A.U. after   13 cycles
 SCF Done:  E(RB3LYP) =  -722.468592941     A.U. after   13 cycles
 SCF Done:  E(RB3LYP) =  -722.470061795     A.U. after   13 cycles
 SCF Done:  E(RB3LYP) =  -722.471463693     A.U. after   12 cycles
 SCF Done:  E(RB3LYP) =  -722.472398818     A.U. after   13 cycles
 SCF Done:  E(RB3LYP) =  -722.473351891     A.U. after   13 cycles
 SCF Done:  E(RB3LYP) =  -722.473748528     A.U. after   12 cycles
 SCF Done:  E(RB3LYP) =  -722.473961860     A.U. after   12 cycles
 SCF Done:  E(RB3LYP) =  -722.474038752     A.U. after   11 cycles
 SCF Done:  E(RB3LYP) =  -722.474102537     A.U. after   10 cycles
 SCF Done:  E(RB3LYP) =  -722.474109375     A.U. after   10 cycles
 SCF Done:  E(RB3LYP) =  -722.474111149     A.U. after    9 cycles
 SCF Done:  E(RB3LYP) =  -722.474111423     A.U. after    8 cycles
 SCF Done:  E(RB3LYP) =  -722.474111593     A.U. after    7 cycles
 SCF Done:  E(RB3LYP) =  -722.474111696     A.U. after    8 cycles
 Optimization completed.
    -- Stationary point found.
 Normal termination of Gaussian 16 at Thu Dec 10 09:20:14 2020.

 --------------------------------------------------------------------
 #N Geom=AllCheck Guess=TCheck SCRF=Check GenChk RB3LYP/6-31G(d) Freq
 --------------------------------------------------------------------

 Structure from the checkpoint file:  "JID_4192.chk"
 -------------------------------
 CID_154124104_JID_4192_neutraal
 -------------------------------
 Charge =  0 Multiplicity = 1

 SCF Done:  E(RB3LYP) =  -722.474111696     A.U. after    1 cycles

  Exact polarizability: 181.253 -24.408 117.283   1.604   9.583  71.353
 Approx polarizability: 240.613 -71.019 208.240  -4.048  22.199 108.212

                      1                      2                      3
                      A                      A                      A
 Frequencies --     27.4719                39.2645                54.6674
 Red. masses --      6.9574                 6.8014                 5.1353
 Frc consts  --      0.0031                 0.0062                 0.0090
 IR Inten    --      4.1531                 0.6037                 5.8116

                      4                      5                      6
                      A                      A                      A
 Frequencies --     77.8479                90.9800                96.0778
 Red. masses --      4.5130                 7.7124                 7.6020
 Frc consts  --      0.0161                 0.0376                 0.0413
 IR Inten    --      1.0782                 2.8302                 3.6687

                      7                      8                      9
                      A                      A                      A
 Frequencies --    117.0392               138.3140               171.4889
 Red. masses --      3.9130                 3.2815                 3.3747
 Frc consts  --      0.0316                 0.0370                 0.0585
 IR Inten    --      1.9738                 1.2272                 6.0433

                     10                     11                     12
                      A                      A                      A
 Frequencies --    230.8719               238.6889               265.3515
 Red. masses --      2.9078                 2.4291                 2.3267
 Frc consts  --      0.0913                 0.0815                 0.0965
 IR Inten    --     22.1968                 1.9148                52.3447

                     13                     14                     15
                      A                      A                      A
 Frequencies --    299.8681               322.4740               339.1582
 Red. masses --      3.2741                 1.3486                 2.0991
 Frc consts  --      0.1735                 0.0826                 0.1423
 IR Inten    --      1.7844               134.5953                35.6006

                     16                     17                     18
                      A                      A                      A
 Frequencies --    356.6841               390.8236               471.0802
 Red. masses --      2.5393                 2.2434                 5.1204
 Frc consts  --      0.1903                 0.2019                 0.6695
 IR Inten    --     32.2417                18.3558                14.1650

                     19                     20                     21
                      A                      A                      A
 Frequencies --    504.7406               535.9268               554.3429
 Red. masses --      4.6638                 3.8689                 2.7568
 Frc consts  --      0.7000                 0.6547                 0.4991
 IR Inten    --      9.7502                44.9343                45.3756

                     22                     23                     24
                      A                      A                      A
 Frequencies --    579.2431               629.6376               660.8746
 Red. masses --      1.4261                 3.4125                 2.9622
 Frc consts  --      0.2819                 0.7971                 0.7623
 IR Inten    --     49.8625                43.7158                36.8682

                     25                     26                     27
                      A                      A                      A
 Frequencies --    695.2804               730.6698               777.0393
 Red. masses --      2.1010                 4.5243                 2.8284
 Frc consts  --      0.5984                 1.4231                 1.0062
 IR Inten    --     40.7198                51.5057                57.0188

                     28                     29                     30
                      A                      A                      A
 Frequencies --    834.6226               871.3607               885.0196
 Red. masses --      2.4990                 2.7336                 2.7578
 Frc consts  --      1.0256                 1.2229                 1.2727
 IR Inten    --      8.4170                 9.9240                36.4326

                     31                     32                     33
                      A                      A                      A
 Frequencies --    922.2225              1012.1557              1030.6331
 Red. masses --      2.0318                 1.1864                 3.5631
 Frc consts  --      1.0181                 0.7161                 2.2299
 IR Inten    --      0.7271                 7.5788               120.7892

                     34                     35                     36
                      A                      A                      A
 Frequencies --   1033.5638              1051.7551              1060.9659
 Red. masses --      1.7843                 2.1253                 3.1146
 Frc consts  --      1.1230                 1.3852                 2.0657
 IR Inten    --    104.6926                74.0618                59.7864

                     37                     38                     39
                      A                      A                      A
 Frequencies --   1082.9106              1109.3788              1139.4630
 Red. masses --      1.1076                 2.7738                 2.8019
 Frc consts  --      0.7653                 2.0113                 2.1434
 IR Inten    --     57.7566                62.6431                50.1836

                     40                     41                     42
                      A                      A                      A
 Frequencies --   1188.5453              1236.4802              1262.6466
 Red. masses --      3.2136                 1.3662                 1.3426
 Frc consts  --      2.6747                 1.2307                 1.2611
 IR Inten    --      2.2339               201.8607                72.4636

                     43                     44                     45
                      A                      A                      A
 Frequencies --   1276.1144              1327.6149              1341.6487
 Red. masses --      1.3605                 1.3856                 1.7033
 Frc consts  --      1.3054                 1.4389                 1.8065
 IR Inten    --     75.9819                 9.9318               128.1041

                     46                     47                     48
                      A                      A                      A
 Frequencies --   1354.3155              1363.5664              1381.3110
 Red. masses --      1.7589                 1.8008                 1.5076
 Frc consts  --      1.9008                 1.9727                 1.6949
 IR Inten    --    277.3021                16.8471                17.6907

                     49                     50                     51
                      A                      A                      A
 Frequencies --   1399.2915              1408.3227              1464.9553
 Red. masses --      1.3324                 1.2890                 1.2696
 Frc consts  --      1.5370                 1.5063                 1.6054
 IR Inten    --     56.6173                19.9703                38.0074

                     52                     53                     54
                      A                      A                      A
 Frequencies --   1467.8059              1485.9621              1489.4369
 Red. masses --      1.2389                 1.3671                 1.6629
 Frc consts  --      1.5726                 1.7785                 2.1735
 IR Inten    --     47.5213                25.6833                68.9980

                     55                     56                     57
                      A                      A                      A
 Frequencies --   1531.4932              1532.6306              1668.7338
 Red. masses --      1.1095                 1.1081                 6.5086
 Frc consts  --      1.5333                 1.5336                10.6786
 IR Inten    --     23.4746                 2.5832                53.2312

                     58                     59                     60
                      A                      A                      A
 Frequencies --   1707.8701              1767.1544              1778.9952
 Red. masses --      5.1678                 7.3587                 8.0340
 Frc consts  --      8.8811                13.5395                14.9807
 IR Inten    --      0.3917               327.3632               342.6241

                     61                     62                     63
                      A                      A                      A
 Frequencies --   3049.5810              3050.6070              3147.0728
 Red. masses --      1.0696                 1.0731                 1.0977
 Frc consts  --      5.8609                 5.8840                 6.4054
 IR Inten    --     80.8597                57.6800                14.2370

                     64                     65                     66
                      A                      A                      A
 Frequencies --   3167.3231              3186.0854              3187.6748
 Red. masses --      1.0905                 1.0949                 1.0935
 Frc consts  --      6.4458                 6.5487                 6.5464
 IR Inten    --     16.6459                11.5286                17.2840

                     67                     68                     69
                      A                      A                      A
 Frequencies --   3194.6987              3203.9846              3543.8609
 Red. masses --      1.0859                 1.0891                 1.0749
 Frc consts  --      6.5301                 6.5874                 7.9541
 IR Inten    --      0.5408                 1.8593                12.8503

                     70                     71                     72
                      A                      A                      A
 Frequencies --   3591.0617              3734.1391              3735.8235
 Red. masses --      1.0763                 1.0661                 1.0659
 Frc consts  --      8.1777                 8.7588                 8.7651
 IR Inten    --     30.4464                18.4438                23.2400

 - Thermochemistry -
 -------------------
 Temperature   298.150 Kelvin.  Pressure   1.00000 Atm.
 Atom     1 has atomic number  6 and mass  12.00000

 Molecular mass:   200.07971 amu.
 Principal axes and moments of inertia in atomic units:
                           1         2         3
     Eigenvalues --  1572.201727070.197807958.50760
           X            0.99979   0.02072   0.00037
           Y           -0.02073   0.99963   0.01757
           Z           -0.00000  -0.01757   0.99985
 This molecule is an asymmetric top.
 Rotational symmetry number  1.
 Warning -- assumption of classical behavior for rotation
           may cause significant error
 Rotational temperatures (Kelvin)      0.05509     0.01225     0.01088
 Rotational constants (GHZ):           1.14791     0.25526     0.22677
 Zero-point vibrational energy     548229.2 (Joules/Mol)
                                  131.02993 (Kcal/Mol)
 Warning -- explicit consideration of  22 degrees of freedom as
           vibrations may cause significant error
 Vibrational temperatures:     39.53    56.49    78.65   112.01   130.90
          (Kelvin)            138.23   168.39   199.00   246.73   332.17
                              343.42   381.78   431.44   463.97   487.97
                              513.19   562.31   677.78   726.21   771.08
                              797.58   833.40   905.91   950.85  1000.35
                             1051.27  1117.99  1200.84  1253.69  1273.35
                             1326.87  1456.27  1482.85  1487.07  1513.24
                             1526.49  1558.07  1596.15  1639.43  1710.05
                             1779.02  1816.67  1836.04  1910.14  1930.33
                             1948.56  1961.87  1987.40  2013.27  2026.26
                             2107.74  2111.85  2137.97  2142.97  2203.48
                             2205.11  2400.94  2457.24  2542.54  2559.58
                             4387.67  4389.14  4527.94  4557.07  4584.07
                             4586.35  4596.46  4609.82  5098.83  5166.74
                             5372.59  5375.02

 Zero-point correction=                           0.208809 (Hartree/Particle)
 Thermal correction to Energy=                    0.224015
 Thermal correction to Enthalpy=                  0.224959
 Thermal correction to Gibbs Free Energy=         0.164343
 Sum of electronic and zero-point Energies=           -722.265302
 Sum of electronic and thermal Energies=              -722.250097
 Sum of electronic and thermal Enthalpies=            -722.249153
 Sum of electronic and thermal Free Energies=         -722.309768

                     E (Thermal)             CV                S
                      KCal/Mol        Cal/Mol-Kelvin    Cal/Mol-Kelvin
 Total                  140.572             53.647            127.577
 Electronic               0.000              0.000              0.000
 Translational            0.889              2.981             41.785
 Rotational               0.889              2.981             32.848
 Vibrational            138.794             47.686             52.944
 Vibration     1          0.593              1.984              6.004
 Vibration     2          0.594              1.981              5.296
 Vibration     3          0.596              1.976              4.641
 Vibration     4          0.599              1.964              3.944
 Vibration     5          0.602              1.956              3.639
 Vibration     6          0.603              1.952              3.532
 Vibration     7          0.608              1.935              3.149
 Vibration     8          0.614              1.915              2.827
 Vibration     9          0.626              1.878              2.419
 Vibration    10          0.653              1.794              1.872
 Vibration    11          0.657              1.781              1.813
 Vibration    12          0.671              1.737              1.626
 Vibration    13          0.692              1.674              1.418
 Vibration    14          0.707              1.630              1.298
 Vibration    15          0.719              1.597              1.216
 Vibration    16          0.732              1.562              1.137
 Vibration    17          0.759              1.490              0.997
 Vibration    18          0.828              1.314              0.735
 Vibration    19          0.860              1.239              0.646
 Vibration    20          0.891              1.171              0.574
 Vibration    21          0.910              1.130              0.535
 Vibration    22          0.936              1.076              0.487

                           ! Non-Optimized Parameters !
 Normal termination of Gaussian 16 at Thu Dec 10 09:25:43 2020.

 ----------------------------------------------------------------------
 # B3LYP/6-311++G(d,p) empiricaldispersion=gd3bj scf=xqc pop=npa geom=c
 heck
 ----------------------------------------------------------------------

 ---------------------------------------
 CID_154124104_JID_4192_Energie_neutraal
 ---------------------------------------
 Structure from the checkpoint file:  "JID_4192.chk"
 Charge =  0 Multiplicity = 1

 SCF Done:  E(RB3LYP) =  -722.717006016     A.U. after   16 cycles
 Normal termination of Gaussian 16 at Thu Dec 10 09:28:03 2020.

 ----------------------------------------------------------------------
 # B3LYP/6-311++G(d,p) empiricaldispersion=gd3bj scf=xqc pop=npa geom=c
 heck
 ----------------------------------------------------------------------

 -------------------------------------
 CID_154124104_JID_4192_Energie_kation
 -------------------------------------
 Structure from the checkpoint file:  "JID_4192.chk"
 Charge =  1 Multiplicity = 2

 SCF Done:  E(UB3LYP) =  -722.396077099     A.U. after   29 cycles
 Normal termination of Gaussian 16 at Thu Dec 10 09:33:28 2020.
 Gaussian 16:  ES64L-G16RevA.03 25-Dec-2016

 ----------------------------------------------------------------------
 # B3LYP/6-311++G(d,p) empiricaldispersion=gd3bj scf=xqc pop=npa geom=c
 heck
 ----------------------------------------------------------------------

 ------------------------------------
 CID_154124104_JID_4192_Energie_anion
 ------------------------------------
 Structure from the checkpoint file:  "JID_4192.chk"
 Charge = -1 Multiplicity = 2

                         Standard orientation:
 ---------------------------------------------------------------------
 Center     Atomic      Atomic             Coordinates (Angstroms)
 Number     Number       Type             X           Y           Z
 ---------------------------------------------------------------------
      1          6           0       -3.510409   -1.379454    0.261024
      2          7           0       -3.599703   -0.249257   -0.647414
      3          6           0       -2.889128    0.934278   -0.468660
      4          8           0       -3.390141    2.018726   -0.734080
      5          6           0       -1.473182    0.842436   -0.027628
      6          6           0       -0.595587   -0.077300   -0.471095
      7          6           0        0.812197   -0.063847   -0.126820
      8          6           0        1.681418   -0.982117   -0.594834
      9          6           0        3.109335   -1.141948   -0.223726
     10          8           0        3.625876   -2.254337   -0.231802
     11          7           0        3.860415   -0.035627    0.141754
     12          6           0        3.571742    1.363244   -0.055101
     13          8           0        2.876252    1.976165    1.020784
     14          8           0       -3.879543   -1.088642    1.595185
     15          1           0       -2.480363   -1.724063    0.322269
     16          1           0       -4.125847   -2.180143   -0.169382
     17          1           0       -4.538289   -0.037213   -0.974878
     18          1           0       -1.139806    1.670315    0.592344
     19          1           0       -0.934318   -0.862087   -1.146086
     20          1           0        1.148983    0.717551    0.550766
     21          1           0        1.329130   -1.792084   -1.229232
     22          1           0        4.815694   -0.294797    0.357220
     23          1           0        4.527815    1.870623   -0.236350
     24          1           0        2.928515    1.499919   -0.925983
     25          1           0        3.361020    1.770860    1.836440
     26          1           0       -4.815383   -0.831740    1.602830
 ---------------------------------------------------------------------

 SCF Done:  E(UB3LYP) =  -722.748466052     A.U. after   25 cycles

 The electronic state is 2-A.
 Alpha  occ. eigenvalues --  -19.03111 -19.02742 -18.94744 -18.93995 -14.21117
 Alpha  occ. eigenvalues --  -14.20833 -10.15060 -10.14751 -10.12406 -10.12308
 Alpha  occ. eigenvalues --  -10.02157 -10.01784 -10.01021 -10.00959  -0.93955
 Alpha  occ. eigenvalues --   -0.93620  -0.89872  -0.89472  -0.78812  -0.78736
 Alpha  occ. eigenvalues --   -0.66319  -0.60942  -0.58224  -0.57922  -0.51933
 Alpha  occ. eigenvalues --   -0.47166  -0.45117  -0.42742  -0.41369  -0.40664
 Alpha  occ. eigenvalues --   -0.38375  -0.38150  -0.35467  -0.34346  -0.33552
 Alpha  occ. eigenvalues --   -0.31379  -0.30659  -0.28368  -0.27631  -0.26803
 Alpha  occ. eigenvalues --   -0.26087  -0.25403  -0.24800  -0.23350  -0.21623
 Alpha  occ. eigenvalues --   -0.20419  -0.18819  -0.18128  -0.14969  -0.14457
 Alpha  occ. eigenvalues --   -0.12323  -0.11934  -0.09605   0.02862
 Alpha virt. eigenvalues --    0.06724   0.06941   0.09446   0.09606   0.10740
 Alpha virt. eigenvalues --    0.10983   0.11908   0.13091   0.13287   0.13926
 Alpha virt. eigenvalues --    0.14845   0.15045   0.15705   0.16141   0.16702

  Beta  occ. eigenvalues --  -19.03106 -19.02733 -18.94490 -18.93733 -14.21098
  Beta  occ. eigenvalues --  -14.20817 -10.15057 -10.14744 -10.12298 -10.12198
  Beta  occ. eigenvalues --  -10.02034 -10.01605 -10.00756 -10.00628  -0.93931
  Beta  occ. eigenvalues --   -0.93590  -0.89465  -0.89068  -0.78661  -0.78592
  Beta  occ. eigenvalues --   -0.65670  -0.60285  -0.58147  -0.57859  -0.51205
  Beta  occ. eigenvalues --   -0.47003  -0.44851  -0.42460  -0.41221  -0.40520
  Beta  occ. eigenvalues --   -0.38283  -0.38063  -0.35258  -0.34234  -0.33414
  Beta  occ. eigenvalues --   -0.31058  -0.30324  -0.28078  -0.27025  -0.26426
  Beta  occ. eigenvalues --   -0.25539  -0.24985  -0.24567  -0.23047  -0.21463
  Beta  occ. eigenvalues --   -0.20351  -0.18725  -0.16506  -0.14473  -0.13789
  Beta  occ. eigenvalues --   -0.11870  -0.11497  -0.07507
  Beta virt. eigenvalues --    0.06698   0.06822   0.08746   0.09508   0.09684
  Beta virt. eigenvalues --    0.10696   0.10945   0.11885   0.13235   0.13696
  Beta virt. eigenvalues --    0.14373   0.14972   0.15318   0.15903   0.16214

 Mulliken charges and spin densities:
               1          2
     1  C   -0.303697  -0.002133
     2  N   -0.299138  -0.000831
     3  C   -0.215289   0.120644
     4  O   -0.389201   0.082714
     5  C    0.015573   0.177307
     6  C    0.082352   0.015108
     7  C    0.002427   0.130364
     8  C   -0.414064   0.230121
     9  C   -0.111372   0.134119
    10  O   -0.418151   0.088024
    11  N   -0.285293   0.001114
    12  C   -0.368958  -0.011771
    13  O   -0.233801  -0.001068
    14  O   -0.205137   0.003062
    15  H    0.187566  -0.003280
    16  H    0.096300   0.010607
    17  H    0.268397   0.006705
    18  H    0.172581  -0.006724
    19  H    0.095272  -0.002743
    20  H    0.182812  -0.015411
    21  H    0.148331  -0.009163
    22  H    0.283291   0.011836
    23  H    0.072245   0.018260
    24  H    0.193105   0.006779
    25  H    0.220032   0.016964
    26  H    0.223817  -0.000605
 Sum of Mulliken charges =  -1.00000   1.00000

 Dipole moment (field-independent basis, Debye):
    X=             -0.6288    Y=              0.0929    Z=              1.2114  Tot=              1.3681
 Quadrupole moment (field-independent basis, Debye-Ang):
   XX=           -111.2393   YY=           -115.6970   ZZ=            -92.4663
   XY=             34.2164   XZ=              2.1753   YZ=              4.6081

 Summary of Natural Population Analysis:

                                       Natural Population
                Natural  -----------------------------------------------
    Atom  No    Charge         Core      Valence    Rydberg      Total
 -----------------------------------------------------------------------
      C    1    0.07034      0.99966     1.91519    0.01481     2.92966
      N    2   -0.34393      0.99968     2.83088    0.01337     3.84393
      C    3    0.34569      0.99966     1.63180    0.02285     2.65431
      O    4   -0.29983      0.99988     3.29322    0.00673     4.29983
      C    5   -0.06985      0.99949     2.06099    0.00937     3.06985
      C    6   -0.08038      0.99953     2.07203    0.00882     3.08038
      C    7   -0.06489      0.99952     2.05628    0.00908     3.06489
      C    8   -0.09736      0.99950     2.08855    0.00931     3.09736
      C    9    0.34098      0.99965     1.63746    0.02191     2.65902
      O   10   -0.30786      0.99988     3.30140    0.00658     4.30786
      N   11   -0.34098      0.99967     2.83037    0.01094     3.84098
      C   12    0.06759      0.99965     1.91758    0.01518     2.93241
      O   13   -0.36814      0.99990     3.36137    0.00687     4.36814
      O   14   -0.36546      0.99990     3.35906    0.00650     4.36546
      H   15    0.09787      0.00000     0.40081    0.00132     0.40213
      H   16    0.06837      0.00000     0.43031    0.00132     0.43163
      H   17    0.17953      0.00000     0.31819    0.00229     0.32047
      H   18    0.09414      0.00000     0.40444    0.00143     0.40586
      H   19    0.08539      0.00000     0.41288    0.00174     0.41461
      H   20    0.10053      0.00000     0.39743    0.00204     0.39947
      H   21    0.09167      0.00000     0.40683    0.00150     0.40833
      H   22    0.18632      0.00000     0.31081    0.00287     0.31368
      H   23    0.06995      0.00000     0.42803    0.00202     0.43005
      H   24    0.09561      0.00000     0.40245    0.00194     0.40439
      H   25    0.22368      0.00000     0.27244    0.00388     0.27632
      H   26    0.22102      0.00000     0.27630    0.00268     0.27898
 =======================================================================
   * Total *    0.00000     13.99556    38.81709    0.18735    53.00000

 Normal termination of Gaussian 16 at Thu Dec 10 09:38:06 2020.
