 Gaussian 16, Revision A.03,

 -----------------------------------------------------------
 # opt freq B3LYP/6-31G(d) empiricaldispersion=gd3bj scf=xqc
 -----------------------------------------------------------

 -------------------------------
 CID_108063347_JID_9688_neutraal
 -------------------------------
 Symbolic Z-matrix:
 Charge =  0 Multiplicity = 1

 SCF Done:  E(RB3LYP) =  -1163.00236248     A.U. after   16 cycles
 SCF Done:  E(RB3LYP) =  -1163.01040859     A.U. after   13 cycles
 SCF Done:  E(RB3LYP) =  -1163.01081235     A.U. after   12 cycles
 SCF Done:  E(RB3LYP) =  -1163.01163364     A.U. after   12 cycles
 SCF Done:  E(RB3LYP) =  -1163.01149853     A.U. after   12 cycles
 SCF Done:  E(RB3LYP) =  -1163.01195238     A.U. after   12 cycles
 SCF Done:  E(RB3LYP) =  -1163.01201110     A.U. after   11 cycles
 SCF Done:  E(RB3LYP) =  -1163.01204140     A.U. after   11 cycles
 SCF Done:  E(RB3LYP) =  -1163.01206695     A.U. after   10 cycles
 SCF Done:  E(RB3LYP) =  -1163.01210922     A.U. after   11 cycles
 SCF Done:  E(RB3LYP) =  -1163.01497533     A.U. after    9 cycles
 SCF Done:  E(RB3LYP) =  -1163.01497569     A.U. after    8 cycles
 SCF Done:  E(RB3LYP) =  -1163.01497568     A.U. after    7 cycles
 SCF Done:  E(RB3LYP) =  -1163.01497570     A.U. after    6 cycles
 SCF Done:  E(RB3LYP) =  -1163.01497571     A.U. after    6 cycles
 Optimization completed.
    -- Stationary point found.
 Normal termination of Gaussian 16 at Sun Dec 13 13:10:18 2020.

 --------------------------------------------------------------------
 #N Geom=AllCheck Guess=TCheck SCRF=Check GenChk RB3LYP/6-31G(d) Freq
 --------------------------------------------------------------------

 Structure from the checkpoint file:  "JID_9688.chk"
 -------------------------------
 CID_108063347_JID_9688_neutraal
 -------------------------------
 Charge =  0 Multiplicity = 1

 SCF Done:  E(RB3LYP) =  -1163.01497571     A.U. after    1 cycles

  Exact polarizability: 199.117 -10.709 203.991  18.489   9.194 142.095
 Approx polarizability: 290.715 -38.331 390.317  38.517  24.637 235.131

                      1                      2                      3
                      A                      A                      A
 Frequencies --     18.8826                39.0062                44.2858
 Red. masses --      4.2172                 4.5693                 4.9580
 Frc consts  --      0.0009                 0.0041                 0.0057
 IR Inten    --      0.1669                 0.0200                 1.0545

                      4                      5                      6
                      A                      A                      A
 Frequencies --     77.0870               106.2072               125.2709
 Red. masses --      1.0669                 3.8969                 1.7694
 Frc consts  --      0.0037                 0.0259                 0.0164
 IR Inten    --      0.3489                 0.6157                 2.0208

                      7                      8                      9
                      A                      A                      A
 Frequencies --    146.2902               167.0169               181.0736
 Red. masses --      2.5732                 5.3862                 4.2139
 Frc consts  --      0.0324                 0.0885                 0.0814
 IR Inten    --      1.7001                 2.7185                 0.4223

                     10                     11                     12
                      A                      A                      A
 Frequencies --    202.1702               216.7353               243.4885
 Red. masses --      4.1207                 3.1493                 3.8397
 Frc consts  --      0.0992                 0.0872                 0.1341
 IR Inten    --      2.3694                 6.0900                 3.5643

                     13                     14                     15
                      A                      A                      A
 Frequencies --    286.1404               298.2218               338.2557
 Red. masses --      2.9274                 4.7154                 4.6200
 Frc consts  --      0.1412                 0.2471                 0.3114
 IR Inten    --      7.1534                 3.1338                 0.1437

                     16                     17                     18
                      A                      A                      A
 Frequencies --    362.9209               401.5977               409.1989
 Red. masses --      2.4148                 2.6090                 2.3105
 Frc consts  --      0.1874                 0.2479                 0.2279
 IR Inten    --     41.9965                44.2203                46.2844

                     19                     20                     21
                      A                      A                      A
 Frequencies --    424.4444               454.7001               482.7484
 Red. masses --      2.9475                 3.7472                 3.9228
 Frc consts  --      0.3129                 0.4565                 0.5386
 IR Inten    --      6.6526                 0.0321                 1.2049

                     22                     23                     24
                      A                      A                      A
 Frequencies --    512.1799               525.4448               540.2834
 Red. masses --      6.0688                 7.6214                 6.0864
 Frc consts  --      0.9380                 1.2398                 1.0468
 IR Inten    --      2.7010                 3.3165                 2.9662

                     25                     26                     27
                      A                      A                      A
 Frequencies --    557.4644               593.5923               617.7327
 Red. masses --      7.4439                 4.4559                 4.3741
 Frc consts  --      1.3630                 0.9250                 0.9834
 IR Inten    --      3.5074                 5.1531                17.5862

                     28                     29                     30
                      A                      A                      A
 Frequencies --    643.4421               665.8905               668.4188
 Red. masses --      5.3083                 5.0176                 3.9558
 Frc consts  --      1.2949                 1.3108                 1.0413
 IR Inten    --      1.4836                10.2562                 1.8370

                     31                     32                     33
                      A                      A                      A
 Frequencies --    672.2032               735.1646               763.4692
 Red. masses --      6.6081                 4.6915                 1.3747
 Frc consts  --      1.7592                 1.4939                 0.4721
 IR Inten    --      9.4410                14.0780                20.7779

                     34                     35                     36
                      A                      A                      A
 Frequencies --    796.6506               815.2179               828.4281
 Red. masses --      3.5755                 4.5382                 3.8979
 Frc consts  --      1.3370                 1.7770                 1.5761
 IR Inten    --      5.0956                18.3220                30.6963

                     37                     38                     39
                      A                      A                      A
 Frequencies --    877.3447               909.8954               924.2246
 Red. masses --      1.5153                 4.6303                 1.5966
 Frc consts  --      0.6872                 2.2586                 0.8035
 IR Inten    --      4.4151                22.1872                 9.8855

                     40                     41                     42
                      A                      A                      A
 Frequencies --    948.0628               955.9173               972.7946
 Red. masses --      4.4813                 1.3680                 1.4701
 Frc consts  --      2.3731                 0.7365                 0.8197
 IR Inten    --      9.1297                 2.0214                 0.6952

                     43                     44                     45
                      A                      A                      A
 Frequencies --    990.6288               995.3509              1049.3947
 Red. masses --      2.1124                 1.2917                 2.4048
 Frc consts  --      1.2214                 0.7540                 1.5603
 IR Inten    --     16.2842                 0.1794                15.2409

                     46                     47                     48
                      A                      A                      A
 Frequencies --   1055.7499              1063.7269              1064.1861
 Red. masses --      2.6256                 1.5696                 2.4599
 Frc consts  --      1.7242                 1.0464                 1.6413
 IR Inten    --      4.6693                 2.4175                 0.6386

                     49                     50                     51
                      A                      A                      A
 Frequencies --   1080.6256              1092.6318              1162.1345
 Red. masses --      1.4863                 4.5133                 2.8609
 Frc consts  --      1.0226                 3.1746                 2.2765
 IR Inten    --      0.8473                55.4822                 5.8323

                     52                     53                     54
                      A                      A                      A
 Frequencies --   1171.4049              1181.5174              1202.6747
 Red. masses --      3.6244                 1.5423                 1.3449
 Frc consts  --      2.9302                 1.2685                 1.1461
 IR Inten    --      3.0161                 8.9916                 4.3135

                     55                     56                     57
                      A                      A                      A
 Frequencies --   1207.9563              1253.8054              1281.7681
 Red. masses --      3.0445                 1.4359                 1.6920
 Frc consts  --      2.6174                 1.3299                 1.6379
 IR Inten    --     47.0441                31.9050                23.4625

                     58                     59                     60
                      A                      A                      A
 Frequencies --   1290.7761              1301.6362              1322.6758
 Red. masses --      1.5261                 1.7230                 4.4801
 Frc consts  --      1.4981                 1.7200                 4.6179
 IR Inten    --      7.1270                 4.5825                11.8150

                     61                     62                     63
                      A                      A                      A
 Frequencies --   1362.5139              1390.7221              1419.5636
 Red. masses --      1.7351                 2.5265                 6.8605
 Frc consts  --      1.8978                 2.8791                 8.1454
 IR Inten    --     55.3550                 6.2019                 7.6409

                     64                     65                     66
                      A                      A                      A
 Frequencies --   1431.8138              1433.6757              1436.2667
 Red. masses --      1.3448                 1.3166                 1.3556
 Frc consts  --      1.6244                 1.5944                 1.6476
 IR Inten    --      9.3937                 5.1231                 2.0585

                     67                     68                     69
                      A                      A                      A
 Frequencies --   1445.2765              1472.5010              1505.6468
 Red. masses --      1.8283                 2.0118                 1.1647
 Frc consts  --      2.2501                 2.5701                 1.5556
 IR Inten    --      5.8467                 1.8249                13.1252

                     70                     71                     72
                      A                      A                      A
 Frequencies --   1506.1219              1507.6207              1512.6470
 Red. masses --      2.2065                 1.0440                 1.1345
 Frc consts  --      2.9490                 1.3980                 1.5295
 IR Inten    --      0.3030                 8.8642                10.2523

                     73                     74                     75
                      A                      A                      A
 Frequencies --   1531.1191              1560.6005              1580.3837
 Red. masses --      1.0463                 3.2741                 5.3234
 Frc consts  --      1.4452                 4.6981                 7.8337
 IR Inten    --      4.5323                21.2161                13.1108

                     76                     77                     78
                      A                      A                      A
 Frequencies --   1611.9780              1627.5838              1642.7360
 Red. masses --      6.0243                 6.9684                 5.1639
 Frc consts  --      9.2230                10.8761                 8.2104
 IR Inten    --     37.6399                10.1892                14.7509

                     79                     80                     81
                      A                      A                      A
 Frequencies --   1683.3920              2991.0130              3053.7093
 Red. masses --      5.8601                 1.0835                 1.0436
 Frc consts  --      9.7842                 5.7109                 5.7340
 IR Inten    --     13.7165                29.7769                27.3142

                     82                     83                     84
                      A                      A                      A
 Frequencies --   3056.6499              3104.3764              3111.7698
 Red. masses --      1.0371                 1.0981                 1.1016
 Frc consts  --      5.7088                 6.2348                 6.2845
 IR Inten    --     18.2347                12.4335                10.3116

                     85                     86                     87
                      A                      A                      A
 Frequencies --   3148.3861              3159.0451              3168.1943
 Red. masses --      1.0895                 1.1010                 1.0907
 Frc consts  --      6.3627                 6.4735                 6.4506
 IR Inten    --     30.5858                 4.6128                26.2638

                     88                     89                     90
                      A                      A                      A
 Frequencies --   3184.5683              3187.5633              3194.7091
 Red. masses --      1.0865                 1.0966                 1.0905
 Frc consts  --      6.4918                 6.5647                 6.5574
 IR Inten    --      1.8637                 5.7925                17.8309

                     91                     92                     93
                      A                      A                      A
 Frequencies --   3210.7866              3277.2467              3734.5936
 Red. masses --      1.0962                 1.0906                 1.0662
 Frc consts  --      6.6582                 6.9014                 8.7616
 IR Inten    --     27.9332                 1.2213                17.5009

 - Thermochemistry -
 -------------------
 Temperature   298.150 Kelvin.  Pressure   1.00000 Atm.
 Atom     1 has atomic number  6 and mass  12.00000

 Molecular mass:   270.08268 amu.
 Principal axes and moments of inertia in atomic units:
                           1         2         3
     Eigenvalues --  3342.730957067.035817654.66309
           X            1.00000   0.00076   0.00148
           Y           -0.00072   0.99961  -0.02776
           Z           -0.00150   0.02776   0.99961
 This molecule is an asymmetric top.
 Rotational symmetry number  1.
 Warning -- assumption of classical behavior for rotation
           may cause significant error
 Rotational temperatures (Kelvin)      0.02591     0.01226     0.01132
 Rotational constants (GHZ):           0.53990     0.25537     0.23577
 Zero-point vibrational energy     685238.8 (Joules/Mol)
                                  163.77601 (Kcal/Mol)
 Warning -- explicit consideration of  27 degrees of freedom as
           vibrations may cause significant error
 Vibrational temperatures:     27.17    56.12    63.72   110.91   152.81
          (Kelvin)            180.24   210.48   240.30   260.52   290.88
                              311.83   350.33   411.69   429.07   486.67
                              522.16   577.81   588.75   610.68   654.21
                              694.57   736.91   756.00   777.35   802.07
                              854.05   888.78   925.77   958.07   961.71
                              967.15  1057.74  1098.46  1146.20  1172.92
                             1191.92  1262.30  1309.14  1329.75  1364.05
                             1375.35  1399.63  1425.29  1432.09  1509.84
                             1518.99  1530.47  1531.13  1554.78  1572.05
                             1672.05  1685.39  1699.94  1730.38  1737.98
                             1803.95  1844.18  1857.14  1872.76  1903.04
                             1960.35  2000.94  2042.44  2060.06  2062.74
                             2066.47  2079.43  2118.60  2166.29  2166.97
                             2169.13  2176.36  2202.94  2245.36  2273.82
                             2319.28  2341.73  2363.53  2422.03  4303.40
                             4393.61  4397.84  4466.51  4477.14  4529.83
                             4545.16  4558.32  4581.88  4586.19  4596.47
                             4619.61  4715.23  5373.25

 Zero-point correction=                           0.260994 (Hartree/Particle)
 Thermal correction to Energy=                    0.277862
 Thermal correction to Enthalpy=                  0.278807
 Thermal correction to Gibbs Free Energy=         0.215031
 Sum of electronic and zero-point Energies=          -1162.753982
 Sum of electronic and thermal Energies=             -1162.737113
 Sum of electronic and thermal Enthalpies=           -1162.736169
 Sum of electronic and thermal Free Energies=        -1162.799944

                     E (Thermal)             CV                S
                      KCal/Mol        Cal/Mol-Kelvin    Cal/Mol-Kelvin
 Total                  174.361             64.708            134.227
 Electronic               0.000              0.000              0.000
 Translational            0.889              2.981             42.680
 Rotational               0.889              2.981             33.558
 Vibrational            172.584             58.746             57.989
 Vibration     1          0.593              1.986              6.748
 Vibration     2          0.594              1.981              5.309
 Vibration     3          0.595              1.980              5.058
 Vibration     4          0.599              1.964              3.964
 Vibration     5          0.605              1.944              3.337
 Vibration     6          0.610              1.928              3.017
 Vibration     7          0.617              1.907              2.720
 Vibration     8          0.624              1.883              2.469
 Vibration     9          0.630              1.865              2.317
 Vibration    10          0.639              1.837              2.113
 Vibration    11          0.646              1.816              1.986
 Vibration    12          0.659              1.774              1.777
 Vibration    13          0.684              1.699              1.497
 Vibration    14          0.691              1.677              1.427
 Vibration    15          0.719              1.599              1.220
 Vibration    16          0.737              1.549              1.110
 Vibration    17          0.767              1.467              0.957
 Vibration    18          0.774              1.450              0.929
 Vibration    19          0.786              1.417              0.877
 Vibration    20          0.813              1.350              0.782
 Vibration    21          0.839              1.288              0.703
 Vibration    22          0.867              1.223              0.628
 Vibration    23          0.880              1.194              0.597
 Vibration    24          0.895              1.161              0.565
 Vibration    25          0.913              1.123              0.529
 Vibration    26          0.951              1.045              0.461
 Vibration    27          0.978              0.994              0.420

 Optimization completed on the basis of negligible forces.
    -- Stationary point found.
 Normal termination of Gaussian 16 at Sun Dec 13 13:28:53 2020.

 ----------------------------------------------------------------------
 # B3LYP/6-311++G(d,p) empiricaldispersion=gd3bj scf=xqc pop=npa geom=c
 heck
 ----------------------------------------------------------------------

 ---------------------------------------
 CID_108063347_JID_9688_Energie_neutraal
 ---------------------------------------
 Structure from the checkpoint file:  "JID_9688.chk"
 Charge =  0 Multiplicity = 1

 SCF Done:  E(RB3LYP) =  -1163.24420990     A.U. after   17 cycles
 Normal termination of Gaussian 16 at Sun Dec 13 13:37:56 2020.

 ----------------------------------------------------------------------
 # B3LYP/6-311++G(d,p) empiricaldispersion=gd3bj scf=xqc pop=npa geom=c
 heck
 ----------------------------------------------------------------------

 -------------------------------------
 CID_108063347_JID_9688_Energie_kation
 -------------------------------------
 Structure from the checkpoint file:  "JID_9688.chk"
 Charge =  1 Multiplicity = 2

 SCF Done:  E(UB3LYP) =  -1162.95104721     A.U. after   28 cycles
 Normal termination of Gaussian 16 at Sun Dec 13 13:59:00 2020.
 Gaussian 16:  ES64L-G16RevA.03 25-Dec-2016

 ----------------------------------------------------------------------
 # B3LYP/6-311++G(d,p) empiricaldispersion=gd3bj scf=xqc pop=npa geom=c
 heck
 ----------------------------------------------------------------------

 ------------------------------------
 CID_108063347_JID_9688_Energie_anion
 ------------------------------------
 Structure from the checkpoint file:  "JID_9688.chk"
 Charge = -1 Multiplicity = 2

                         Standard orientation:
 ---------------------------------------------------------------------
 Center     Atomic      Atomic             Coordinates (Angstroms)
 Number     Number       Type             X           Y           Z
 ---------------------------------------------------------------------
      1          6           0        2.207836   -2.244742    1.271183
      2          6           0        2.242397   -0.942086    0.521507
      3          6           0        1.447978    0.166032    0.678290
      4         16           0        1.920947    1.394300   -0.480783
      5          6           0        3.169666    0.309629   -1.080378
      6          7           0        3.205985   -0.836924   -0.473339
      7          6           0        4.079669    0.702503   -2.201718
      8          6           0        0.314450    0.508686    1.630785
      9          6           0       -0.981341    0.794437    0.897547
     10          6           0       -1.483933    2.077677    0.926466
     11          7           0       -2.599781    2.496683    0.272883
     12          6           0       -3.243465    1.599181   -0.440085
     13          6           0       -2.851590    0.238550   -0.559381
     14          6           0       -3.588016   -0.683307   -1.344162
     15          6           0       -3.180390   -1.993410   -1.440286
     16          6           0       -2.024750   -2.424757   -0.746317
     17          6           0       -1.291725   -1.551767    0.026590
     18          6           0       -1.680089   -0.191228    0.136098
     19          8           0        0.076736   -0.502728    2.608673
     20          1           0        2.171536   -3.074480    0.556767
     21          1           0        3.126517   -2.373329    1.856974
     22          1           0        1.348604   -2.315962    1.936156
     23          1           0        4.765953   -0.124551   -2.396453
     24          1           0        3.516850    0.918554   -3.116930
     25          1           0        4.662775    1.596053   -1.951646
     26          1           0        0.590550    1.443107    2.143392
     27          1           0       -0.969927    2.844946    1.503043
     28          1           0       -4.136115    1.937286   -0.967931
     29          1           0       -4.476479   -0.335638   -1.865103
     30          1           0       -3.742734   -2.700757   -2.042665
     31          1           0       -1.714600   -3.463214   -0.821578
     32          1           0       -0.423452   -1.900455    0.566483
     33          1           0        0.867871   -0.549251    3.168997
 ---------------------------------------------------------------------

 SCF Done:  E(UB3LYP) =  -1163.25405887     A.U. after   33 cycles
 SCF Done:  E(UB3LYP) =  -1163.25405887     a.u. after    1 cycles

 The electronic state is 2-A.
 Alpha  occ. eigenvalues --  -88.76846 -19.01757 -14.20543 -14.15191 -10.13404
 Alpha  occ. eigenvalues --  -10.12589 -10.09870 -10.09464 -10.09376 -10.06531
 Alpha  occ. eigenvalues --  -10.05319 -10.04649 -10.04038 -10.03954 -10.03639
 Alpha  occ. eigenvalues --  -10.03193 -10.03064 -10.02796 -10.02245  -7.85505
 Alpha  occ. eigenvalues --   -5.81785  -5.81430  -5.81099  -0.92204  -0.85746
 Alpha  occ. eigenvalues --   -0.79049  -0.71571  -0.70201  -0.68986  -0.65696
 Alpha  occ. eigenvalues --   -0.63359  -0.62076  -0.60475  -0.57665  -0.54153
 Alpha  occ. eigenvalues --   -0.49639  -0.48680  -0.47091  -0.45045  -0.43780
 Alpha  occ. eigenvalues --   -0.40352  -0.38446  -0.37857  -0.36305  -0.35311
 Alpha  occ. eigenvalues --   -0.35015  -0.33683  -0.32642  -0.32314  -0.31378
 Alpha  occ. eigenvalues --   -0.30701  -0.29372  -0.28657  -0.28273  -0.27878
 Alpha  occ. eigenvalues --   -0.27041  -0.26332  -0.25500  -0.25044  -0.23914
 Alpha  occ. eigenvalues --   -0.22178  -0.21245  -0.19953  -0.18340  -0.17431
 Alpha  occ. eigenvalues --   -0.16677  -0.15206  -0.12662  -0.12315  -0.11053
 Alpha  occ. eigenvalues --   -0.09292   0.04227
 Alpha virt. eigenvalues --    0.06679   0.06974   0.07141   0.08865   0.09178
 Alpha virt. eigenvalues --    0.10080   0.10332   0.10764   0.10832   0.11275
 Alpha virt. eigenvalues --    0.11504   0.12101   0.12301   0.12851   0.13721

  Beta  occ. eigenvalues --  -88.76838 -19.01705 -14.20552 -14.15092 -10.13352
  Beta  occ. eigenvalues --  -10.12598 -10.09842 -10.09424 -10.09380 -10.06525
  Beta  occ. eigenvalues --  -10.05266 -10.04669 -10.04053 -10.03653 -10.03632
  Beta  occ. eigenvalues --  -10.03056 -10.02811 -10.02525 -10.02071  -7.85498
  Beta  occ. eigenvalues --   -5.81781  -5.81426  -5.81072  -0.92066  -0.85707
  Beta  occ. eigenvalues --   -0.78651  -0.71294  -0.70070  -0.68930  -0.65361
  Beta  occ. eigenvalues --   -0.63342  -0.61758  -0.60191  -0.57449  -0.53982
  Beta  occ. eigenvalues --   -0.49087  -0.48574  -0.46933  -0.44833  -0.43643
  Beta  occ. eigenvalues --   -0.40247  -0.38301  -0.37547  -0.36207  -0.35237
  Beta  occ. eigenvalues --   -0.34910  -0.33568  -0.32559  -0.32272  -0.31244
  Beta  occ. eigenvalues --   -0.30611  -0.29321  -0.28514  -0.28221  -0.27735
  Beta  occ. eigenvalues --   -0.26934  -0.25550  -0.25365  -0.24880  -0.23816
  Beta  occ. eigenvalues --   -0.22014  -0.20213  -0.19841  -0.18261  -0.17230
  Beta  occ. eigenvalues --   -0.16589  -0.14133  -0.12331  -0.11616  -0.10880
  Beta  occ. eigenvalues --   -0.07728
  Beta virt. eigenvalues --    0.06689   0.07138   0.07378   0.08834   0.09113
  Beta virt. eigenvalues --    0.09726   0.10095   0.10302   0.10818   0.10835
  Beta virt. eigenvalues --    0.11369   0.11503   0.12111   0.12292   0.12809

 Mulliken charges and spin densities:
               1          2
     1  C   -0.338015  -0.520627
     2  C   -1.509733  -0.184594
     3  C    0.717619   0.538895
     4  S   -0.361541  -0.007112
     5  C   -0.171593   0.124350
     6  N    0.111325   0.012622
     7  C   -0.153175   0.004544
     8  C    0.341944  -0.038592
     9  C    0.417435   0.079509
    10  C   -0.268737   0.073945
    11  N   -0.044730   0.037172
    12  C   -0.600587   0.243463
    13  C    0.793648  -0.043246
    14  C   -0.914476   0.224339
    15  C   -0.339514  -0.017222
    16  C   -0.078202   0.154335
    17  C   -0.426517   0.072158
    18  C    0.397091   0.031064
    19  O   -0.156550  -0.032974
    20  H    0.156825   0.005213
    21  H    0.053409   0.100977
    22  H    0.129304  -0.020150
    23  H    0.150816   0.000025
    24  H    0.164133   0.005143
    25  H    0.148454   0.005160
    26  H    0.195689   0.013370
    27  H    0.118527  -0.003688
    28  H    0.120433  -0.024464
    29  H    0.085021  -0.012061
    30  H    0.105998  -0.000164
    31  H    0.130353  -0.002561
    32  H   -0.035186  -0.003827
    33  H    0.060530   0.184996
 Sum of Mulliken charges =  -1.00000   1.00000

 Dipole moment (field-independent basis, Debye):
    X=              6.5233    Y=             -0.7392    Z=             -0.9364  Tot=              6.6315
 Quadrupole moment (field-independent basis, Debye-Ang):
   XX=           -161.1062   YY=           -145.9898   ZZ=           -132.5899
   XY=             11.8825   XZ=              0.8546   YZ=             -1.4042

 Summary of Natural Population Analysis:

                                       Natural Population
                Natural  -----------------------------------------------
    Atom  No    Charge         Core      Valence    Rydberg      Total
 -----------------------------------------------------------------------
      C    1   -0.30119      0.99962     2.29490    0.00666     3.30119
      C    2    0.05494      0.99943     1.93091    0.01472     2.94506
      C    3   -0.09756      0.99941     2.08488    0.01327     3.09756
      S    4    0.19019      4.99940     2.79223    0.01819     7.80981
      C    5    0.04344      0.99964     1.94077    0.01614     2.95656
      N    6   -0.25451      0.99963     2.74348    0.01140     3.75451
      C    7   -0.30571      0.99961     2.30104    0.00506     3.30571
      C    8    0.04764      0.99944     1.93661    0.01631     2.95236
      C    9   -0.02658      0.99948     2.00708    0.02002     3.02658
      C   10    0.02650      0.99951     1.96070    0.01328     2.97350
      N   11   -0.23580      0.99971     2.72358    0.01251     3.73580
      C   12    0.11760      0.99958     1.86912    0.01370     2.88240
      C   13   -0.08201      0.99955     2.06909    0.01338     3.08201
      C   14   -0.04201      0.99954     2.03403    0.00844     3.04201
      C   15   -0.11899      0.99957     2.10936    0.01006     3.11899
      C   16   -0.07488      0.99957     2.06639    0.00892     3.07488
      C   17   -0.09106      0.99958     2.07628    0.01520     3.09106
      C   18    0.04924      0.99946     1.94054    0.01076     2.95076
      O   19   -0.36014      0.99989     3.35376    0.00649     4.36014
      H   20    0.10578      0.00000     0.39320    0.00101     0.39422
      H   21    0.10101      0.00000     0.39784    0.00115     0.39899
      H   22    0.11267      0.00000     0.38637    0.00096     0.38733
      H   23    0.11071      0.00000     0.38823    0.00106     0.38929
      H   24    0.10605      0.00000     0.39306    0.00089     0.39395
      H   25    0.10318      0.00000     0.39592    0.00090     0.39682
      H   26    0.08605      0.00000     0.41182    0.00213     0.41395
      H   27    0.07760      0.00000     0.42065    0.00175     0.42240
      H   28    0.07188      0.00000     0.42653    0.00159     0.42812
      H   29    0.08767      0.00000     0.41068    0.00164     0.41233
      H   30    0.08959      0.00000     0.40934    0.00107     0.41041
      H   31    0.08865      0.00000     0.41036    0.00099     0.41135
      H   32    0.09735      0.00000     0.40001    0.00264     0.40265
      H   33    0.22469      0.00000     0.27198    0.00334     0.27531
 =======================================================================
   * Total *    0.00201     22.99163    47.75074    0.25561    70.99799

 Normal termination of Gaussian 16 at Sun Dec 13 14:23:08 2020.
