 Gaussian 16, Revision A.03,

 -----------------------------------------------------------
 # opt freq B3LYP/6-31G(d) empiricaldispersion=gd3bj scf=xqc
 -----------------------------------------------------------

 -------------------------------
 CID_147651777_JID_6230_neutraal
 -------------------------------
 Symbolic Z-matrix:
 Charge =  0 Multiplicity = 1

 SCF Done:  E(RB3LYP) =  -728.077475494     A.U. after   15 cycles
 SCF Done:  E(RB3LYP) =  -728.077354773     A.U. after   13 cycles
 SCF Done:  E(RB3LYP) =  -728.081499765     A.U. after   13 cycles
 SCF Done:  E(RB3LYP) =  -728.082126924     A.U. after   12 cycles
 SCF Done:  E(RB3LYP) =  -728.081928359     A.U. after   13 cycles
 SCF Done:  E(RB3LYP) =  -728.082619013     A.U. after   12 cycles
 SCF Done:  E(RB3LYP) =  -728.083301271     A.U. after   12 cycles
 SCF Done:  E(RB3LYP) =  -728.084050440     A.U. after   12 cycles
 SCF Done:  E(RB3LYP) =  -728.084216077     A.U. after   14 cycles
 SCF Done:  E(RB3LYP) =  -728.085946477     A.U. after   12 cycles
 SCF Done:  E(RB3LYP) =  -728.088114067     A.U. after   10 cycles
 SCF Done:  E(RB3LYP) =  -728.088117082     A.U. after    9 cycles
 SCF Done:  E(RB3LYP) =  -728.088117271     A.U. after    8 cycles
 SCF Done:  E(RB3LYP) =  -728.088117321     A.U. after    7 cycles
 Optimization completed.
    -- Stationary point found.
 Normal termination of Gaussian 16 at Thu Dec 10 21:29:41 2020.

 --------------------------------------------------------------------
 #N Geom=AllCheck Guess=TCheck SCRF=Check GenChk RB3LYP/6-31G(d) Freq
 --------------------------------------------------------------------

 Structure from the checkpoint file:  "JID_6230.chk"
 -------------------------------
 CID_147651777_JID_6230_neutraal
 -------------------------------
 Charge =  0 Multiplicity = 1

 SCF Done:  E(RB3LYP) =  -728.088117321     A.U. after    1 cycles

  Exact polarizability: 170.101  11.188 127.495 -10.698  13.175 119.762
 Approx polarizability: 225.673  20.891 198.924 -16.072  31.409 196.432

                      1                      2                      3
                      A                      A                      A
 Frequencies --     28.1995                44.2118                52.0970
 Red. masses --      4.2527                 4.0551                 4.7557
 Frc consts  --      0.0020                 0.0047                 0.0076
 IR Inten    --      0.0914                 0.4220                 0.2582

                      4                      5                      6
                      A                      A                      A
 Frequencies --     66.8916                98.5092               109.0426
 Red. masses --      5.9076                 4.6895                 3.0535
 Frc consts  --      0.0156                 0.0268                 0.0214
 IR Inten    --      2.4143                 1.4238                 0.1909

                      7                      8                      9
                      A                      A                      A
 Frequencies --    157.6934               164.1933               187.2065
 Red. masses --      2.7958                 3.1644                 2.4749
 Frc consts  --      0.0410                 0.0503                 0.0511
 IR Inten    --      0.5074                 5.3072                 4.1389

                     10                     11                     12
                      A                      A                      A
 Frequencies --    206.4068               222.9563               260.1376
 Red. masses --      3.4713                 1.9396                 2.5958
 Frc consts  --      0.0871                 0.0568                 0.1035
 IR Inten    --     20.6420                 8.5055                 1.5563

                     13                     14                     15
                      A                      A                      A
 Frequencies --    271.8641               294.1477               334.8078
 Red. masses --      2.3686                 2.4110                 1.7518
 Frc consts  --      0.1031                 0.1229                 0.1157
 IR Inten    --      4.6288                 5.2650                45.3758

                     16                     17                     18
                      A                      A                      A
 Frequencies --    353.3616               375.2704               418.5571
 Red. masses --      1.8155                 3.0718                 3.0000
 Frc consts  --      0.1336                 0.2549                 0.3097
 IR Inten    --     29.1990                 1.5100                 0.2981

                     19                     20                     21
                      A                      A                      A
 Frequencies --    446.3553               478.2394               490.1233
 Red. masses --      3.1775                 3.3703                 4.5902
 Frc consts  --      0.3730                 0.4542                 0.6497
 IR Inten    --      3.5259                 9.3606                 5.6239

                     22                     23                     24
                      A                      A                      A
 Frequencies --    574.7085               607.8266               624.1416
 Red. masses --      3.6989                 1.9445                 4.7288
 Frc consts  --      0.7198                 0.4233                 1.0853
 IR Inten    --     13.9908                44.5832                13.8537

                     25                     26                     27
                      A                      A                      A
 Frequencies --    636.0588               688.0263               714.3040
 Red. masses --      6.3687                 2.2403                 2.3526
 Frc consts  --      1.5181                 0.6248                 0.7072
 IR Inten    --      0.1267                53.6721                15.4255

                     28                     29                     30
                      A                      A                      A
 Frequencies --    744.6561               755.9115               770.7491
 Red. masses --      1.7543                 1.5869                 3.4799
 Frc consts  --      0.5732                 0.5342                 1.2180
 IR Inten    --     14.1091                25.7753                12.7426

                     31                     32                     33
                      A                      A                      A
 Frequencies --    826.0416               842.8754               866.4813
 Red. masses --      3.9450                 1.6476                 1.2570
 Frc consts  --      1.5860                 0.6896                 0.5560
 IR Inten    --      5.9675                 7.1396                 0.2103

                     34                     35                     36
                      A                      A                      A
 Frequencies --    868.0497               918.4607               931.3254
 Red. masses --      2.3915                 1.6047                 1.6494
 Frc consts  --      1.0617                 0.7976                 0.8429
 IR Inten    --      1.9383                 0.1173                18.2859

                     37                     38                     39
                      A                      A                      A
 Frequencies --    946.5810               974.2201               992.0192
 Red. masses --      1.6496                 1.3441                 2.1153
 Frc consts  --      0.8708                 0.7516                 1.2265
 IR Inten    --    147.9424                 0.0337                 4.0173

                     40                     41                     42
                      A                      A                      A
 Frequencies --    997.8766              1016.2332              1022.9065
 Red. masses --      1.2688                 2.2861                 4.8235
 Frc consts  --      0.7444                 1.3910                 2.9736
 IR Inten    --      1.0296                 5.4381                 0.4098

                     43                     44                     45
                      A                      A                      A
 Frequencies --   1050.9887              1059.5836              1081.4057
 Red. masses --      2.3161                 2.1838                 1.9167
 Frc consts  --      1.5073                 1.4445                 1.3206
 IR Inten    --      1.3310                 4.9197                 8.6984

                     46                     47                     48
                      A                      A                      A
 Frequencies --   1102.3523              1118.4972              1149.8313
 Red. masses --      2.4201                 1.5607                 2.6667
 Frc consts  --      1.7327                 1.1504                 2.0772
 IR Inten    --    100.2784                 7.1670                80.0675

                     49                     50                     51
                      A                      A                      A
 Frequencies --   1173.9100              1191.8456              1193.6247
 Red. masses --      2.7273                 2.3261                 1.1035
 Frc consts  --      2.2144                 1.9468                 0.9263
 IR Inten    --     20.0085                24.9179                 0.5368

                     52                     53                     54
                      A                      A                      A
 Frequencies --   1210.3127              1234.1848              1285.1951
 Red. masses --      1.1428                 2.9683                 1.2912
 Frc consts  --      0.9864                 2.6639                 1.2566
 IR Inten    --      1.1185                17.4399                 6.6663

                     55                     56                     57
                      A                      A                      A
 Frequencies --   1290.1721              1308.1813              1344.5833
 Red. masses --      1.2594                 1.3917                 1.4199
 Frc consts  --      1.2351                 1.4032                 1.5125
 IR Inten    --      2.3345                11.9509                 3.7687

                     58                     59                     60
                      A                      A                      A
 Frequencies --   1346.7750              1357.8375              1367.1388
 Red. masses --      1.1820                 1.5640                 2.0735
 Frc consts  --      1.2632                 1.6989                 2.2834
 IR Inten    --      1.4821                16.2524                 1.1557

                     61                     62                     63
                      A                      A                      A
 Frequencies --   1377.1685              1394.2951              1409.4001
 Red. masses --      1.2583                 1.4924                 1.9476
 Frc consts  --      1.4061                 1.7095                 2.2794
 IR Inten    --      0.4339                54.1074                39.8073

                     64                     65                     66
                      A                      A                      A
 Frequencies --   1412.0412              1437.6123              1447.7686
 Red. masses --      1.3897                 1.2965                 1.2491
 Frc consts  --      1.6326                 1.5787                 1.5426
 IR Inten    --     20.7613                10.3933                11.6869

                     67                     68                     69
                      A                      A                      A
 Frequencies --   1489.0652              1503.1146              1520.2040
 Red. masses --      1.7667                 2.1262                 1.0936
 Frc consts  --      2.3080                 2.8303                 1.4890
 IR Inten    --     19.9695                 7.9850                 4.2026

                     70                     71                     72
                      A                      A                      A
 Frequencies --   1524.2527              1535.2219              1540.9646
 Red. masses --      1.0690                 1.0864                 1.0584
 Frc consts  --      1.4633                 1.5086                 1.4807
 IR Inten    --      1.9570                 1.9023                 6.9927

                     73                     74                     75
                      A                      A                      A
 Frequencies --   1547.6702              1551.1174              1648.3904
 Red. masses --      1.9213                 1.1273                 5.5942
 Frc consts  --      2.7115                 1.5980                 8.9559
 IR Inten    --      5.9097                 2.3203                 0.6491

                     76                     77                     78
                      A                      A                      A
 Frequencies --   1668.2443              1705.0352              1779.4332
 Red. masses --      5.5578                 1.1422                 6.5914
 Frc consts  --      9.1132                 1.9564                12.2968
 IR Inten    --      0.9082                41.1627               249.7682

                     79                     80                     81
                      A                      A                      A
 Frequencies --   3041.5592              3045.0970              3046.0891
 Red. masses --      1.0794                 1.0456                 1.0649
 Frc consts  --      5.8833                 5.7126                 5.8214
 IR Inten    --      3.6463                22.9820                29.3352

                     82                     83                     84
                      A                      A                      A
 Frequencies --   3048.5660              3061.4424              3089.9428
 Red. masses --      1.0606                 1.0634                 1.1031
 Frc consts  --      5.8074                 5.8719                 6.2055
 IR Inten    --     52.4540                22.5149                24.6177

                     85                     86                     87
                      A                      A                      A
 Frequencies --   3104.7180              3108.2623              3120.2771
 Red. masses --      1.1000                 1.1055                 1.1005
 Frc consts  --      6.2473                 6.2927                 6.3130
 IR Inten    --     14.5358                32.5199                31.6641

                     88                     89                     90
                      A                      A                      A
 Frequencies --   3152.9179              3175.4533              3185.0591
 Red. masses --      1.0902                 1.0866                 1.0866
 Frc consts  --      6.3851                 6.4556                 6.4945
 IR Inten    --     19.4072                 8.9183                 0.4259

                     91                     92                     93
                      A                      A                      A
 Frequencies --   3195.1217              3205.2519              3212.3639
 Red. masses --      1.0907                 1.0934                 1.0974
 Frc consts  --      6.5606                 6.6187                 6.6722
 IR Inten    --     21.3385                27.8845                16.2418

                     94                     95                     96
                      A                      A                      A
 Frequencies --   3463.4089              3496.7803              3565.4126
 Red. masses --      1.0464                 1.0755                 1.0979
 Frc consts  --      7.3953                 7.7481                 8.2230
 IR Inten    --      3.7489                 5.5528                 0.9832

 - Thermochemistry -
 -------------------
 Temperature   298.150 Kelvin.  Pressure   1.00000 Atm.
 Atom     1 has atomic number  6 and mass  12.00000

 Molecular mass:   222.13683 amu.
 Principal axes and moments of inertia in atomic units:
                           1         2         3
     Eigenvalues --  1713.474116568.268636925.82009
           X            0.99994  -0.00203  -0.01091
           Y            0.00192   0.99994  -0.01085
           Z            0.01093   0.01082   0.99988
 This molecule is an asymmetric top.
 Rotational symmetry number  1.
 Warning -- assumption of classical behavior for rotation
           may cause significant error
 Rotational temperatures (Kelvin)      0.05055     0.01319     0.01251
 Rotational constants (GHZ):           1.05326     0.27477     0.26058
 Zero-point vibrational energy     771919.5 (Joules/Mol)
                                  184.49320 (Kcal/Mol)
 Warning -- explicit consideration of  23 degrees of freedom as
           vibrations may cause significant error
 Vibrational temperatures:     40.57    63.61    74.96    96.24   141.73
          (Kelvin)            156.89   226.89   236.24   269.35   296.97
                              320.78   374.28   391.15   423.21   481.71
                              508.41   539.93   602.21   642.21   688.08
                              705.18   826.88   874.53   898.00   915.15
                              989.92  1027.72  1071.39  1087.59  1108.94
                             1188.49  1212.71  1246.67  1248.93  1321.46
                             1339.97  1361.92  1401.69  1427.29  1435.72
                             1462.13  1471.73  1512.14  1524.50  1555.90
                             1586.04  1609.27  1654.35  1688.99  1714.80
                             1717.36  1741.37  1775.72  1849.11  1856.27
                             1882.18  1934.56  1937.71  1953.63  1967.01
                             1981.44  2006.08  2027.81  2031.61  2068.40
                             2083.02  2142.43  2162.65  2187.23  2193.06
                             2208.84  2217.10  2226.75  2231.71  2371.67
                             2400.23  2453.17  2560.21  4376.13  4381.22
                             4382.64  4386.21  4404.73  4445.74  4467.00
                             4472.10  4489.38  4536.35  4568.77  4582.59
                             4597.07  4611.64  4621.88  4983.07  5031.09
                             5129.83

 Zero-point correction=                           0.294009 (Hartree/Particle)
 Thermal correction to Energy=                    0.310121
 Thermal correction to Enthalpy=                  0.311065
 Thermal correction to Gibbs Free Energy=         0.249423
 Sum of electronic and zero-point Energies=           -727.794109
 Sum of electronic and thermal Energies=              -727.777997
 Sum of electronic and thermal Enthalpies=            -727.777053
 Sum of electronic and thermal Free Energies=         -727.838694

                     E (Thermal)             CV                S
                      KCal/Mol        Cal/Mol-Kelvin    Cal/Mol-Kelvin
 Total                  194.604             60.666            129.736
 Electronic               0.000              0.000              0.000
 Translational            0.889              2.981             42.097
 Rotational               0.889              2.981             32.722
 Vibrational            192.826             54.704             54.917
 Vibration     1          0.593              1.984              5.952
 Vibration     2          0.595              1.980              5.061
 Vibration     3          0.596              1.977              4.736
 Vibration     4          0.598              1.970              4.243
 Vibration     5          0.604              1.950              3.484
 Vibration     6          0.606              1.942              3.286
 Vibration     7          0.621              1.894              2.577
 Vibration     8          0.623              1.886              2.501
 Vibration     9          0.632              1.857              2.255
 Vibration    10          0.641              1.831              2.075
 Vibration    11          0.649              1.806              1.935
 Vibration    12          0.668              1.746              1.661
 Vibration    13          0.675              1.725              1.584
 Vibration    14          0.689              1.685              1.450
 Vibration    15          0.716              1.606              1.237
 Vibration    16          0.730              1.568              1.151
 Vibration    17          0.746              1.523              1.058
 Vibration    18          0.781              1.430              0.897
 Vibration    19          0.806              1.369              0.807
 Vibration    20          0.835              1.298              0.715
 Vibration    21          0.846              1.272              0.683
 Vibration    22          0.931              1.086              0.495
 Vibration    23          0.967              1.015              0.436

 Optimization completed.
    -- Stationary point found.
 Normal termination of Gaussian 16 at Thu Dec 10 21:42:36 2020.

 ----------------------------------------------------------------------
 # B3LYP/6-311++G(d,p) empiricaldispersion=gd3bj scf=xqc pop=npa geom=c
 heck
 ----------------------------------------------------------------------

 ---------------------------------------
 CID_147651777_JID_6230_Energie_neutraal
 ---------------------------------------
 Structure from the checkpoint file:  "JID_6230.chk"
 Charge =  0 Multiplicity = 1

 SCF Done:  E(RB3LYP) =  -728.303854228     A.U. after   15 cycles
 Normal termination of Gaussian 16 at Thu Dec 10 21:48:58 2020.

 ----------------------------------------------------------------------
 # B3LYP/6-311++G(d,p) empiricaldispersion=gd3bj scf=xqc pop=npa geom=c
 heck
 ----------------------------------------------------------------------

 -------------------------------------
 CID_147651777_JID_6230_Energie_kation
 -------------------------------------
 Structure from the checkpoint file:  "JID_6230.chk"
 Charge =  1 Multiplicity = 2

 SCF Done:  E(UB3LYP) =  -727.993048907     A.U. after   33 cycles
 SCF Done:  E(UB3LYP) =  -727.993048907     a.u. after    2 cycles
 Normal termination of Gaussian 16 at Thu Dec 10 22:26:39 2020.
 Gaussian 16:  ES64L-G16RevA.03 25-Dec-2016

 ----------------------------------------------------------------------
 # B3LYP/6-311++G(d,p) empiricaldispersion=gd3bj scf=xqc pop=npa geom=c
 heck
 ----------------------------------------------------------------------

 ------------------------------------
 CID_147651777_JID_6230_Energie_anion
 ------------------------------------
 Structure from the checkpoint file:  "JID_6230.chk"
 Charge = -1 Multiplicity = 2

                         Standard orientation:
 ---------------------------------------------------------------------
 Center     Atomic      Atomic             Coordinates (Angstroms)
 Number     Number       Type             X           Y           Z
 ---------------------------------------------------------------------
      1          6           0       -0.515252    2.699002   -0.339161
      2          6           0       -1.661283    1.783035    0.101153
      3          6           0       -1.850339    0.566331   -0.825533
      4          6           0       -0.648043   -0.387423   -0.999294
      5          8           0       -0.340656   -1.216322    0.119575
      6          6           0        0.560318   -0.653108    1.065947
      7          6           0        1.948249   -0.409359    0.511494
      8          6           0        2.668355    0.733324    0.871142
      9          6           0        3.962351    0.940289    0.389203
     10          6           0        4.543628    0.007366   -0.468955
     11          6           0        3.826695   -1.133205   -0.839969
     12          6           0        2.539057   -1.341178   -0.350271
     13          6           0       -3.114522   -0.259137   -0.587335
     14          8           0       -3.819715   -0.615427   -1.524410
     15          7           0       -3.477154   -0.627567    0.689760
     16          7           0       -2.608081   -0.574721    1.792690
     17          1           0        0.460266    2.206949   -0.261698
     18          1           0       -0.478985    3.598849    0.285044
     19          1           0       -0.640153    3.022090   -1.380151
     20          1           0       -1.522263    1.456262    1.132028
     21          1           0       -2.598535    2.355110    0.087893
     22          1           0       -2.014725    0.957999   -1.838140
     23          1           0       -0.893970   -1.080624   -1.809729
     24          1           0        0.237324    0.181380   -1.307239
     25          1           0        0.158194    0.269040    1.500450
     26          1           0        0.607210   -1.395234    1.872412
     27          1           0        2.212139    1.466928    1.531965
     28          1           0        4.510051    1.833641    0.676215
     29          1           0        5.547489    0.168968   -0.851476
     30          1           0        4.273447   -1.860941   -1.511921
     31          1           0        1.972113   -2.220362   -0.641937
     32          1           0       -4.226074   -1.317199    0.684889
     33          1           0       -3.158539   -0.385457    2.626036
     34          1           0       -2.120651   -1.463007    1.896354
 ---------------------------------------------------------------------

 SCF Done:  E(UB3LYP) =  -728.295799144     A.U. after   33 cycles
 SCF Done:  E(UB3LYP) =  -728.295799144     a.u. after    1 cycles

 The electronic state is 2-A.
 Alpha  occ. eigenvalues --  -19.02902 -18.98927 -14.25660 -14.22911 -10.17169
 Alpha  occ. eigenvalues --  -10.12383 -10.11995 -10.08771 -10.08567 -10.08469
 Alpha  occ. eigenvalues --  -10.08379 -10.08258 -10.08184 -10.07886 -10.07165
 Alpha  occ. eigenvalues --  -10.07008  -0.94615  -0.93798  -0.87419  -0.76652
 Alpha  occ. eigenvalues --   -0.71599  -0.69007  -0.67696  -0.65603  -0.63859
 Alpha  occ. eigenvalues --   -0.59450  -0.54779  -0.51682  -0.50822  -0.49258
 Alpha  occ. eigenvalues --   -0.46403  -0.43363  -0.42573  -0.40905  -0.40237
 Alpha  occ. eigenvalues --   -0.39546  -0.37505  -0.36470  -0.36122  -0.34914
 Alpha  occ. eigenvalues --   -0.33387  -0.33104  -0.32582  -0.31912  -0.30428
 Alpha  occ. eigenvalues --   -0.29992  -0.27975  -0.27197  -0.26690  -0.26242
 Alpha  occ. eigenvalues --   -0.25673  -0.24810  -0.24285  -0.21667  -0.18542
 Alpha  occ. eigenvalues --   -0.16988  -0.16627  -0.15742  -0.15580  -0.15069
 Alpha  occ. eigenvalues --    0.04049
 Alpha virt. eigenvalues --    0.05692   0.06639   0.07014   0.07361   0.07683
 Alpha virt. eigenvalues --    0.08299   0.08805   0.09315   0.10093   0.10314
 Alpha virt. eigenvalues --    0.10598   0.11161   0.11249   0.12159   0.12724

  Beta  occ. eigenvalues --  -19.02894 -18.98920 -14.25641 -14.22833 -10.17165
  Beta  occ. eigenvalues --  -10.12378 -10.11978 -10.08769 -10.08573 -10.08416
  Beta  occ. eigenvalues --  -10.08355 -10.08255 -10.08128 -10.07855 -10.07156
  Beta  occ. eigenvalues --  -10.06999  -0.94593  -0.93779  -0.87347  -0.76578
  Beta  occ. eigenvalues --   -0.71569  -0.68883  -0.67601  -0.65547  -0.63826
  Beta  occ. eigenvalues --   -0.59406  -0.54716  -0.51647  -0.50786  -0.49179
  Beta  occ. eigenvalues --   -0.46367  -0.43253  -0.42507  -0.40830  -0.40186
  Beta  occ. eigenvalues --   -0.39517  -0.37443  -0.36435  -0.36079  -0.34875
  Beta  occ. eigenvalues --   -0.33361  -0.33080  -0.32549  -0.31875  -0.30396
  Beta  occ. eigenvalues --   -0.29953  -0.27938  -0.27087  -0.26652  -0.26205
  Beta  occ. eigenvalues --   -0.25643  -0.24788  -0.24264  -0.21637  -0.18487
  Beta  occ. eigenvalues --   -0.16920  -0.16517  -0.15642  -0.15411  -0.15022
  Beta virt. eigenvalues --    0.06007   0.06926   0.07065   0.07423   0.07601
  Beta virt. eigenvalues --    0.08068   0.08666   0.09034   0.09809   0.10333
  Beta virt. eigenvalues --    0.10670   0.10822   0.11239   0.11510   0.12470

 Mulliken charges and spin densities:
               1          2
     1  C   -0.225139  -0.447353
     2  C   -0.366171  -0.066505
     3  C    0.437485  -0.154591
     4  C   -0.011102  -0.256480
     5  O   -0.003369  -0.003919
     6  C    1.240811  -2.087189
     7  C   -0.004816   0.673002
     8  C   -0.939991   0.493667
     9  C   -0.046347  -0.259598
    10  C    0.638757  -0.941486
    11  C   -0.478561   0.107209
    12  C   -0.110661   0.558140
    13  C   -0.363249   0.175928
    14  O   -0.313068   0.013241
    15  N   -0.126058  -0.069327
    16  N   -0.054171  -0.417431
    17  H    0.374929  -0.236522
    18  H   -0.071195   0.214433
    19  H    0.080388   0.041151
    20  H    0.101751   0.089254
    21  H    0.075758   0.087211
    22  H    0.196524   0.033799
    23  H    0.247718  -0.047163
    24  H    0.099768   0.031921
    25  H    0.237084  -0.032434
    26  H   -0.540412   0.738802
    27  H   -0.153295   0.310618
    28  H   -0.360179   0.533609
    29  H   -0.123897   0.267307
    30  H   -0.034201   0.192892
    31  H    0.025095   0.173222
    32  H   -0.057446   0.354099
    33  H   -0.470802   0.770194
    34  H    0.098061   0.160300
 Sum of Mulliken charges =  -1.00000   1.00000

 Dipole moment (field-independent basis, Debye):
    X=              3.0164    Y=              1.9685    Z=             -4.3661  Tot=              5.6601
 Quadrupole moment (field-independent basis, Debye-Ang):
   XX=           -183.6183   YY=           -129.1478   ZZ=           -140.5615
   XY=             -9.7210   XZ=              3.2204   YZ=              3.4238

 Summary of Natural Population Analysis:

                                       Natural Population
                Natural  -----------------------------------------------
    Atom  No    Charge         Core      Valence    Rydberg      Total
 -----------------------------------------------------------------------
      C    1   -0.28797      0.99966     2.28396    0.00435     3.28797
      C    2   -0.19733      0.99961     2.18882    0.00890     3.19733
      C    3   -0.15814      0.99954     2.14764    0.01096     3.15814
      C    4   -0.00761      0.99954     1.99647    0.01160     3.00761
      O    5   -0.30250      0.99989     3.29312    0.00949     4.30250
      C    6   -0.01700      0.99952     2.00349    0.01399     3.01700
      C    7   -0.02633      0.99950     2.01677    0.01007     3.02633
      C    8   -0.10362      0.99951     2.09411    0.01000     3.10362
      C    9   -0.09842      0.99956     2.08855    0.01030     3.09842
      C   10   -0.09797      0.99956     2.08893    0.00948     3.09797
      C   11   -0.10293      0.99956     2.09395    0.00941     3.10293
      C   12   -0.09575      0.99951     2.08649    0.00975     3.09575
      C   13    0.34868      0.99963     1.62676    0.02492     2.65132
      O   14   -0.32849      0.99988     3.32291    0.00571     4.32849
      N   15   -0.23305      0.99965     2.71819    0.01520     3.73305
      N   16   -0.32034      0.99976     2.80640    0.01418     3.82034
      H   17    0.09980      0.00000     0.39905    0.00115     0.40020
      H   18    0.09947      0.00000     0.39973    0.00080     0.40053
      H   19    0.09275      0.00000     0.40636    0.00089     0.40725
      H   20    0.11250      0.00000     0.38561    0.00189     0.38750
      H   21    0.09639      0.00000     0.40257    0.00104     0.40361
      H   22    0.10878      0.00000     0.38966    0.00155     0.39122
      H   23    0.09388      0.00000     0.40509    0.00103     0.40612
      H   24    0.08865      0.00000     0.41007    0.00128     0.41135
      H   25    0.08719      0.00000     0.41020    0.00260     0.41281
      H   26    0.10050      0.00000     0.39738    0.00212     0.39950
      H   27    0.10181      0.00000     0.39702    0.00117     0.39819
      H   28    0.10021      0.00000     0.39879    0.00100     0.39979
      H   29    0.09868      0.00000     0.40042    0.00090     0.40132
      H   30    0.09831      0.00000     0.40091    0.00078     0.40169
      H   31    0.10548      0.00000     0.39293    0.00158     0.39452
      H   32    0.18245      0.00000     0.31455    0.00301     0.31755
      H   33    0.18091      0.00000     0.30975    0.00934     0.31909
      H   34    0.18099      0.00000     0.31322    0.00579     0.31901
 =======================================================================
   * Total *   -0.00000     15.99388    43.78986    0.21626    60.00000

 Normal termination of Gaussian 16 at Thu Dec 10 22:46:47 2020.
