 Gaussian 16, Revision A.03,

 -----------------------------------------------------------
 # opt freq B3LYP/6-31G(d) empiricaldispersion=gd3bj scf=xqc
 -----------------------------------------------------------

 ------------------------------
 CID_70323194_JID_1022_neutraal
 ------------------------------
 Symbolic Z-matrix:
 Charge =  0 Multiplicity = 1

 SCF Done:  E(RB3LYP) =  -459.687305292     A.U. after   14 cycles
 SCF Done:  E(RB3LYP) =  -459.693188963     A.U. after   12 cycles
 SCF Done:  E(RB3LYP) =  -459.693518522     A.U. after   12 cycles
 SCF Done:  E(RB3LYP) =  -459.693603460     A.U. after   11 cycles
 SCF Done:  E(RB3LYP) =  -459.693649707     A.U. after   12 cycles
 SCF Done:  E(RB3LYP) =  -459.693720811     A.U. after   12 cycles
 SCF Done:  E(RB3LYP) =  -459.693753824     A.U. after   12 cycles
 SCF Done:  E(RB3LYP) =  -459.693769568     A.U. after   11 cycles
 SCF Done:  E(RB3LYP) =  -459.693772362     A.U. after   11 cycles
 SCF Done:  E(RB3LYP) =  -459.693771764     A.U. after   10 cycles
 SCF Done:  E(RB3LYP) =  -459.696190795     A.U. after   12 cycles
 SCF Done:  E(RB3LYP) =  -459.696355784     A.U. after   12 cycles
 SCF Done:  E(RB3LYP) =  -459.696389604     A.U. after   11 cycles
 SCF Done:  E(RB3LYP) =  -459.696392722     A.U. after   10 cycles
 SCF Done:  E(RB3LYP) =  -459.696393596     A.U. after   10 cycles
 SCF Done:  E(RB3LYP) =  -459.696394058     A.U. after    8 cycles
 Optimization completed.
    -- Stationary point found.

 1\1\GINC-NODE313\FOpt\RB3LYP\6-31G(d)\C9H12N2\VSC10255\08-Dec-2020\0\\
 # opt freq B3LYP/6-31G(d) empiricaldispersion=gd3bj scf=xqc\\CID_70323
 194_JID_1022_neutraal\\0,1\C,-1.7492897035,0.1966456172,-0.1734006369\
 C,-0.5085792055,-0.4030269098,0.4806448062\C,0.5618334801,0.6469903348
 ,0.8895916864\C,1.3551095629,0.3243968648,-0.4133887964\C,0.5194844259
 ,-0.9869016002,-0.5281472835\C,2.8438182281,0.1963214444,-0.3101457744
 \N,3.3326339379,-0.631311281,0.6289007022\C,4.660551802,-0.736454235,0
 .7103856716\C,5.5149129037,-0.0255544407,-0.1343091066\N,5.0443880159,

 Normal termination of Gaussian 16 at Tue Dec  8 19:14:12 2020.

 --------------------------------------------------------------------
 #N Geom=AllCheck Guess=TCheck SCRF=Check GenChk RB3LYP/6-31G(d) Freq
 --------------------------------------------------------------------

 Structure from the checkpoint file:  "JID_1022.chk"
 ------------------------------
 CID_70323194_JID_1022_neutraal
 ------------------------------
 Charge =  0 Multiplicity = 1

 SCF Done:  E(RB3LYP) =  -459.696394058     A.U. after    1 cycles

  Exact polarizability: 139.818  -5.429  96.922  -0.000  -0.001  66.651
 Approx polarizability: 187.708  -5.641 169.098  -0.001  -0.002  98.417

                      1                      2                      3
                      A                      A                      A
 Frequencies --     45.1686                67.0794                99.9454
 Red. masses --      3.7032                 3.0908                 3.3842
 Frc consts  --      0.0045                 0.0082                 0.0199
 IR Inten    --      0.0080                 0.0003                 0.0964

                      4                      5                      6
                      A                      A                      A
 Frequencies --    197.6170               246.3402               264.2865
 Red. masses --      3.7881                 1.3486                 1.8633
 Frc consts  --      0.0872                 0.0482                 0.0767
 IR Inten    --      0.3846                 0.2302                 0.2210

                      7                      8                      9
                      A                      A                      A
 Frequencies --    311.4992               356.0909               421.8283
 Red. masses --      3.6490                 2.0616                 4.6737
 Frc consts  --      0.2086                 0.1540                 0.4900
 IR Inten    --      0.5319                 0.1771                15.0426

                     10                     11                     12
                      A                      A                      A
 Frequencies --    426.1438               558.2116               583.3026
 Red. masses --      2.2588                 3.9554                 2.7076
 Frc consts  --      0.2417                 0.7262                 0.5428
 IR Inten    --      0.2667                 0.6560                 0.8714

                     13                     14                     15
                      A                      A                      A
 Frequencies --    630.0864               737.0613               784.2751
 Red. masses --      8.4400                 4.6226                 2.7561
 Frc consts  --      1.9742                 1.4796                 0.9988
 IR Inten    --      0.1756                 3.6441                 1.8932

                     16                     17                     18
                      A                      A                      A
 Frequencies --    810.1128               830.7741               866.3219
 Red. masses --      2.6122                 1.2840                 1.5838
 Frc consts  --      1.0101                 0.5221                 0.7003
 IR Inten    --      0.5874                 2.0718                 8.9922

                     19                     20                     21
                      A                      A                      A
 Frequencies --    875.5143               915.4825               937.5545
 Red. masses --      3.8065                 2.1352                 1.6792
 Frc consts  --      1.7191                 1.0544                 0.8696
 IR Inten    --      0.8824                 0.0020                 0.4842

                     22                     23                     24
                      A                      A                      A
 Frequencies --    951.6119               968.8943               982.4284
 Red. masses --      1.5584                 1.6084                 1.4678
 Frc consts  --      0.8315                 0.8896                 0.8347
 IR Inten    --      0.0134                 0.0069                 0.0020

                     25                     26                     27
                      A                      A                      A
 Frequencies --    986.2719              1037.7471              1056.4359
 Red. masses --      2.2471                 5.3427                 1.6518
 Frc consts  --      1.2879                 3.3900                 1.0861
 IR Inten    --      2.5873                22.5559                 3.5981

                     28                     29                     30
                      A                      A                      A
 Frequencies --   1078.1176              1098.6689              1142.0175
 Red. masses --      1.9240                 2.1797                 2.1951
 Frc consts  --      1.3176                 1.5502                 1.6867
 IR Inten    --      2.6989                 8.9676                 2.0978

                     31                     32                     33
                      A                      A                      A
 Frequencies --   1153.0795              1207.6632              1235.3749
 Red. masses --      1.2395                 2.0668                 2.6442
 Frc consts  --      0.9710                 1.7760                 2.3777
 IR Inten    --      0.1135                24.8754                10.1030

                     34                     35                     36
                      A                      A                      A
 Frequencies --   1252.1546              1259.1791              1267.6354
 Red. masses --      1.5025                 1.5639                 2.4649
 Frc consts  --      1.3879                 1.4610                 2.3337
 IR Inten    --      0.0046                13.7681                 8.9245

                     37                     38                     39
                      A                      A                      A
 Frequencies --   1277.2675              1293.1327              1299.9074
 Red. masses --      1.2336                 1.4277                 1.5806
 Frc consts  --      1.1857                 1.4066                 1.5736
 IR Inten    --      0.0157                 0.0371                 2.8696

                     40                     41                     42
                      A                      A                      A
 Frequencies --   1335.8351              1384.4256              1401.5994
 Red. masses --      1.6754                 1.4633                 1.4220
 Frc consts  --      1.7615                 1.6524                 1.6459
 IR Inten    --      4.1681                 4.5520                 0.6770

                     43                     44                     45
                      A                      A                      A
 Frequencies --   1440.6595              1457.6145              1497.9014
 Red. masses --      1.2701                 2.1126                 1.0849
 Frc consts  --      1.5532                 2.6446                 1.4342
 IR Inten    --      4.1430                42.3044                 2.6712

                     46                     47                     48
                      A                      A                      A
 Frequencies --   1516.6326              1525.9425              1527.7378
 Red. masses --      1.3262                 1.6325                 1.0507
 Frc consts  --      1.7973                 2.2396                 1.4448
 IR Inten    --     11.9040                 5.5647                 1.3490

                     49                     50                     51
                      A                      A                      A
 Frequencies --   1529.7509              1593.1479              1631.6601
 Red. masses --      1.0803                 8.0498                 5.0625
 Frc consts  --      1.4894                12.0378                 7.9411
 IR Inten    --      5.7163                 9.5861                 7.0928

                     52                     53                     54
                      A                      A                      A
 Frequencies --   3036.6974              3064.2494              3069.4602
 Red. masses --      1.0355                 1.0817                 1.0590
 Frc consts  --      5.6261                 5.9844                 5.8784
 IR Inten    --     27.7179                20.6886                66.8092

                     55                     56                     57
                      A                      A                      A
 Frequencies --   3073.4544              3082.3939              3102.5233
 Red. masses --      1.0711                 1.0819                 1.1009
 Frc consts  --      5.9613                 6.0564                 6.2436
 IR Inten    --      7.0903                 9.7857                63.4741

                     58                     59                     60
                      A                      A                      A
 Frequencies --   3106.5801              3132.7783              3136.2182
 Red. masses --      1.1025                 1.1072                 1.1052
 Frc consts  --      6.2688                 6.4022                 6.4049
 IR Inten    --     33.6745                 4.3138                38.8046

                     61                     62                     63
                      A                      A                      A
 Frequencies --   3172.2012              3173.1736              3193.3450
 Red. masses --      1.0899                 1.0884                 1.0969
 Frc consts  --      6.4617                 6.4567                 6.5902
 IR Inten    --     28.4266                12.1944                40.7742

 - Thermochemistry -
 -------------------
 Temperature   298.150 Kelvin.  Pressure   1.00000 Atm.
 Atom     1 has atomic number  6 and mass  12.00000

 Molecular mass:   148.10005 amu.
 Principal axes and moments of inertia in atomic units:
                           1         2         3
     Eigenvalues --   511.655283101.617473317.44428
           X            0.99994  -0.01084   0.00000
           Y            0.01084   0.99994  -0.00000
           Z           -0.00000   0.00000   1.00000
 This molecule is an asymmetric top.
 Rotational symmetry number  1.
 Warning -- assumption of classical behavior for rotation
           may cause significant error
 Rotational temperatures (Kelvin)      0.16928     0.02793     0.02611
 Rotational constants (GHZ):           3.52726     0.58187     0.54402
 Zero-point vibrational energy     518570.8 (Joules/Mol)
                                  123.94139 (Kcal/Mol)
 Warning -- explicit consideration of  12 degrees of freedom as
           vibrations may cause significant error
 Vibrational temperatures:     64.99    96.51   143.80   284.33   354.43
          (Kelvin)            380.25   448.18   512.34   606.92   613.13
                              803.14   839.24   906.55  1060.47  1128.40
                             1165.57  1195.30  1246.44  1259.67  1317.18
                             1348.93  1369.16  1394.02  1413.50  1419.03
                             1493.09  1519.98  1551.17  1580.74  1643.11
                             1659.02  1737.56  1777.43  1801.57  1811.68
                             1823.84  1837.70  1860.53  1870.28  1921.97
                             1991.88  2016.59  2072.79  2097.18  2155.15
                             2182.10  2195.49  2198.07  2200.97  2292.18
                             2347.59  4369.13  4408.77  4416.27  4422.02
                             4434.88  4463.84  4469.68  4507.37  4512.32
                             4564.09  4565.49  4594.51

 Zero-point correction=                           0.197513 (Hartree/Particle)
 Thermal correction to Energy=                    0.207116
 Thermal correction to Enthalpy=                  0.208060
 Thermal correction to Gibbs Free Energy=         0.161733
 Sum of electronic and zero-point Energies=           -459.498881
 Sum of electronic and thermal Energies=              -459.489278
 Sum of electronic and thermal Enthalpies=            -459.488334
 Sum of electronic and thermal Free Energies=         -459.534661

                     E (Thermal)             CV                S
                      KCal/Mol        Cal/Mol-Kelvin    Cal/Mol-Kelvin
 Total                  129.967             36.788             97.504
 Electronic               0.000              0.000              0.000
 Translational            0.889              2.981             40.889
 Rotational               0.889              2.981             30.044
 Vibrational            128.190             30.827             26.572
 Vibration     1          0.595              1.979              5.018
 Vibration     2          0.598              1.970              4.237
 Vibration     3          0.604              1.949              3.455
 Vibration     4          0.637              1.843              2.155
 Vibration     5          0.661              1.769              1.757
 Vibration     6          0.671              1.738              1.633
 Vibration     7          0.700              1.652              1.354
 Vibration     8          0.732              1.563              1.139
 Vibration     9          0.784              1.423              0.886
 Vibration    10          0.788              1.413              0.871
 Vibration    11          0.914              1.122              0.527
 Vibration    12          0.940              1.067              0.479

 Optimization completed.
    -- Stationary point found.

 1\1\GINC-NODE313\Freq\RB3LYP\6-31G(d)\C9H12N2\VSC10255\08-Dec-2020\0\\
 #N Geom=AllCheck Guess=TCheck SCRF=Check GenChk RB3LYP/6-31G(d) Freq\\
 CID_70323194_JID_1022_neutraal\\0,1\C,-1.7492897035,0.1966456172,-0.17
 34006369\C,-0.5085792055,-0.4030269098,0.4806448062\C,0.5618334801,0.6
 469903348,0.8895916864\C,1.3551095629,0.3243968648,-0.4133887964\C,0.5
 194844259,-0.9869016002,-0.5281472835\C,2.8438182281,0.1963214444,-0.3
 101457744\N,3.3326339379,-0.631311281,0.6289007022\C,4.660551802,-0.73
 6454235,0.7103856716\C,5.5149129037,-0.0255544407,-0.1343091066\N,5.04

 Normal termination of Gaussian 16 at Tue Dec  8 19:18:15 2020.

 ----------------------------------------------------------------------
 # B3LYP/6-311++G(d,p) empiricaldispersion=gd3bj scf=xqc pop=npa geom=c
 heck
 ----------------------------------------------------------------------

 --------------------------------------
 CID_70323194_JID_1022_Energie_neutraal
 --------------------------------------
 Structure from the checkpoint file:  "JID_1022.chk"
 Charge =  0 Multiplicity = 1

 SCF Done:  E(RB3LYP) =  -459.814849252     A.U. after   15 cycles
 Normal termination of Gaussian 16 at Tue Dec  8 19:19:46 2020.

 ----------------------------------------------------------------------
 # B3LYP/6-311++G(d,p) empiricaldispersion=gd3bj scf=xqc pop=npa geom=c
 heck
 ----------------------------------------------------------------------

 ------------------------------------
 CID_70323194_JID_1022_Energie_kation
 ------------------------------------
 Structure from the checkpoint file:  "JID_1022.chk"
 Charge =  1 Multiplicity = 2

 SCF Done:  E(UB3LYP) =  -459.485419572     A.U. after   24 cycles
 Normal termination of Gaussian 16 at Tue Dec  8 19:22:57 2020.
 Gaussian 16:  ES64L-G16RevA.03 25-Dec-2016

 -----------------------------------
 CID_70323194_JID_1022_Energie_anion
 -----------------------------------
 Structure from the checkpoint file:  "JID_1022.chk"
 Charge = -1 Multiplicity = 2

                         Standard orientation:
 ---------------------------------------------------------------------
 Center     Atomic      Atomic             Coordinates (Angstroms)
 Number     Number       Type             X           Y           Z
 ---------------------------------------------------------------------
      1          6           0       -3.880310    0.400668   -0.000048
      2          6           0       -2.692494   -0.556326    0.000069
      3          6           0       -1.622950   -0.237961    1.081862
      4          6           0       -0.765209    0.486436   -0.000099
      5          6           0       -1.622965   -0.238236   -1.081787
      6          6           0        0.711990    0.239053   -0.000006
      7          7           0        1.128021   -1.038697    0.000043
      8          6           0        2.446478   -1.245409    0.000046
      9          6           0        3.363146   -0.192536   -0.000021
     10          7           0        2.965375    1.084109   -0.000039
     11          6           0        1.644820    1.286139   -0.000013
     12          1           0       -4.507663    0.251557    0.886938
     13          1           0       -3.549748    1.447214   -0.000163
     14          1           0       -4.507648    0.251359   -0.887011
     15          1           0       -3.052203   -1.591090    0.000231
     16          1           0       -1.940091    0.361375    1.942062
     17          1           0       -1.111367   -1.137615    1.433884
     18          1           0       -0.955274    1.564248   -0.000164
     19          1           0       -1.111371   -1.137932   -1.433662
     20          1           0       -1.940179    0.360858   -1.942151
     21          1           0        2.784227   -2.280128    0.000117
     22          1           0        4.434657   -0.380098   -0.000025
     23          1           0        1.307855    2.321403   -0.000094
 ---------------------------------------------------------------------

 SCF Done:  E(UB3LYP) =  -459.810710763     A.U. after   31 cycles

 The electronic state is 2-A.
 Alpha  occ. eigenvalues --  -14.11207 -14.11077 -10.05754 -10.05490 -10.03593
 Alpha  occ. eigenvalues --  -10.03362 -10.03361 -10.02931 -10.02595 -10.02543
 Alpha  occ. eigenvalues --  -10.02257  -0.78968  -0.72817  -0.71056  -0.62167
 Alpha  occ. eigenvalues --   -0.58633  -0.53070  -0.51388  -0.47441  -0.45217
 Alpha  occ. eigenvalues --   -0.40079  -0.36588  -0.35009  -0.33063  -0.31870
 Alpha  occ. eigenvalues --   -0.31514  -0.29744  -0.27174  -0.25664  -0.25330
 Alpha  occ. eigenvalues --   -0.25048  -0.21856  -0.21355  -0.18867  -0.17797
 Alpha  occ. eigenvalues --   -0.17337  -0.15065  -0.12074  -0.09205  -0.06466
 Alpha  occ. eigenvalues --    0.06714
 Alpha virt. eigenvalues --    0.07534   0.09867   0.09911   0.10330   0.11081
 Alpha virt. eigenvalues --    0.12322   0.12761   0.12792   0.13718   0.13901
 Alpha virt. eigenvalues --    0.14706   0.14708   0.16652   0.16844   0.17698

  Beta  occ. eigenvalues --  -14.10479 -14.10339 -10.05752 -10.05489 -10.03605
  Beta  occ. eigenvalues --  -10.03335 -10.03334 -10.02862 -10.02558 -10.02543
  Beta  occ. eigenvalues --  -10.02200  -0.78072  -0.72523  -0.70029  -0.62013
  Beta  occ. eigenvalues --   -0.58367  -0.53016  -0.51108  -0.46910  -0.44889
  Beta  occ. eigenvalues --   -0.39964  -0.36464  -0.34886  -0.32848  -0.31582
  Beta  occ. eigenvalues --   -0.31480  -0.29590  -0.27123  -0.25539  -0.24993
  Beta  occ. eigenvalues --   -0.24140  -0.21690  -0.20475  -0.18773  -0.17654
  Beta  occ. eigenvalues --   -0.17250  -0.11705  -0.11118  -0.08081  -0.05694
  Beta virt. eigenvalues --    0.07434   0.09742   0.09805   0.10277   0.11036
  Beta virt. eigenvalues --    0.12214   0.12590   0.12631   0.13555   0.13787
  Beta virt. eigenvalues --    0.14452   0.14546   0.14933   0.16652   0.16717

 Mulliken charges and spin densities:
               1          2
     1  C   -0.678915  -0.019655
     2  C    0.493547   0.034508
     3  C   -0.586617  -0.162110
     4  C   -0.252418   0.151099
     5  C   -0.586658  -0.162166
     6  C    0.081853   0.029277
     7  N   -0.099001   0.306848
     8  C    0.056525   0.107870
     9  C   -0.252076   0.092467
    10  N   -0.117839   0.297655
    11  C   -0.374374   0.075056
    12  H    0.103853   0.010437
    13  H    0.140742   0.000673
    14  H    0.103849   0.010442
    15  H    0.181159  -0.001359
    16  H   -0.040004   0.146932
    17  H    0.173616  -0.022227
    18  H    0.188490  -0.001625
    19  H    0.173626  -0.022221
    20  H   -0.040003   0.146910
    21  H    0.104014  -0.005739
    22  H    0.110416  -0.008323
    23  H    0.116215  -0.004748
 Sum of Mulliken charges =  -1.00000   1.00000

 Dipole moment (field-independent basis, Debye):
    X=             -6.4650    Y=             -0.5639    Z=              0.0000  Tot=              6.4896
 Quadrupole moment (field-independent basis, Debye-Ang):
   XX=           -106.4862   YY=            -80.7114   ZZ=            -80.8371
   XY=             -5.9260   XZ=              0.0001   YZ=             -0.0005

 Summary of Natural Population Analysis:

                                       Natural Population
                Natural  -----------------------------------------------
    Atom  No    Charge         Core      Valence    Rydberg      Total
 -----------------------------------------------------------------------
      C    1   -0.28327      0.99965     2.27845    0.00517     3.28327
      C    2   -0.11432      0.99963     2.10564    0.00905     3.11432
      C    3   -0.18110      0.99962     2.17230    0.00918     3.18110
      C    4   -0.11562      0.99958     2.10381    0.01223     3.11562
      C    5   -0.18111      0.99962     2.17231    0.00918     3.18111
      C    6    0.08510      0.99951     1.89941    0.01597     2.91490
      N    7   -0.14693      0.99967     2.63585    0.01140     3.64693
      C    8    0.00108      0.99960     1.98339    0.01593     2.99892
      C    9   -0.00549      0.99960     1.98860    0.01729     3.00549
      N   10   -0.13839      0.99971     2.62552    0.01317     3.63839
      C   11   -0.00359      0.99954     1.98716    0.01689     3.00359
      H   12    0.09298      0.00000     0.40629    0.00073     0.40702
      H   13    0.09522      0.00000     0.40400    0.00078     0.40478
      H   14    0.09298      0.00000     0.40629    0.00073     0.40702
      H   15    0.08618      0.00000     0.41249    0.00133     0.41382
      H   16    0.08789      0.00000     0.41066    0.00145     0.41211
      H   17    0.10809      0.00000     0.39049    0.00143     0.39191
      H   18    0.09344      0.00000     0.40523    0.00133     0.40656
      H   19    0.10809      0.00000     0.39048    0.00143     0.39191
      H   20    0.08789      0.00000     0.41066    0.00145     0.41211
      H   21    0.07647      0.00000     0.42238    0.00115     0.42353
      H   22    0.07679      0.00000     0.42203    0.00117     0.42321
      H   23    0.07761      0.00000     0.42119    0.00120     0.42239
 =======================================================================
   * Total *    0.00000     10.99573    28.85464    0.14962    40.00000

 Normal termination of Gaussian 16 at Tue Dec  8 19:27:07 2020.
