 Gaussian 16, Revision A.03,

 -----------------------------------------------------------
 # opt freq B3LYP/6-31G(d) empiricaldispersion=gd3bj scf=xqc
 -----------------------------------------------------------

 -------------------------------
 CID_106848638_JID_6699_neutraal
 -------------------------------
 Symbolic Z-matrix:
 Charge =  0 Multiplicity = 1

 SCF Done:  E(RB3LYP) =  -1355.59064564     A.U. after   15 cycles
 SCF Done:  E(RB3LYP) =  -1355.59481611     A.U. after   12 cycles
 SCF Done:  E(RB3LYP) =  -1355.59592145     A.U. after   13 cycles
 SCF Done:  E(RB3LYP) =  -1355.59650431     A.U. after   14 cycles
 SCF Done:  E(RB3LYP) =  -1355.59682500     A.U. after   11 cycles
 SCF Done:  E(RB3LYP) =  -1355.59689004     A.U. after   12 cycles
 SCF Done:  E(RB3LYP) =  -1355.59690057     A.U. after   10 cycles
 SCF Done:  E(RB3LYP) =  -1355.59690581     A.U. after   10 cycles
 SCF Done:  E(RB3LYP) =  -1355.59690740     A.U. after   11 cycles
 SCF Done:  E(RB3LYP) =  -1355.59690949     A.U. after   10 cycles
 SCF Done:  E(RB3LYP) =  -1355.59690985     A.U. after    8 cycles
 SCF Done:  E(RB3LYP) =  -1355.59690979     A.U. after    9 cycles
 SCF Done:  E(RB3LYP) =  -1355.59690994     A.U. after    8 cycles
 Optimization completed.
    -- Stationary point found.
 Normal termination of Gaussian 16 at Thu Dec 10 22:56:46 2020.

 --------------------------------------------------------------------
 #N Geom=AllCheck Guess=TCheck SCRF=Check GenChk RB3LYP/6-31G(d) Freq
 --------------------------------------------------------------------

 Structure from the checkpoint file:  "JID_6699.chk"
 -------------------------------
 CID_106848638_JID_6699_neutraal
 -------------------------------
 Charge =  0 Multiplicity = 1

 SCF Done:  E(RB3LYP) =  -1355.59690994     A.U. after    1 cycles

  Exact polarizability: 236.873  -3.504 158.662 -11.096  -5.043 121.661
 Approx polarizability: 328.107  -7.265 267.432 -26.373 -14.266 206.350

                      1                      2                      3
                      A                      A                      A
 Frequencies --     16.2068                28.2219                39.5691
 Red. masses --      4.0234                 4.8509                 5.7781
 Frc consts  --      0.0006                 0.0023                 0.0053
 IR Inten    --      0.3943                 0.0933                 0.3965

                      4                      5                      6
                      A                      A                      A
 Frequencies --     49.7523                75.5505               106.4926
 Red. masses --      3.5596                 3.2767                 3.0253
 Frc consts  --      0.0052                 0.0110                 0.0202
 IR Inten    --      0.1087                 0.4199                 0.1026

                      7                      8                      9
                      A                      A                      A
 Frequencies --    137.3309               178.5112               203.3032
 Red. masses --      2.8025                 5.0692                 3.5623
 Frc consts  --      0.0311                 0.0952                 0.0868
 IR Inten    --      1.0745                 0.2199                 0.3855

                     10                     11                     12
                      A                      A                      A
 Frequencies --    224.3381               262.1754               269.8874
 Red. masses --      8.7561                 1.3173                 1.7507
 Frc consts  --      0.2596                 0.0533                 0.0751
 IR Inten    --      0.5860                 1.9176                23.4948

                     13                     14                     15
                      A                      A                      A
 Frequencies --    310.7387               327.9915               337.6530
 Red. masses --      2.7244                 2.3830                 4.2749
 Frc consts  --      0.1550                 0.1510                 0.2872
 IR Inten    --     10.3057                36.9156                 2.1678

                     16                     17                     18
                      A                      A                      A
 Frequencies --    382.8853               406.0019               424.0809
 Red. masses --      3.8156                 5.7679                 3.0836
 Frc consts  --      0.3296                 0.5602                 0.3267
 IR Inten    --      0.2519                 1.3770                 0.6893

                     19                     20                     21
                      A                      A                      A
 Frequencies --    482.3063               529.9097               539.3076
 Red. masses --      4.7524                 3.6920                 4.1803
 Frc consts  --      0.6513                 0.6108                 0.7164
 IR Inten    --      7.9116                 7.1101                 3.3011

                     22                     23                     24
                      A                      A                      A
 Frequencies --    592.1556               624.7809               648.4770
 Red. masses --      4.9025                 4.0087                 5.1010
 Frc consts  --      1.0128                 0.9219                 1.2639
 IR Inten    --      3.6054                 9.8587                 1.8123

                     25                     26                     27
                      A                      A                      A
 Frequencies --    653.3774               681.1030               705.4096
 Red. masses --      6.0591                 4.4476                 1.2048
 Frc consts  --      1.5240                 1.2156                 0.3532
 IR Inten    --      1.2993                 3.0793                59.3500

                     28                     29                     30
                      A                      A                      A
 Frequencies --    721.9131               747.2196               775.3962
 Red. masses --      4.3413                 7.1964                 1.6880
 Frc consts  --      1.3330                 2.3673                 0.5980
 IR Inten    --      7.0153                 1.6905                21.4994

                     31                     32                     33
                      A                      A                      A
 Frequencies --    789.8321               816.4680               845.3047
 Red. masses --      1.6790                 3.5322                 1.3276
 Frc consts  --      0.6171                 1.3873                 0.5589
 IR Inten    --      7.4046                27.8048                 3.8021

                     34                     35                     36
                      A                      A                      A
 Frequencies --    856.4118               864.6114               874.5504
 Red. masses --      1.6640                 2.3681                 1.6338
 Frc consts  --      0.7191                 1.0430                 0.7362
 IR Inten    --      8.1892                12.2938                18.5456

                     37                     38                     39
                      A                      A                      A
 Frequencies --    912.4404               951.2303               973.9975
 Red. masses --      1.3250                 2.2419                 1.3117
 Frc consts  --      0.6500                 1.1952                 0.7332
 IR Inten    --      0.8922               184.0067                 0.5948

                     40                     41                     42
                      A                      A                      A
 Frequencies --    990.1991               994.0740              1039.3498
 Red. masses --      1.8616                 1.3175                 3.7100
 Frc consts  --      1.0754                 0.7671                 2.3613
 IR Inten    --      7.3421                 3.9739                16.8829

                     43                     44                     45
                      A                      A                      A
 Frequencies --   1059.7708              1070.7865              1087.7789
 Red. masses --      1.7943                 1.3307                 1.9521
 Frc consts  --      1.1874                 0.8990                 1.3609
 IR Inten    --     10.5986                 4.2066                 2.4923

                     46                     47                     48
                      A                      A                      A
 Frequencies --   1088.7220              1104.6647              1120.2194
 Red. masses --      2.1179                 1.5568                 2.9426
 Frc consts  --      1.4791                 1.1193                 2.1757
 IR Inten    --     22.6834                 1.2410                 1.7835

                     49                     50                     51
                      A                      A                      A
 Frequencies --   1137.3930              1143.5138              1197.8253
 Red. masses --      1.5969                 1.4466                 1.4628
 Frc consts  --      1.2171                 1.1145                 1.2366
 IR Inten    --      8.5687                 4.8667                19.0686

                     52                     53                     54
                      A                      A                      A
 Frequencies --   1215.5534              1229.1751              1263.4043
 Red. masses --      1.1801                 2.0233                 1.5742
 Frc consts  --      1.0274                 1.8011                 1.4805
 IR Inten    --      4.4649                 3.1968                48.1871

                     55                     56                     57
                      A                      A                      A
 Frequencies --   1292.1234              1319.7799              1332.5621
 Red. masses --      1.2135                 1.2886                 2.1205
 Frc consts  --      1.1937                 1.3224                 2.2186
 IR Inten    --      2.6681                31.3407                 0.3651

                     58                     59                     60
                      A                      A                      A
 Frequencies --   1337.5715              1351.8335              1407.5206
 Red. masses --      1.5066                 2.5924                 2.0841
 Frc consts  --      1.5881                 2.7913                 2.4327
 IR Inten    --      4.9295                 9.9909                 1.8962

                     61                     62                     63
                      A                      A                      A
 Frequencies --   1417.7632              1437.4252              1441.5780
 Red. masses --      1.2974                 1.2301                 2.7715
 Frc consts  --      1.5364                 1.4975                 3.3934
 IR Inten    --      8.1623                 3.5014                13.7284

                     64                     65                     66
                      A                      A                      A
 Frequencies --   1495.3101              1499.5705              1519.9833
 Red. masses --      6.4991                 1.0905                 1.0413
 Frc consts  --      8.5618                 1.4448                 1.4174
 IR Inten    --      5.5421                 3.5927                 5.1577

                     67                     68                     69
                      A                      A                      A
 Frequencies --   1532.4206              1540.7314              1596.9435
 Red. masses --      1.0490                 2.2814                 5.0682
 Frc consts  --      1.4514                 3.1909                 7.6152
 IR Inten    --      1.3559                24.6549                 0.2524

                     70                     71                     72
                      A                      A                      A
 Frequencies --   1618.2843              1658.1149              1699.2238
 Red. masses --      6.7969                 5.5143                 1.0943
 Frc consts  --     10.4875                 8.9324                 1.8616
 IR Inten    --      0.7230                 1.0800                30.6159

                     73                     74                     75
                      A                      A                      A
 Frequencies --   3031.5231              3049.8137              3069.2982
 Red. masses --      1.0835                 1.0377                 1.0591
 Frc consts  --      5.8669                 5.6865                 5.8784
 IR Inten    --     16.2812                28.0315                20.0278

                     76                     77                     78
                      A                      A                      A
 Frequencies --   3112.7596              3117.1950              3140.3729
 Red. masses --      1.1056                 1.0984                 1.1046
 Frc consts  --      6.3116                 6.2885                 6.4185
 IR Inten    --      2.4591                27.2545                31.2722

                     79                     80                     81
                      A                      A                      A
 Frequencies --   3193.0413              3206.4688              3209.1147
 Red. masses --      1.0871                 1.0898                 1.0941
 Frc consts  --      6.5301                 6.6014                 6.6386
 IR Inten    --      7.3565                 7.9559                 7.5839

                     82                     83                     84
                      A                      A                      A
 Frequencies --   3217.2479              3231.1216              3231.3203
 Red. masses --      1.0884                 1.0953                 1.0921
 Frc consts  --      6.6374                 6.7374                 6.7184
 IR Inten    --      9.8349                 4.7468                 2.9268

                     85                     86                     87
                      A                      A                      A
 Frequencies --   3272.5698              3460.2953              3547.3223
 Red. masses --      1.0970                 1.0508                 1.0913
 Frc consts  --      6.9218                 7.4127                 8.0908
 IR Inten    --      1.1165                 0.4635                 0.2797

 - Thermochemistry -
 -------------------
 Temperature   298.150 Kelvin.  Pressure   1.00000 Atm.
 Atom     1 has atomic number  6 and mass  12.00000

 Molecular mass:   249.06459 amu.
 Principal axes and moments of inertia in atomic units:
                           1         2         3
     Eigenvalues --  1904.901009427.24417**********
           X            0.99993  -0.01086  -0.00482
           Y            0.01085   0.99994  -0.00254
           Z            0.00485   0.00249   0.99999
 This molecule is an asymmetric top.
 Rotational symmetry number  1.
 Warning -- assumption of classical behavior for rotation
           may cause significant error
 Rotational temperatures (Kelvin)      0.04547     0.00919     0.00846
 Rotational constants (GHZ):           0.94742     0.19144     0.17624
 Zero-point vibrational energy     662118.3 (Joules/Mol)
                                  158.25006 (Kcal/Mol)
 Warning -- explicit consideration of  22 degrees of freedom as
           vibrations may cause significant error
 Vibrational temperatures:     23.32    40.61    56.93    71.58   108.70
          (Kelvin)            153.22   197.59   256.84   292.51   322.77
                              377.21   388.31   447.08   471.91   485.81
                              550.89   584.15   610.16   693.93   762.42
                              775.94   851.98   898.92   933.01   940.06
                              979.96  1014.93  1038.67  1075.08  1115.62
                             1136.39  1174.72  1216.20  1232.19  1243.98
                             1258.28  1312.80  1368.61  1401.37  1424.68
                             1430.25  1495.39  1524.77  1540.62  1565.07
                             1566.43  1589.37  1611.75  1636.45  1645.26
                             1723.40  1748.91  1768.51  1817.76  1859.08
                             1898.87  1917.26  1924.47  1944.99  2025.11
                             2039.85  2068.13  2074.11  2151.42  2157.55
                             2186.92  2204.81  2216.77  2297.65  2328.35
                             2385.66  2444.80  4361.69  4388.00  4416.04
                             4478.57  4484.95  4518.30  4594.07  4613.39
                             4617.20  4628.90  4648.86  4649.15  4708.50
                             4978.59  5103.81

 Zero-point correction=                           0.252188 (Hartree/Particle)
 Thermal correction to Energy=                    0.268114
 Thermal correction to Enthalpy=                  0.269058
 Thermal correction to Gibbs Free Energy=         0.205828
 Sum of electronic and zero-point Energies=          -1355.344722
 Sum of electronic and thermal Energies=             -1355.328796
 Sum of electronic and thermal Enthalpies=           -1355.327852
 Sum of electronic and thermal Free Energies=        -1355.391082

                     E (Thermal)             CV                S
                      KCal/Mol        Cal/Mol-Kelvin    Cal/Mol-Kelvin
 Total                  168.244             59.916            133.079
 Electronic               0.000              0.000              0.000
 Translational            0.889              2.981             42.438
 Rotational               0.889              2.981             33.575
 Vibrational            166.466             53.954             57.066
 Vibration     1          0.593              1.986              7.052
 Vibration     2          0.593              1.984              5.951
 Vibration     3          0.594              1.981              5.281
 Vibration     4          0.595              1.978              4.827
 Vibration     5          0.599              1.965              4.003
 Vibration     6          0.605              1.944              3.332
 Vibration     7          0.614              1.916              2.841
 Vibration     8          0.629              1.869              2.344
 Vibration     9          0.639              1.835              2.103
 Vibration    10          0.649              1.804              1.924
 Vibration    11          0.669              1.742              1.647
 Vibration    12          0.674              1.729              1.597
 Vibration    13          0.700              1.653              1.358
 Vibration    14          0.711              1.620              1.270
 Vibration    15          0.718              1.600              1.223
 Vibration    16          0.752              1.507              1.028
 Vibration    17          0.771              1.457              0.941
 Vibration    18          0.786              1.418              0.878
 Vibration    19          0.839              1.289              0.704
 Vibration    20          0.885              1.184              0.587
 Vibration    21          0.894              1.163              0.567
 Vibration    22          0.950              1.048              0.463

                           ! Non-Optimized Parameters !
 Normal termination of Gaussian 16 at Thu Dec 10 23:07:46 2020.

 ----------------------------------------------------------------------
 # B3LYP/6-311++G(d,p) empiricaldispersion=gd3bj scf=xqc pop=npa geom=c
 heck
 ----------------------------------------------------------------------

 ---------------------------------------
 CID_106848638_JID_6699_Energie_neutraal
 ---------------------------------------
 Structure from the checkpoint file:  "JID_6699.chk"
 Charge =  0 Multiplicity = 1

 SCF Done:  E(RB3LYP) =  -1355.80304715     A.U. after   15 cycles
 Normal termination of Gaussian 16 at Thu Dec 10 23:13:16 2020.

 ----------------------------------------------------------------------
 # B3LYP/6-311++G(d,p) empiricaldispersion=gd3bj scf=xqc pop=npa geom=c
 heck
 ----------------------------------------------------------------------

 -------------------------------------
 CID_106848638_JID_6699_Energie_kation
 -------------------------------------
 Structure from the checkpoint file:  "JID_6699.chk"
 Charge =  1 Multiplicity = 2

 SCF Done:  E(UB3LYP) =  -1355.52169139     A.U. after   27 cycles
 Normal termination of Gaussian 16 at Thu Dec 10 23:27:22 2020.
 Gaussian 16:  ES64L-G16RevA.03 25-Dec-2016

 ----------------------------------------------------------------------
 # B3LYP/6-311++G(d,p) empiricaldispersion=gd3bj scf=xqc pop=npa geom=c
 heck
 ----------------------------------------------------------------------

 ------------------------------------
 CID_106848638_JID_6699_Energie_anion
 ------------------------------------
 Structure from the checkpoint file:  "JID_6699.chk"
 Charge = -1 Multiplicity = 2

                         Standard orientation:
 ---------------------------------------------------------------------
 Center     Atomic      Atomic             Coordinates (Angstroms)
 Number     Number       Type             X           Y           Z
 ---------------------------------------------------------------------
      1          6           0       -4.005789    1.608604    1.491257
      2          6           0       -4.360070    1.503631    0.012552
      3         16           0       -4.254961   -0.212721   -0.654807
      4          6           0       -2.500858   -0.517980   -0.454819
      5          6           0       -2.052657   -1.455685    0.478945
      6          6           0       -0.687938   -1.713375    0.624231
      7          6           0        0.253354   -1.020969   -0.140342
      8          6           0       -0.201275   -0.082693   -1.078314
      9          6           0       -1.560626    0.157953   -1.245000
     10          6           0        1.746032   -1.305416   -0.001547
     11          6           0        2.560738   -0.027504    0.022440
     12          6           0        2.274188    1.168526    0.629171
     13          6           0        3.348329    2.108529    0.566564
     14          6           0        4.445913    1.618938   -0.085049
     15         16           0        4.178313   -0.004801   -0.640117
     16          7           0        2.011928   -2.168730    1.164115
     17          1           0       -4.673251    0.989216    2.098425
     18          1           0       -4.090428    2.648303    1.831008
     19          1           0       -2.978507    1.275136    1.668960
     20          1           0       -5.397432    1.803241   -0.170087
     21          1           0       -3.719752    2.151288   -0.594825
     22          1           0       -2.775871   -1.983369    1.092718
     23          1           0       -0.343373   -2.458748    1.331764
     24          1           0        0.517820    0.460008   -1.684606
     25          1           0       -1.899422    0.870426   -1.991278
     26          1           0        2.051822   -1.890821   -0.879552
     27          1           0        1.316456    1.372062    1.094973
     28          1           0        3.300461    3.108230    0.984426
     29          1           0        5.385070    2.115118   -0.287752
     30          1           0        2.992359   -2.445250    1.145314
     31          1           0        1.900858   -1.608736    2.009947
 ---------------------------------------------------------------------

 SCF Done:  E(UB3LYP) =  -1355.79264125     A.U. after   33 cycles
 SCF Done:  E(UB3LYP) =  -1355.79264126     a.u. after    2 cycles

 The electronic state is 2-A.
 Alpha  occ. eigenvalues --  -88.77858 -88.73760 -14.20266 -10.11991 -10.10462
 Alpha  occ. eigenvalues --  -10.10144 -10.09941 -10.09135 -10.08222 -10.07687
 Alpha  occ. eigenvalues --  -10.07442 -10.07306 -10.07082 -10.06972 -10.06906
 Alpha  occ. eigenvalues --  -10.06618  -7.86479  -7.82346  -5.82754  -5.82397
 Alpha  occ. eigenvalues --   -5.82099  -5.78736  -5.78382  -5.77726  -0.81041
 Alpha  occ. eigenvalues --   -0.77696  -0.75738  -0.70509  -0.66645  -0.64522
 Alpha  occ. eigenvalues --   -0.64046  -0.63553  -0.59711  -0.55661  -0.50965
 Alpha  occ. eigenvalues --   -0.50733  -0.47098  -0.46817  -0.44226  -0.41621
 Alpha  occ. eigenvalues --   -0.40952  -0.38363  -0.36180  -0.35592  -0.34825
 Alpha  occ. eigenvalues --   -0.33630  -0.32339  -0.32177  -0.31741  -0.30698
 Alpha  occ. eigenvalues --   -0.29986  -0.29330  -0.28174  -0.27398  -0.26478
 Alpha  occ. eigenvalues --   -0.25807  -0.24935  -0.24301  -0.23779  -0.21371
 Alpha  occ. eigenvalues --   -0.17390  -0.16192  -0.15509  -0.15147  -0.13345
 Alpha  occ. eigenvalues --   -0.12198   0.04275
 Alpha virt. eigenvalues --    0.05942   0.06291   0.06763   0.07292   0.07893
 Alpha virt. eigenvalues --    0.08455   0.08562   0.08804   0.08992   0.09393
 Alpha virt. eigenvalues --    0.10521   0.10934   0.11396   0.11582   0.11767

  Beta  occ. eigenvalues --  -88.77846 -88.73760 -14.20228 -10.11993 -10.10424
  Beta  occ. eigenvalues --  -10.10091 -10.09876 -10.09035 -10.08208 -10.07672
  Beta  occ. eigenvalues --  -10.07315 -10.07289 -10.07043 -10.06956 -10.06890
  Beta  occ. eigenvalues --  -10.06615  -7.86467  -7.82345  -5.82741  -5.82388
  Beta  occ. eigenvalues --   -5.82073  -5.78734  -5.78384  -5.77724  -0.80948
  Beta  occ. eigenvalues --   -0.77621  -0.75603  -0.70394  -0.66501  -0.64417
  Beta  occ. eigenvalues --   -0.63973  -0.63456  -0.59611  -0.55575  -0.50851
  Beta  occ. eigenvalues --   -0.50663  -0.47005  -0.46709  -0.44148  -0.41558
  Beta  occ. eigenvalues --   -0.40868  -0.38290  -0.36113  -0.35517  -0.34740
  Beta  occ. eigenvalues --   -0.33556  -0.32216  -0.32134  -0.31695  -0.30637
  Beta  occ. eigenvalues --   -0.29928  -0.29251  -0.27997  -0.27326  -0.26327
  Beta  occ. eigenvalues --   -0.25667  -0.24836  -0.24243  -0.23676  -0.21245
  Beta  occ. eigenvalues --   -0.17253  -0.16064  -0.15241  -0.14796  -0.13192
  Beta  occ. eigenvalues --   -0.11984
  Beta virt. eigenvalues --    0.06306   0.06752   0.07027   0.07190   0.07639
  Beta virt. eigenvalues --    0.08312   0.08591   0.08734   0.08970   0.09190
  Beta virt. eigenvalues --    0.09878   0.10614   0.10993   0.11515   0.11603

 Mulliken charges and spin densities:
               1          2
     1  C   -0.159066  -0.406795
     2  C   -0.046512  -0.350042
     3  S    0.101291  -0.259466
     4  C    1.324377  -0.056875
     5  C   -0.731789   0.067464
     6  C   -0.376348  -0.108221
     7  C    0.516722  -0.408888
     8  C   -0.502494   0.133058
     9  C   -0.271089  -0.233508
    10  C    0.466979  -0.564673
    11  C    0.075880   0.006609
    12  C   -1.032060   1.444681
    13  C    0.636309  -1.348082
    14  C   -0.294828   0.316545
    15  S    0.237076  -0.561238
    16  N   -0.242462  -0.129560
    17  H    0.098856   0.027798
    18  H   -0.120497   0.243973
    19  H    0.045131   0.120102
    20  H   -0.365773   0.561696
    21  H    0.080145   0.090603
    22  H    0.121934   0.053156
    23  H    0.094621   0.092624
    24  H    0.064320   0.119605
    25  H   -0.068758   0.242188
    26  H   -0.360262   0.602263
    27  H    0.168467   0.003088
    28  H   -0.358831   0.507627
    29  H   -0.256089   0.482112
    30  H    0.005953   0.260233
    31  H    0.148796   0.051927
 Sum of Mulliken charges =  -1.00000   1.00000

 Dipole moment (field-independent basis, Debye):
    X=              1.3018    Y=             -0.7602    Z=              1.1765  Tot=              1.9122
 Quadrupole moment (field-independent basis, Debye-Ang):
   XX=           -204.4921   YY=           -156.1840   ZZ=           -133.8943
   XY=              4.5170   XZ=             -4.3807   YZ=             -3.4152

 Summary of Natural Population Analysis:

                                       Natural Population
                Natural  -----------------------------------------------
    Atom  No    Charge         Core      Valence    Rydberg      Total
 -----------------------------------------------------------------------
      C    1   -0.29370      0.99965     2.28699    0.00706     3.29370
      C    2   -0.24319      0.99961     2.23241    0.01117     3.24319
      S    3    0.09314      4.99956     2.88771    0.01959     7.90686
      C    4   -0.08170      0.99940     2.07011    0.01219     3.08170
      C    5   -0.09472      0.99949     2.08523    0.01000     3.09472
      C    6   -0.10211      0.99950     2.09423    0.00837     3.10211
      C    7    0.00473      0.99950     1.98407    0.01171     2.99527
      C    8   -0.09672      0.99952     2.08815    0.00905     3.09672
      C    9   -0.10062      0.99949     2.09068    0.01046     3.10062
      C   10   -0.03780      0.99950     2.02291    0.01539     3.03780
      C   11   -0.09635      0.99948     2.08139    0.01548     3.09635
      C   12   -0.13068      0.99945     2.12211    0.00913     3.13068
      C   13   -0.12701      0.99954     2.11587    0.01160     3.12701
      C   14   -0.19042      0.99954     2.18003    0.01085     3.19042
      S   15    0.20528      4.99939     2.77451    0.02082     7.79472
      N   16   -0.41208      0.99978     2.90229    0.01001     3.91208
      H   17    0.09797      0.00000     0.40094    0.00109     0.40203
      H   18    0.09831      0.00000     0.40062    0.00107     0.40169
      H   19    0.10375      0.00000     0.39497    0.00127     0.39625
      H   20    0.10320      0.00000     0.39486    0.00194     0.39680
      H   21    0.09864      0.00000     0.40002    0.00134     0.40136
      H   22    0.10119      0.00000     0.39775    0.00106     0.39881
      H   23    0.11069      0.00000     0.38803    0.00128     0.38931
      H   24    0.10422      0.00000     0.39440    0.00138     0.39578
      H   25    0.10177      0.00000     0.39714    0.00110     0.39823
      H   26    0.10710      0.00000     0.38952    0.00338     0.39290
      H   27    0.11214      0.00000     0.38674    0.00112     0.38786
      H   28    0.10637      0.00000     0.39230    0.00133     0.39363
      H   29    0.10813      0.00000     0.39076    0.00111     0.39187
      H   30    0.17760      0.00000     0.32042    0.00198     0.32240
      H   31    0.17288      0.00000     0.32529    0.00183     0.32712
 =======================================================================
   * Total *   -0.00000     23.99239    41.79245    0.21516    66.00000

 Normal termination of Gaussian 16 at Fri Dec 11 00:01:55 2020.
