 Gaussian 16, Revision A.03,

 -----------------------------------------------------------
 # opt freq B3LYP/6-31G(d) empiricaldispersion=gd3bj scf=xqc
 -----------------------------------------------------------

 -----------------------------
 CID_3055796_JID_2785_neutraal
 -----------------------------
 Symbolic Z-matrix:
 Charge =  0 Multiplicity = 1

 SCF Done:  E(RB3LYP) =  -533.642471941     A.U. after   15 cycles
 SCF Done:  E(RB3LYP) =  -533.645759741     A.U. after   13 cycles
 SCF Done:  E(RB3LYP) =  -533.646118255     A.U. after   13 cycles
 SCF Done:  E(RB3LYP) =  -533.647093720     A.U. after   12 cycles
 SCF Done:  E(RB3LYP) =  -533.647462874     A.U. after   12 cycles
 SCF Done:  E(RB3LYP) =  -533.647530585     A.U. after   12 cycles
 SCF Done:  E(RB3LYP) =  -533.647538117     A.U. after    9 cycles
 SCF Done:  E(RB3LYP) =  -533.647540018     A.U. after    9 cycles
 SCF Done:  E(RB3LYP) =  -533.647540284     A.U. after    8 cycles
 SCF Done:  E(RB3LYP) =  -533.647540371     A.U. after    7 cycles
 SCF Done:  E(RB3LYP) =  -533.647540395     A.U. after    7 cycles
 Optimization completed.
    -- Stationary point found.
 Normal termination of Gaussian 16 at Wed Dec  9 18:03:21 2020.

 --------------------------------------------------------------------
 #N Geom=AllCheck Guess=TCheck SCRF=Check GenChk RB3LYP/6-31G(d) Freq
 --------------------------------------------------------------------

 Structure from the checkpoint file:  "JID_2785.chk"
 -----------------------------
 CID_3055796_JID_2785_neutraal
 -----------------------------
 Charge =  0 Multiplicity = 1

 SCF Done:  E(RB3LYP) =  -533.647540395     A.U. after    1 cycles

  Exact polarizability: 177.438  -9.771 103.857  -8.117  -0.846  58.970
 Approx polarizability: 248.762 -15.502 181.945 -19.199  -3.420  86.315

                      1                      2                      3
                      A                      A                      A
 Frequencies --     26.9413                38.2967                63.7628
 Red. masses --      4.5753                 3.7785                 2.9864
 Frc consts  --      0.0020                 0.0033                 0.0072
 IR Inten    --      0.6312                 0.5412                 0.2564

                      4                      5                      6
                      A                      A                      A
 Frequencies --    111.3650               138.3063               173.3697
 Red. masses --      2.8787                 4.3654                 5.0716
 Frc consts  --      0.0210                 0.0492                 0.0898
 IR Inten    --      1.0329                 1.3842                 0.5865

                      7                      8                      9
                      A                      A                      A
 Frequencies --    284.5688               311.6082               375.8694
 Red. masses --      5.7365                 3.3800                 2.3707
 Frc consts  --      0.2737                 0.1934                 0.1973
 IR Inten    --      4.0430                 8.7864                 1.7313

                     10                     11                     12
                      A                      A                      A
 Frequencies --    408.2724               425.9751               448.0703
 Red. masses --      3.5847                 4.3913                 2.3966
 Frc consts  --      0.3521                 0.4695                 0.2835
 IR Inten    --      0.3692                 4.2912                 0.7137

                     13                     14                     15
                      A                      A                      A
 Frequencies --    551.5617               596.2632               632.5556
 Red. masses --      4.8399                 3.2735                 6.3173
 Frc consts  --      0.8675                 0.6857                 1.4893
 IR Inten    --      2.3544                 9.1058                 8.4013

                     16                     17                     18
                      A                      A                      A
 Frequencies --    660.1334               759.1550               782.0987
 Red. masses --      2.0552                 1.9553                 5.1324
 Frc consts  --      0.5277                 0.6639                 1.8497
 IR Inten    --      8.6706                 8.5610                24.7368

                     19                     20                     21
                      A                      A                      A
 Frequencies --    800.3308               833.1905               916.0846
 Red. masses --      1.9134                 5.3149                 1.3279
 Frc consts  --      0.7221                 2.1739                 0.6566
 IR Inten    --     23.0025                10.4951                 7.8660

                     22                     23                     24
                      A                      A                      A
 Frequencies --    921.8090               938.8489               943.9380
 Red. masses --      2.5747                 1.8734                 1.3383
 Frc consts  --      1.2890                 0.9729                 0.7026
 IR Inten    --    113.5825                24.2464                10.9495

                     25                     26                     27
                      A                      A                      A
 Frequencies --    956.5449               980.5577              1003.4635
 Red. masses --      1.3459                 1.4224                 2.1088
 Frc consts  --      0.7256                 0.8058                 1.2511
 IR Inten    --     52.7650                 1.0039               114.1763

                     28                     29                     30
                      A                      A                      A
 Frequencies --   1010.5047              1012.4266              1030.2167
 Red. masses --      6.6195                 1.3069                 1.1806
 Frc consts  --      3.9825                 0.7892                 0.7383
 IR Inten    --      6.0666                 0.0820                62.5202

                     31                     32                     33
                      A                      A                      A
 Frequencies --   1072.8794              1081.6487              1129.1491
 Red. masses --      4.3732                 2.5843                 1.6152
 Frc consts  --      2.9659                 1.7814                 1.2133
 IR Inten    --    139.1768                23.0235                19.2306

                     34                     35                     36
                      A                      A                      A
 Frequencies --   1189.1975              1191.2731              1246.0193
 Red. masses --      1.7282                 1.2569                 3.2220
 Frc consts  --      1.4400                 1.0510                 2.9473
 IR Inten    --      1.0752                 0.5837                 2.3976

                     37                     38                     39
                      A                      A                      A
 Frequencies --   1307.2853              1323.9382              1329.0626
 Red. masses --      1.1569                 1.5754                 1.3184
 Frc consts  --      1.1649                 1.6270                 1.3721
 IR Inten    --      7.3352                21.4528                 1.1806

                     40                     41                     42
                      A                      A                      A
 Frequencies --   1334.0893              1369.2737              1399.1883
 Red. masses --      4.1022                 1.2991                 1.2624
 Frc consts  --      4.3016                 1.4351                 1.4562
 IR Inten    --      0.2950                24.9896                17.2252

                     43                     44                     45
                      A                      A                      A
 Frequencies --   1476.0323              1482.8740              1505.9016
 Red. masses --      1.1786                 2.1734                 1.1336
 Frc consts  --      1.5129                 2.8158                 1.5147
 IR Inten    --     11.7955                19.6398                16.3160

                     46                     47                     48
                      A                      A                      A
 Frequencies --   1508.7039              1627.9254              1641.4776
 Red. masses --      2.1541                 5.2780                 5.4398
 Frc consts  --      2.8888                 8.2411                 8.6358
 IR Inten    --     18.7417                14.7497                18.7020

                     49                     50                     51
                      A                      A                      A
 Frequencies --   1701.8192              1738.0974              3060.9431
 Red. masses --      9.0345                 4.5262                 1.0572
 Frc consts  --     15.4163                 8.0562                 5.8363
 IR Inten    --      4.1108                 0.8385                47.0238

                     52                     53                     54
                      A                      A                      A
 Frequencies --   3112.7982              3158.3889              3168.6394
 Red. masses --      1.1075                 1.0622                 1.0893
 Frc consts  --      6.3227                 6.2429                 6.4437
 IR Inten    --     14.7982                17.4545                 6.4836

                     55                     56                     57
                      A                      A                      A
 Frequencies --   3171.2883              3196.2811              3196.6568
 Red. masses --      1.0892                 1.0890                 1.0891
 Frc consts  --      6.4540                 6.5547                 6.5571
 IR Inten    --     29.2958                10.4229                 7.0762

                     58                     59                     60
                      A                      A                      A
 Frequencies --   3216.1813              3242.3116              3286.0174
 Red. masses --      1.0965                 1.1161                 1.0921
 Frc consts  --      6.6826                 6.9129                 6.9479
 IR Inten    --     22.5456                16.8530                 1.2923

 - Thermochemistry -
 -------------------
 Temperature   298.150 Kelvin.  Pressure   1.00000 Atm.
 Atom     1 has atomic number  6 and mass  12.00000

 Molecular mass:   162.07931 amu.
 Principal axes and moments of inertia in atomic units:
                           1         2         3
     Eigenvalues --   651.260714374.284624737.45177
           X            0.99999  -0.00409   0.00154
           Y            0.00410   0.99997  -0.00592
           Z           -0.00152   0.00593   0.99998
 This molecule is an asymmetric top.
 Rotational symmetry number  1.
 Warning -- assumption of classical behavior for rotation
           may cause significant error
 Rotational temperatures (Kelvin)      0.13299     0.01980     0.01828
 Rotational constants (GHZ):           2.77115     0.41258     0.38095
 Zero-point vibrational energy     464159.6 (Joules/Mol)
                                  110.93682 (Kcal/Mol)
 Warning -- explicit consideration of  14 degrees of freedom as
           vibrations may cause significant error
 Vibrational temperatures:     38.76    55.10    91.74   160.23   198.99
          (Kelvin)            249.44   409.43   448.33   540.79   587.41
                              612.88   644.67   793.57   857.89   910.11
                              949.78  1092.25  1125.27  1151.50  1198.78
                             1318.04  1326.28  1350.79  1358.12  1376.25
                             1410.80  1443.76  1453.89  1456.66  1482.25
                             1543.63  1556.25  1624.59  1710.99  1713.98
                             1792.74  1880.89  1904.85  1912.22  1919.46
                             1970.08  2013.12  2123.68  2133.52  2166.66
                             2170.69  2342.22  2361.72  2448.54  2500.73
                             4404.01  4478.62  4544.22  4558.97  4562.78
                             4598.74  4599.28  4627.37  4664.96  4727.85

 Zero-point correction=                           0.176789 (Hartree/Particle)
 Thermal correction to Energy=                    0.187757
 Thermal correction to Enthalpy=                  0.188701
 Thermal correction to Gibbs Free Energy=         0.137841
 Sum of electronic and zero-point Energies=           -533.470751
 Sum of electronic and thermal Energies=              -533.459784
 Sum of electronic and thermal Enthalpies=            -533.458839
 Sum of electronic and thermal Free Energies=         -533.509699

                     E (Thermal)             CV                S
                      KCal/Mol        Cal/Mol-Kelvin    Cal/Mol-Kelvin
 Total                  117.819             40.244            107.043
 Electronic               0.000              0.000              0.000
 Translational            0.889              2.981             41.157
 Rotational               0.889              2.981             30.979
 Vibrational            116.042             34.282             34.906
 Vibration     1          0.593              1.984              6.043
 Vibration     2          0.594              1.982              5.345
 Vibration     3          0.597              1.972              4.337
 Vibration     4          0.607              1.940              3.245
 Vibration     5          0.614              1.915              2.827
 Vibration     6          0.627              1.875              2.399
 Vibration     7          0.683              1.702              1.506
 Vibration     8          0.700              1.652              1.354
 Vibration     9          0.747              1.522              1.056
 Vibration    10          0.773              1.452              0.933
 Vibration    11          0.788              1.414              0.872
 Vibration    12          0.807              1.365              0.802
 Vibration    13          0.907              1.136              0.541
 Vibration    14          0.954              1.040              0.456

 Optimization completed.
    -- Stationary point found.
 Normal termination of Gaussian 16 at Wed Dec  9 18:07:56 2020.

 ----------------------------------------------------------------------
 # B3LYP/6-311++G(d,p) empiricaldispersion=gd3bj scf=xqc pop=npa geom=c
 heck
 ----------------------------------------------------------------------

 -------------------------------------
 CID_3055796_JID_2785_Energie_neutraal
 -------------------------------------
 Structure from the checkpoint file:  "JID_2785.chk"
 Charge =  0 Multiplicity = 1

 SCF Done:  E(RB3LYP) =  -533.793805066     A.U. after   15 cycles
 Normal termination of Gaussian 16 at Wed Dec  9 18:09:55 2020.

 ----------------------------------------------------------------------
 # B3LYP/6-311++G(d,p) empiricaldispersion=gd3bj scf=xqc pop=npa geom=c
 heck
 ----------------------------------------------------------------------

 -----------------------------------
 CID_3055796_JID_2785_Energie_kation
 -----------------------------------
 Structure from the checkpoint file:  "JID_2785.chk"
 Charge =  1 Multiplicity = 2

 SCF Done:  E(UB3LYP) =  -533.478732844     A.U. after   24 cycles
 Normal termination of Gaussian 16 at Wed Dec  9 18:14:33 2020.
 Gaussian 16:  ES64L-G16RevA.03 25-Dec-2016

 ----------------------------------------------------------------------
 # B3LYP/6-311++G(d,p) empiricaldispersion=gd3bj scf=xqc pop=npa geom=c
 heck
 ----------------------------------------------------------------------

 ----------------------------------
 CID_3055796_JID_2785_Energie_anion
 ----------------------------------
 Structure from the checkpoint file:  "JID_2785.chk"
 Charge = -1 Multiplicity = 2

                         Standard orientation:
 ---------------------------------------------------------------------
 Center     Atomic      Atomic             Coordinates (Angstroms)
 Number     Number       Type             X           Y           Z
 ---------------------------------------------------------------------
      1          6           0        4.553667   -0.272232    0.830840
      2          6           0        3.507972    0.525027    0.620869
      3          6           0        2.809620    0.655368   -0.699262
      4          8           0        1.397209    0.408866   -0.591561
      5          7           0        1.183884   -0.965048   -0.481061
      6          6           0       -0.041008   -1.286518   -0.265960
      7          6           0       -1.270770   -0.497890   -0.083028
      8          6           0       -1.350381    0.905064   -0.106722
      9          6           0       -2.591517    1.505550    0.090202
     10          6           0       -3.710567    0.704294    0.301434
     11          6           0       -3.533917   -0.681590    0.307170
     12          7           0       -2.356673   -1.276724    0.122605
     13          1           0        4.955065   -0.901568    0.039621
     14          1           0        5.047340   -0.329690    1.796887
     15          1           0        3.107709    1.137281    1.428412
     16          1           0        2.860827    1.683648   -1.075387
     17          1           0        3.239229   -0.021074   -1.445376
     18          1           0       -0.198818   -2.360722   -0.204583
     19          1           0       -0.460608    1.492880   -0.274504
     20          1           0       -2.679776    2.588291    0.077108
     21          1           0       -4.695094    1.134143    0.457557
     22          1           0       -4.382621   -1.344151    0.468677
 ---------------------------------------------------------------------

 SCF Done:  E(UB3LYP) =  -533.797243712     A.U. after   33 cycles
 SCF Done:  E(UB3LYP) =  -533.797243712     a.u. after    1 cycles

 The electronic state is 2-A.
 Alpha  occ. eigenvalues --  -19.01098 -14.16764 -14.12821 -10.10285 -10.07319
 Alpha  occ. eigenvalues --  -10.06725 -10.04220 -10.02679 -10.02031 -10.01715
 Alpha  occ. eigenvalues --  -10.00829 -10.00325  -0.93390  -0.77275  -0.71302
 Alpha  occ. eigenvalues --   -0.66950  -0.63614  -0.59812  -0.55762  -0.48571
 Alpha  occ. eigenvalues --   -0.46346  -0.45900  -0.42342  -0.37918  -0.35277
 Alpha  occ. eigenvalues --   -0.34522  -0.33702  -0.31829  -0.31186  -0.28696
 Alpha  occ. eigenvalues --   -0.27278  -0.25612  -0.24523  -0.23931  -0.22496
 Alpha  occ. eigenvalues --   -0.21751  -0.21293  -0.16766  -0.13906  -0.12234
 Alpha  occ. eigenvalues --   -0.10947  -0.09249  -0.08423   0.05941
 Alpha virt. eigenvalues --    0.07961   0.09194   0.09510   0.10050   0.10108
 Alpha virt. eigenvalues --    0.11311   0.12315   0.12672   0.13058   0.13282
 Alpha virt. eigenvalues --    0.14059   0.14937   0.16578   0.17663   0.17999

  Beta  occ. eigenvalues --  -19.01010 -14.16121 -14.12475 -10.10287 -10.07317
  Beta  occ. eigenvalues --  -10.06719 -10.04319 -10.02405 -10.01969 -10.01636
  Beta  occ. eigenvalues --  -10.00782  -9.99973  -0.92996  -0.76685  -0.70798
  Beta  occ. eigenvalues --   -0.66762  -0.63098  -0.59315  -0.55665  -0.47829
  Beta  occ. eigenvalues --   -0.46158  -0.45824  -0.42069  -0.37727  -0.35165
  Beta  occ. eigenvalues --   -0.34395  -0.33535  -0.31463  -0.30954  -0.28544
  Beta  occ. eigenvalues --   -0.26898  -0.25483  -0.23771  -0.23194  -0.22236
  Beta  occ. eigenvalues --   -0.21070  -0.20632  -0.16689  -0.12252  -0.11069
  Beta  occ. eigenvalues --   -0.10300  -0.08800  -0.06417
  Beta virt. eigenvalues --    0.07919   0.09198   0.09470   0.10010   0.10031
  Beta virt. eigenvalues --    0.11255   0.12286   0.12579   0.12627   0.13257
  Beta virt. eigenvalues --    0.13510   0.14056   0.14890   0.16778   0.17717

 Mulliken charges and spin densities:
               1          2
     1  C   -0.520694  -0.003167
     2  C    0.359235  -0.003636
     3  C   -0.403797  -0.013126
     4  O    0.091398   0.015364
     5  N   -0.355758   0.291191
     6  C   -0.334760   0.009702
     7  C   -0.308725   0.221017
     8  C    0.336613   0.075997
     9  C   -0.872973   0.023468
    10  C    0.024020   0.311302
    11  C   -0.208498  -0.078509
    12  N   -0.045015   0.144551
    13  H    0.111232  -0.000714
    14  H    0.071538   0.015813
    15  H    0.149659   0.004723
    16  H    0.127615  -0.002216
    17  H    0.112196   0.019364
    18  H    0.149638  -0.007027
    19  H    0.184065  -0.001591
    20  H    0.108220  -0.005133
    21  H    0.099699  -0.022056
    22  H    0.125092   0.004679
 Sum of Mulliken charges =  -1.00000   1.00000

 Dipole moment (field-independent basis, Debye):
    X=              4.2868    Y=              3.0266    Z=              0.3855  Tot=              5.2617
 Quadrupole moment (field-independent basis, Debye-Ang):
   XX=           -105.4400   YY=            -83.4811   ZZ=            -79.9838
   XY=              0.1951   XZ=              0.5955   YZ=             -0.6471

 Summary of Natural Population Analysis:

                                       Natural Population
                Natural  -----------------------------------------------
    Atom  No    Charge         Core      Valence    Rydberg      Total
 -----------------------------------------------------------------------
      C    1   -0.19435      0.99958     2.18730    0.00748     3.19435
      C    2   -0.08503      0.99957     2.07603    0.00943     3.08503
      C    3   -0.02429      0.99957     2.01088    0.01384     3.02429
      O    4   -0.22820      0.99989     3.21400    0.01431     4.22820
      N    5   -0.01007      0.99964     2.49322    0.01720     3.51007
      C    6    0.02009      0.99964     1.96285    0.01743     2.97991
      C    7    0.10375      0.99952     1.88144    0.01528     2.89625
      C    8   -0.10523      0.99953     2.09736    0.00834     3.10523
      C    9   -0.09086      0.99957     2.08198    0.00931     3.09086
      C   10   -0.07452      0.99957     2.06497    0.00998     3.07452
      C   11   -0.00552      0.99960     1.99057    0.01534     3.00552
      N   12   -0.19085      0.99969     2.67938    0.01177     3.69085
      H   13    0.08908      0.00000     0.40972    0.00121     0.41092
      H   14    0.08768      0.00000     0.41110    0.00122     0.41232
      H   15    0.09177      0.00000     0.40654    0.00169     0.40823
      H   16    0.08677      0.00000     0.41223    0.00100     0.41323
      H   17    0.08481      0.00000     0.41236    0.00283     0.41519
      H   18    0.09037      0.00000     0.40829    0.00134     0.40963
      H   19    0.10713      0.00000     0.39109    0.00178     0.39287
      H   20    0.08654      0.00000     0.41230    0.00116     0.41346
      H   21    0.08520      0.00000     0.41352    0.00128     0.41480
      H   22    0.07573      0.00000     0.42283    0.00144     0.42427
 =======================================================================
   * Total *   -0.00000     11.99538    30.83995    0.16467    43.00000

 Normal termination of Gaussian 16 at Wed Dec  9 18:20:26 2020.
