 Gaussian 16, Revision A.03,

 -----------------------------------------------------------
 # opt freq B3LYP/6-31G(d) empiricaldispersion=gd3bj scf=xqc
 -----------------------------------------------------------

 ------------------------------
 CID_84650085_JID_1897_neutraal
 ------------------------------
 Symbolic Z-matrix:
 Charge =  0 Multiplicity = 1

 SCF Done:  E(RB3LYP) =  -463.284913225     A.U. after   13 cycles
 SCF Done:  E(RB3LYP) =  -463.293185639     A.U. after   11 cycles
 SCF Done:  E(RB3LYP) =  -463.294440111     A.U. after   11 cycles
 SCF Done:  E(RB3LYP) =  -463.294838685     A.U. after    9 cycles
 SCF Done:  E(RB3LYP) =  -463.295029243     A.U. after   10 cycles
 SCF Done:  E(RB3LYP) =  -463.295138955     A.U. after   10 cycles
 SCF Done:  E(RB3LYP) =  -463.295298790     A.U. after   10 cycles
 SCF Done:  E(RB3LYP) =  -463.295519493     A.U. after   11 cycles
 SCF Done:  E(RB3LYP) =  -463.296394186     A.U. after   11 cycles
 SCF Done:  E(RB3LYP) =  -463.296639708     A.U. after   11 cycles
 SCF Done:  E(RB3LYP) =  -463.299775136     A.U. after    8 cycles
 SCF Done:  E(RB3LYP) =  -463.299775919     A.U. after    7 cycles
 SCF Done:  E(RB3LYP) =  -463.299776434     A.U. after    7 cycles
 SCF Done:  E(RB3LYP) =  -463.299776561     A.U. after    7 cycles
 SCF Done:  E(RB3LYP) =  -463.299776582     A.U. after    6 cycles
 SCF Done:  E(RB3LYP) =  -463.299776582     A.U. after    6 cycles
 Optimization completed.
    -- Stationary point found.

 1\1\GINC-NODE123\FOpt\RB3LYP\6-31G(d)\C9H18N2\VSC10255\08-Dec-2020\0\\
 # opt freq B3LYP/6-31G(d) empiricaldispersion=gd3bj scf=xqc\\CID_84650
 085_JID_1897_neutraal\\0,1\C,0.3857950615,0.5111866073,-0.1669836865\C
 ,0.1906462134,-0.4059947476,1.0406660952\C,1.0748199213,0.0148447225,2
 .235184877\N,0.699936949,1.3154068774,2.7801485901\C,0.1446111631,1.28
 64117325,4.1327840715\C,-0.0487035576,2.7121219848,4.6591112475\C,-0.3
 190649459,3.6776054247,3.4696114027\C,1.2235687167,3.6661059048,3.2701
 13557\C,1.3391467108,3.3899051552,4.7909013852\C,1.6341967108,2.405417

 Normal termination of Gaussian 16 at Tue Dec  8 20:55:13 2020.

 --------------------------------------------------------------------
 #N Geom=AllCheck Guess=TCheck SCRF=Check GenChk RB3LYP/6-31G(d) Freq
 --------------------------------------------------------------------

 Structure from the checkpoint file:  "JID_1897.chk"
 ------------------------------
 CID_84650085_JID_1897_neutraal
 ------------------------------
 Charge =  0 Multiplicity = 1

 SCF Done:  E(RB3LYP) =  -463.299776582     A.U. after    1 cycles

  Exact polarizability: 116.787   0.646 100.614  -2.328  -0.163  94.039
 Approx polarizability: 144.947  -0.596 145.929  -2.445  -1.454 141.943

                      1                      2                      3
                      A                      A                      A
 Frequencies --     46.7740                75.2333                85.9468
 Red. masses --      3.1134                 3.3897                 2.7526
 Frc consts  --      0.0040                 0.0113                 0.0120
 IR Inten    --      0.3603                 0.7582                 0.5183

                      4                      5                      6
                      A                      A                      A
 Frequencies --    177.9213               271.7539               282.7801
 Red. masses --      3.0342                 1.1135                 3.1179
 Frc consts  --      0.0566                 0.0484                 0.1469
 IR Inten    --      0.2174                 1.0827                 0.7394

                      7                      8                      9
                      A                      A                      A
 Frequencies --    296.8155               311.5932               341.0402
 Red. masses --      2.4243                 1.8765                 1.1788
 Frc consts  --      0.1258                 0.1073                 0.0808
 IR Inten    --     15.4427                 0.4231                32.3116

                     10                     11                     12
                      A                      A                      A
 Frequencies --    392.3810               407.1548               420.1793
 Red. masses --      2.5765                 1.7557                 1.9180
 Frc consts  --      0.2337                 0.1715                 0.1995
 IR Inten    --      0.2144                 1.0500                 1.9411

                     13                     14                     15
                      A                      A                      A
 Frequencies --    431.3464               523.1011               533.0617
 Red. masses --      2.2752                 3.8971                 2.1391
 Frc consts  --      0.2494                 0.6283                 0.3581
 IR Inten    --      8.6828                 0.2013                 3.4541

                     16                     17                     18
                      A                      A                      A
 Frequencies --    659.7566               778.3005               826.4397
 Red. masses --      2.8278                 4.2394                 3.0195
 Frc consts  --      0.7252                 1.5130                 1.2151
 IR Inten    --      4.3276                10.6628                 4.5236

                     19                     20                     21
                      A                      A                      A
 Frequencies --    837.9389               838.9332               885.9725
 Red. masses --      1.7447                 2.2720                 2.5013
 Frc consts  --      0.7218                 0.9421                 1.1568
 IR Inten    --      0.1617                 0.8070                 0.1853

                     22                     23                     24
                      A                      A                      A
 Frequencies --    898.2531               909.9038               919.6652
 Red. masses --      2.7465                 1.5983                 1.9214
 Frc consts  --      1.3056                 0.7797                 0.9575
 IR Inten    --      0.2891                58.7799                 8.0674

                     25                     26                     27
                      A                      A                      A
 Frequencies --    940.8412               958.4789               967.0682
 Red. masses --      1.9851                 2.1543                 1.6256
 Frc consts  --      1.0353                 1.1661                 0.8957
 IR Inten    --    131.2548                 0.1254                 2.6678

                     28                     29                     30
                      A                      A                      A
 Frequencies --    993.2085              1001.4592              1038.2847
 Red. masses --      1.2131                 1.8056                 1.4786
 Frc consts  --      0.7051                 1.0669                 0.9391
 IR Inten    --      0.6706                 0.2882                 6.9873

                     31                     32                     33
                      A                      A                      A
 Frequencies --   1070.8073              1081.7207              1091.1147
 Red. masses --      2.1681                 1.5432                 1.7071
 Frc consts  --      1.4647                 1.0639                 1.1974
 IR Inten    --     45.5892                25.1005                19.6740

                     34                     35                     36
                      A                      A                      A
 Frequencies --   1110.5647              1119.9704              1129.3380
 Red. masses --      1.6241                 1.1071                 1.7337
 Frc consts  --      1.1802                 0.8182                 1.3028
 IR Inten    --     17.7721                 0.2317                 0.5319

                     37                     38                     39
                      A                      A                      A
 Frequencies --   1146.9199              1167.1108              1197.2819
 Red. masses --      1.4664                 1.5397                 2.3946
 Frc consts  --      1.1365                 1.2357                 2.0224
 IR Inten    --      0.9014                 0.8605                47.7416

                     40                     41                     42
                      A                      A                      A
 Frequencies --   1238.0928              1249.2781              1257.5971
 Red. masses --      1.5103                 1.4499                 1.3479
 Frc consts  --      1.3640                 1.3333                 1.2560
 IR Inten    --      1.9854                 3.5120                 1.7570

                     43                     44                     45
                      A                      A                      A
 Frequencies --   1278.2400              1283.6573              1284.9219
 Red. masses --      1.3621                 1.6041                 1.5706
 Frc consts  --      1.3113                 1.5573                 1.5279
 IR Inten    --      0.6865                 8.4371                 1.0369

                     46                     47                     48
                      A                      A                      A
 Frequencies --   1323.5922              1338.5709              1357.0302
 Red. masses --      1.4801                 1.6516                 1.5050
 Frc consts  --      1.5278                 1.7435                 1.6330
 IR Inten    --      0.4925                12.1971                 4.9335

                     49                     50                     51
                      A                      A                      A
 Frequencies --   1365.9148              1369.8979              1402.6708
 Red. masses --      1.4948                 1.8386                 1.3737
 Frc consts  --      1.6431                 2.0329                 1.5924
 IR Inten    --      1.8834                 0.5821                32.9468

                     52                     53                     54
                      A                      A                      A
 Frequencies --   1413.0144              1421.3654              1436.5489
 Red. masses --      1.4614                 1.2706                 1.3941
 Frc consts  --      1.7192                 1.5124                 1.6951
 IR Inten    --     11.6637                14.7472                 5.9356

                     55                     56                     57
                      A                      A                      A
 Frequencies --   1450.3209              1504.3708              1510.0329
 Red. masses --      1.4462                 1.0946                 1.0759
 Frc consts  --      1.7922                 1.4596                 1.4454
 IR Inten    --     16.8277                 2.9955                 3.3592

                     58                     59                     60
                      A                      A                      A
 Frequencies --   1520.5538              1534.5264              1535.2181
 Red. masses --      1.0545                 1.0580                 1.1287
 Frc consts  --      1.4365                 1.4679                 1.5674
 IR Inten    --      3.8403                 4.5047                 5.3988

                     61                     62                     63
                      A                      A                      A
 Frequencies --   1547.2302              1558.6710              1697.3124
 Red. masses --      1.0767                 1.0921                 1.0899
 Frc consts  --      1.5186                 1.5632                 1.8500
 IR Inten    --      1.4885                 1.2707                19.8414

                     64                     65                     66
                      A                      A                      A
 Frequencies --   2917.6322              2926.7214              2990.2682
 Red. masses --      1.0739                 1.0744                 1.0601
 Frc consts  --      5.3860                 5.4221                 5.5848
 IR Inten    --     70.2459                90.6608                55.6074

                     67                     68                     69
                      A                      A                      A
 Frequencies --   3029.6403              3033.4682              3039.1621
 Red. masses --      1.0888                 1.0912                 1.0945
 Frc consts  --      5.8880                 5.9161                 5.9565
 IR Inten    --     50.6405                13.8221                70.1990

                     70                     71                     72
                      A                      A                      A
 Frequencies --   3049.4277              3053.3331              3057.2441
 Red. masses --      1.0454                 1.0591                 1.0768
 Frc consts  --      5.7278                 5.8177                 5.9300
 IR Inten    --      8.0851                42.3428                59.9848

                     73                     74                     75
                      A                      A                      A
 Frequencies --   3076.2144              3092.4079              3095.3955
 Red. masses --      1.0608                 1.0871                 1.0886
 Frc consts  --      5.9145                 6.1248                 6.1453
 IR Inten    --     22.6061               104.1279                12.8999

                     76                     77                     78
                      A                      A                      A
 Frequencies --   3112.6815              3115.0943              3134.4383
 Red. masses --      1.1040                 1.1017                 1.1090
 Frc consts  --      6.3022                 6.2989                 6.4195
 IR Inten    --     49.3631                41.1064                43.8328

                     79                     80                     81
                      A                      A                      A
 Frequencies --   3136.8219              3437.1562              3524.5577
 Red. masses --      1.1017                 1.0489                 1.0914
 Frc consts  --      6.3867                 7.3013                 7.9882
 IR Inten    --     26.4712                 3.5189                 1.5117

 - Thermochemistry -
 -------------------
 Temperature   298.150 Kelvin.  Pressure   1.00000 Atm.
 Atom     1 has atomic number  6 and mass  12.00000

 Molecular mass:   154.14700 amu.
 Principal axes and moments of inertia in atomic units:
                           1         2         3
     Eigenvalues --   812.215482589.413742764.46550
           X            0.99996   0.00875  -0.00159
           Y           -0.00870   0.99960   0.02676
           Z            0.00182  -0.02675   0.99964
 This molecule is an asymmetric top.
 Rotational symmetry number  1.
 Warning -- assumption of classical behavior for rotation
           may cause significant error
 Rotational temperatures (Kelvin)      0.10664     0.03345     0.03133
 Rotational constants (GHZ):           2.22200     0.69697     0.65284
 Zero-point vibrational energy     704999.5 (Joules/Mol)
                                  168.49892 (Kcal/Mol)
 Warning -- explicit consideration of  15 degrees of freedom as
           vibrations may cause significant error
 Vibrational temperatures:     67.30   108.24   123.66   255.99   390.99
          (Kelvin)            406.86   427.05   448.31   490.68   564.55
                              585.80   604.54   620.61   752.63   766.96
                              949.24  1119.80  1189.06  1205.61  1207.04
                             1274.72  1292.39  1309.15  1323.19  1353.66
                             1379.04  1391.40  1429.01  1440.88  1493.86
                             1540.65  1556.35  1569.87  1597.85  1611.39
                             1624.87  1650.16  1679.21  1722.62  1781.34
                             1797.43  1809.40  1839.10  1846.90  1848.72
                             1904.35  1925.91  1952.46  1965.25  1970.98
                             2018.13  2033.01  2045.03  2066.87  2086.69
                             2164.45  2172.60  2187.74  2207.84  2208.84
                             2226.12  2242.58  2442.05  4197.82  4210.90
                             4302.33  4358.98  4364.48  4372.68  4387.45
                             4393.07  4398.69  4425.99  4449.29  4453.58
                             4478.45  4481.93  4509.76  4513.19  4945.30
                             5071.05

 Zero-point correction=                           0.268520 (Hartree/Particle)
 Thermal correction to Energy=                    0.279302
 Thermal correction to Enthalpy=                  0.280246
 Thermal correction to Gibbs Free Energy=         0.232057
 Sum of electronic and zero-point Energies=           -463.031256
 Sum of electronic and thermal Energies=              -463.020474
 Sum of electronic and thermal Enthalpies=            -463.019530
 Sum of electronic and thermal Free Energies=         -463.067720

                     E (Thermal)             CV                S
                      KCal/Mol        Cal/Mol-Kelvin    Cal/Mol-Kelvin
 Total                  175.265             42.962            101.424
 Electronic               0.000              0.000              0.000
 Translational            0.889              2.981             41.008
 Rotational               0.889              2.981             30.143
 Vibrational            173.487             37.000             30.274
 Vibration     1          0.595              1.979              4.949
 Vibration     2          0.599              1.966              4.012
 Vibration     3          0.601              1.959              3.750
 Vibration     4          0.628              1.869              2.350
 Vibration     5          0.675              1.725              1.585
 Vibration     6          0.682              1.706              1.517
 Vibration     7          0.690              1.680              1.435
 Vibration     8          0.700              1.652              1.354
 Vibration     9          0.721              1.593              1.207
 Vibration    10          0.760              1.486              0.991
 Vibration    11          0.772              1.455              0.937
 Vibration    12          0.783              1.426              0.891
 Vibration    13          0.792              1.402              0.854
 Vibration    14          0.878              1.199              0.603
 Vibration    15          0.888              1.177              0.580

 Optimization completed.
    -- Stationary point found.

 1\1\GINC-NODE123\Freq\RB3LYP\6-31G(d)\C9H18N2\VSC10255\08-Dec-2020\0\\
 #N Geom=AllCheck Guess=TCheck SCRF=Check GenChk RB3LYP/6-31G(d) Freq\\
 CID_84650085_JID_1897_neutraal\\0,1\C,0.3857950615,0.5111866073,-0.166
 9836865\C,0.1906462134,-0.4059947476,1.0406660952\C,1.0748199213,0.014
 8447225,2.235184877\N,0.699936949,1.3154068774,2.7801485901\C,0.144611
 1631,1.2864117325,4.1327840715\C,-0.0487035576,2.7121219848,4.65911124
 75\C,-0.3190649459,3.6776054247,3.4696114027\C,1.2235687167,3.66610590
 48,3.270113557\C,1.3391467108,3.3899051552,4.7909013852\C,1.6341967108

 Normal termination of Gaussian 16 at Tue Dec  8 21:03:31 2020.

 ----------------------------------------------------------------------
 # B3LYP/6-311++G(d,p) empiricaldispersion=gd3bj scf=xqc pop=npa geom=c
 heck
 ----------------------------------------------------------------------

 --------------------------------------
 CID_84650085_JID_1897_Energie_neutraal
 --------------------------------------
 Structure from the checkpoint file:  "JID_1897.chk"
 Charge =  0 Multiplicity = 1

 SCF Done:  E(RB3LYP) =  -463.432005006     A.U. after   14 cycles
 Normal termination of Gaussian 16 at Tue Dec  8 21:07:03 2020.

 ----------------------------------------------------------------------
 # B3LYP/6-311++G(d,p) empiricaldispersion=gd3bj scf=xqc pop=npa geom=c
 heck
 ----------------------------------------------------------------------

 ------------------------------------
 CID_84650085_JID_1897_Energie_kation
 ------------------------------------
 Structure from the checkpoint file:  "JID_1897.chk"
 Charge =  1 Multiplicity = 2

 SCF Done:  E(UB3LYP) =  -463.151395940     A.U. after   20 cycles
 Normal termination of Gaussian 16 at Tue Dec  8 21:14:25 2020.
 Gaussian 16:  ES64L-G16RevA.03 25-Dec-2016

 -----------------------------------
 CID_84650085_JID_1897_Energie_anion
 -----------------------------------
 Structure from the checkpoint file:  "JID_1897.chk"
 Charge = -1 Multiplicity = 2

                         Standard orientation:
 ---------------------------------------------------------------------
 Center     Atomic      Atomic             Coordinates (Angstroms)
 Number     Number       Type             X           Y           Z
 ---------------------------------------------------------------------
      1          6           0       -2.743596   -1.245104   -0.523028
      2          6           0       -2.600105    0.083777    0.219406
      3          6           0       -1.350803    0.106832    1.127402
      4          7           0       -0.105203    0.048291    0.369750
      5          6           0        0.717940    1.255534    0.431815
      6          6           0        2.067003    1.015311   -0.253286
      7          6           0        1.901384   -0.045463   -1.379115
      8          6           0        1.985308   -1.094431   -0.233570
      9          6           0        2.846665   -0.064114    0.540349
     10          6           0        0.620474   -1.218632    0.452128
     11          7           0       -2.616673    1.170614   -0.769140
     12          1           0       -1.893677   -1.393754   -1.199215
     13          1           0       -3.657391   -1.245628   -1.123818
     14          1           0       -2.776131   -2.090101    0.174355
     15          1           0       -3.478586    0.219124    0.866527
     16          1           0       -1.369864    1.031715    1.722822
     17          1           0       -1.396904   -0.723062    1.850437
     18          1           0        0.170598    2.063391   -0.072493
     19          1           0        0.898782    1.594747    1.471136
     20          1           0        2.567605    1.961397   -0.480983
     21          1           0        2.784898   -0.085154   -2.023486
     22          1           0        0.992695   -0.017313   -1.986624
     23          1           0        2.411441   -2.080126   -0.443797
     24          1           0        2.767449   -0.050677    1.634429
     25          1           0        3.901163   -0.107323    0.249956
     26          1           0        0.772303   -1.550616    1.498370
     27          1           0        0.016882   -1.991403   -0.039835
     28          1           0       -2.573122    2.069725   -0.288380
     29          1           0       -1.750628    1.100461   -1.306263
 ---------------------------------------------------------------------

 SCF Done:  E(UB3LYP) =  -463.416826907     A.U. after   26 cycles

 The electronic state is 2-A.
 Alpha  occ. eigenvalues --  -14.19623 -14.18552 -10.09361 -10.08756 -10.08658
 Alpha  occ. eigenvalues --  -10.08634 -10.07043 -10.06954 -10.05868 -10.05789
 Alpha  occ. eigenvalues --  -10.05492  -0.83091  -0.78208  -0.73906  -0.64388
 Alpha  occ. eigenvalues --   -0.63825  -0.58965  -0.55408  -0.51693  -0.50416
 Alpha  occ. eigenvalues --   -0.46846  -0.41704  -0.40531  -0.38365  -0.36829
 Alpha  occ. eigenvalues --   -0.35407  -0.34689  -0.33489  -0.32679  -0.31492
 Alpha  occ. eigenvalues --   -0.30347  -0.28667  -0.27065  -0.26891  -0.26059
 Alpha  occ. eigenvalues --   -0.24818  -0.23398  -0.21809  -0.20574  -0.20153
 Alpha  occ. eigenvalues --   -0.18949  -0.14405  -0.10493   0.04532
 Alpha virt. eigenvalues --    0.06719   0.07195   0.08249   0.08894   0.09023
 Alpha virt. eigenvalues --    0.09778   0.10133   0.10483   0.11225   0.12120
 Alpha virt. eigenvalues --    0.12459   0.12599   0.13790   0.14513   0.14643

  Beta  occ. eigenvalues --  -14.19615 -14.18529 -10.09352 -10.08742 -10.08637
  Beta  occ. eigenvalues --  -10.08616 -10.07032 -10.06942 -10.05851 -10.05770
  Beta  occ. eigenvalues --  -10.05473  -0.83065  -0.78166  -0.73873  -0.64347
  Beta  occ. eigenvalues --   -0.63785  -0.58927  -0.55364  -0.51649  -0.50378
  Beta  occ. eigenvalues --   -0.46798  -0.41626  -0.40474  -0.38324  -0.36795
  Beta  occ. eigenvalues --   -0.35378  -0.34650  -0.33458  -0.32638  -0.31467
  Beta  occ. eigenvalues --   -0.30321  -0.28629  -0.27033  -0.26861  -0.26027
  Beta  occ. eigenvalues --   -0.24785  -0.23371  -0.21783  -0.20541  -0.20119
  Beta  occ. eigenvalues --   -0.18911  -0.14377  -0.10434
  Beta virt. eigenvalues --    0.06756   0.07654   0.08125   0.08645   0.09583
  Beta virt. eigenvalues --    0.09666   0.10170   0.10597   0.10867   0.11851
  Beta virt. eigenvalues --    0.12363   0.12961   0.13044   0.14022   0.14875

 Mulliken charges and spin densities:
               1          2
     1  C    0.425514  -0.985894
     2  C   -0.305809   0.249959
     3  C   -0.356894  -0.148626
     4  N    0.068441   0.088653
     5  C    0.687254  -1.262109
     6  C   -0.972939   1.338600
     7  C    1.421868  -2.117889
     8  C   -1.188263   1.528908
     9  C    1.784113  -2.330962
    10  C    0.435001  -0.998089
    11  N   -0.201524  -0.078990
    12  H    0.038982   0.113562
    13  H    0.045595   0.116774
    14  H   -0.112562   0.238709
    15  H   -0.168891   0.321432
    16  H   -0.195442   0.361585
    17  H   -0.112896   0.246918
    18  H   -0.169974   0.323751
    19  H   -0.170405   0.293015
    20  H   -0.682852   0.927355
    21  H   -0.393163   0.566847
    22  H    0.086650   0.020038
    23  H   -0.554021   0.794149
    24  H   -0.046248   0.155309
    25  H   -0.331295   0.491692
    26  H   -0.095052   0.217958
    27  H   -0.089798   0.220809
    28  H   -0.037566   0.268923
    29  H    0.192176   0.037612
 Sum of Mulliken charges =  -1.00000   1.00000

 Dipole moment (field-independent basis, Debye):
    X=             -2.6647    Y=             -1.2064    Z=              0.8048  Tot=              3.0337
 Quadrupole moment (field-independent basis, Debye-Ang):
   XX=           -140.2169   YY=           -114.8636   ZZ=           -104.5939
   XY=              1.7112   XZ=              3.2336   YZ=              0.2865

 Summary of Natural Population Analysis:

                                       Natural Population
                Natural  -----------------------------------------------
    Atom  No    Charge         Core      Valence    Rydberg      Total
 -----------------------------------------------------------------------
      C    1   -0.28824      0.99964     2.28319    0.00541     3.28824
      C    2   -0.01742      0.99962     2.00545    0.01235     3.01742
      C    3   -0.08420      0.99959     2.07287    0.01174     3.08420
      N    4   -0.30228      0.99971     2.78957    0.01300     3.80228
      C    5   -0.07318      0.99959     2.06183    0.01176     3.07318
      C    6   -0.11302      0.99960     2.09954    0.01389     3.11302
      C    7   -0.18553      0.99963     2.17614    0.00976     3.18553
      C    8   -0.11311      0.99960     2.09987    0.01365     3.11311
      C    9   -0.18613      0.99962     2.17725    0.00926     3.18613
      C   10   -0.07296      0.99959     2.06242    0.01095     3.07296
      N   11   -0.42359      0.99977     2.91383    0.00999     3.92359
      H   12    0.09911      0.00000     0.39955    0.00133     0.40089
      H   13    0.10127      0.00000     0.39769    0.00104     0.39873
      H   14    0.09726      0.00000     0.40171    0.00104     0.40274
      H   15    0.08461      0.00000     0.41372    0.00168     0.41539
      H   16    0.09279      0.00000     0.40540    0.00181     0.40721
      H   17    0.09122      0.00000     0.40726    0.00152     0.40878
      H   18    0.09504      0.00000     0.40302    0.00194     0.40496
      H   19    0.08225      0.00000     0.41606    0.00169     0.41775
      H   20    0.09997      0.00000     0.39805    0.00198     0.40003
      H   21    0.10067      0.00000     0.39769    0.00164     0.39933
      H   22    0.09822      0.00000     0.40016    0.00162     0.40178
      H   23    0.09883      0.00000     0.39959    0.00158     0.40117
      H   24    0.09288      0.00000     0.40571    0.00141     0.40712
      H   25    0.10133      0.00000     0.39680    0.00188     0.39867
      H   26    0.08136      0.00000     0.41714    0.00150     0.41864
      H   27    0.09527      0.00000     0.40309    0.00164     0.40473
      H   28    0.17325      0.00000     0.32479    0.00197     0.32675
      H   29    0.17435      0.00000     0.32298    0.00267     0.32565
 =======================================================================
   * Total *    0.00000     10.99596    31.85235    0.15169    43.00000

 Normal termination of Gaussian 16 at Tue Dec  8 21:23:47 2020.
