 Gaussian 16, Revision A.03,

 -----------------------------------------------------------
 # opt freq B3LYP/6-31G(d) empiricaldispersion=gd3bj scf=xqc
 -----------------------------------------------------------

 ------------------------------
 CID_143195884_JID_850_neutraal
 ------------------------------
 Symbolic Z-matrix:
 Charge =  0 Multiplicity = 1

 SCF Done:  E(RB3LYP) =  -431.466713101     A.U. after   12 cycles
 SCF Done:  E(RB3LYP) =  -431.469227647     A.U. after   11 cycles
 SCF Done:  E(RB3LYP) =  -431.469444564     A.U. after    9 cycles
 SCF Done:  E(RB3LYP) =  -431.469588003     A.U. after   10 cycles
 SCF Done:  E(RB3LYP) =  -431.469644421     A.U. after   10 cycles
 SCF Done:  E(RB3LYP) =  -431.469669107     A.U. after    9 cycles
 SCF Done:  E(RB3LYP) =  -431.469747295     A.U. after    9 cycles
 SCF Done:  E(RB3LYP) =  -431.469878423     A.U. after   10 cycles
 SCF Done:  E(RB3LYP) =  -431.469916112     A.U. after    9 cycles
 SCF Done:  E(RB3LYP) =  -431.469991047     A.U. after    9 cycles
 SCF Done:  E(RB3LYP) =  -431.470465837     A.U. after    6 cycles
 SCF Done:  E(RB3LYP) =  -431.470465930     A.U. after    7 cycles
 SCF Done:  E(RB3LYP) =  -431.470466036     A.U. after    7 cycles
 SCF Done:  E(RB3LYP) =  -431.470466129     A.U. after    7 cycles
 SCF Done:  E(RB3LYP) =  -431.470466151     A.U. after    6 cycles
 SCF Done:  E(RB3LYP) =  -431.470466182     A.U. after    6 cycles
 Optimization completed on the basis of negligible forces.
    -- Stationary point found.

 1\1\GINC-NODE103\FOpt\RB3LYP\6-31G(d)\C9H22O1\VSC10255\08-Dec-2020\0\\
 # opt freq B3LYP/6-31G(d) empiricaldispersion=gd3bj scf=xqc\\CID_14319
 5884_JID_850_neutraal\\0,1\C,0.8952898798,0.0166011571,-0.0439009475\C
 ,1.8214007534,0.4954553203,1.0755659129\C,-1.4867852819,-3.3209928079,
 1.3274586173\C,-2.0964195728,-3.1870451584,2.7264876607\C,-1.328152677
 3,-2.2356020846,3.6532256549\C,-1.2863750571,-0.7930064217,3.160004378
 7\O,-2.6163855037,-0.3036994104,3.060317399\C,-2.8738767846,0.64804892
 34,2.0393341377\C,-2.6784321862,2.1044930958,2.4653372622\C,-1.2274508

 Normal termination of Gaussian 16 at Tue Dec  8 14:17:35 2020.

 --------------------------------------------------------------------
 #N Geom=AllCheck Guess=TCheck SCRF=Check GenChk RB3LYP/6-31G(d) Freq
 --------------------------------------------------------------------

 Structure from the checkpoint file:  "JID_850.chk"
 ------------------------------
 CID_143195884_JID_850_neutraal
 ------------------------------
 Charge =  0 Multiplicity = 1

 SCF Done:  E(RB3LYP) =  -431.470466182     A.U. after    1 cycles

  Exact polarizability: 110.821   2.705 102.939   0.499   1.681  95.372
 Approx polarizability: 133.642   0.282 135.716   3.197   1.768 132.267

                      1                      2                      3
                      A                      A                      A
 Frequencies --     15.8289                26.1264                33.4820
 Red. masses --      2.7136                 2.9161                 2.1255
 Frc consts  --      0.0004                 0.0012                 0.0014
 IR Inten    --      0.1312                 0.1010                 0.0628

                      4                      5                      6
                      A                      A                      A
 Frequencies --     39.1859                43.7292                67.7250
 Red. masses --      3.0945                 2.6369                 1.8108
 Frc consts  --      0.0028                 0.0030                 0.0049
 IR Inten    --      0.0783                 0.3065                 1.1180

                      7                      8                      9
                      A                      A                      A
 Frequencies --     69.9761                75.9386                91.1401
 Red. masses --      3.3424                 1.4838                 2.0925
 Frc consts  --      0.0096                 0.0050                 0.0102
 IR Inten    --      0.2421                 0.5064                 0.0592

                     10                     11                     12
                      A                      A                      A
 Frequencies --    113.6585               169.4892               216.8186
 Red. masses --      1.9148                 1.7060                 2.3816
 Frc consts  --      0.0146                 0.0289                 0.0660
 IR Inten    --      0.1020                 2.5389                 0.5454

                     13                     14                     15
                      A                      A                      A
 Frequencies --    249.0141               275.3640               312.7398
 Red. masses --      1.2411                 1.3366                 2.0405
 Frc consts  --      0.0453                 0.0597                 0.1176
 IR Inten    --      0.7513                 0.2590                 0.9647

                     16                     17                     18
                      A                      A                      A
 Frequencies --    321.3819               377.6698               396.4384
 Red. masses --      1.0437                 1.8423                 2.3411
 Frc consts  --      0.0635                 0.1548                 0.2168
 IR Inten    --      0.0131                 1.4665                 3.3947

                     19                     20                     21
                      A                      A                      A
 Frequencies --    472.5055               544.5297               748.0484
 Red. masses --      2.0361                 2.2263                 1.2621
 Frc consts  --      0.2678                 0.3889                 0.4161
 IR Inten    --      0.4513                 2.4099                 5.0643

                     22                     23                     24
                      A                      A                      A
 Frequencies --    776.1657               830.2830               833.3972
 Red. masses --      1.3937                 2.2946                 1.0574
 Frc consts  --      0.4947                 0.9320                 0.4327
 IR Inten    --      0.8008                 1.5828                 5.4943

                     25                     26                     27
                      A                      A                      A
 Frequencies --    834.3645               840.2652               877.5286
 Red. masses --      1.0669                 1.8486                 1.9620
 Frc consts  --      0.4376                 0.7690                 0.8902
 IR Inten    --      8.8559                 5.2303                 3.6110

                     28                     29                     30
                      A                      A                      A
 Frequencies --    926.8654               950.3183               985.0046
 Red. masses --      1.2661                 1.8133                 2.1877
 Frc consts  --      0.6408                 0.9649                 1.2506
 IR Inten    --      0.8059                 7.6167                 3.8379

                     31                     32                     33
                      A                      A                      A
 Frequencies --   1003.3793              1011.5156              1050.6272
 Red. masses --      1.4503                 3.2116                 1.7037
 Frc consts  --      0.8603                 1.9360                 1.1080
 IR Inten    --      8.9930                 0.1910                18.0468

                     34                     35                     36
                      A                      A                      A
 Frequencies --   1092.6153              1112.7480              1139.6134
 Red. masses --      2.0773                 2.2466                 1.8661
 Frc consts  --      1.4611                 1.6390                 1.4279
 IR Inten    --      4.6690                42.4131                12.7192

                     37                     38                     39
                      A                      A                      A
 Frequencies --   1154.9659              1183.5498              1197.4996
 Red. masses --      1.9257                 3.1947                 2.2677
 Frc consts  --      1.5135                 2.6367                 1.9159
 IR Inten    --     12.9079               100.7004                25.7766

                     40                     41                     42
                      A                      A                      A
 Frequencies --   1235.7535              1236.1337              1267.3904
 Red. masses --      1.4639                 1.4655                 1.1982
 Frc consts  --      1.3171                 1.3193                 1.1339
 IR Inten    --      0.0779                 0.2395                 5.5618

                     43                     44                     45
                      A                      A                      A
 Frequencies --   1289.0257              1311.1369              1339.4452
 Red. masses --      1.2648                 1.2082                 1.1563
 Frc consts  --      1.2382                 1.2238                 1.2222
 IR Inten    --      0.7126                 3.5785                12.5797

                     46                     47                     48
                      A                      A                      A
 Frequencies --   1339.7173              1390.0742              1402.3630
 Red. masses --      1.1219                 1.3390                 1.3762
 Frc consts  --      1.1864                 1.5244                 1.5946
 IR Inten    --      5.9960                 7.6243                 2.3824

                     49                     50                     51
                      A                      A                      A
 Frequencies --   1410.4586              1418.5232              1432.4864
 Red. masses --      1.4597                 1.3010                 1.1981
 Frc consts  --      1.7109                 1.5424                 1.4485
 IR Inten    --      9.9313                20.6254                 1.2553

                     52                     53                     54
                      A                      A                      A
 Frequencies --   1441.6249              1443.2433              1454.8948
 Red. masses --      1.2607                 1.2743                 1.2667
 Frc consts  --      1.5437                 1.5639                 1.5798
 IR Inten    --      3.0433                 6.6045                 1.6312

                     55                     56                     57
                      A                      A                      A
 Frequencies --   1456.2476              1504.3276              1506.1435
 Red. masses --      1.2964                 1.0871                 1.0809
 Frc consts  --      1.6198                 1.4494                 1.4447
 IR Inten    --      3.9529                 2.1555                 0.3331

                     58                     59                     60
                      A                      A                      A
 Frequencies --   1515.8339              1519.9291              1526.9984
 Red. masses --      1.0802                 1.0659                 1.0399
 Frc consts  --      1.4623                 1.4509                 1.4286
 IR Inten    --      2.8794                 0.2929                 4.0516

                     61                     62                     63
                      A                      A                      A
 Frequencies --   1530.0766              1530.9500              1534.3282
 Red. masses --      1.0371                 1.0453                 1.0569
 Frc consts  --      1.4306                 1.4435                 1.4659
 IR Inten    --      1.4978                 3.4994                 8.8048

                     64                     65                     66
                      A                      A                      A
 Frequencies --   1534.6310              1535.9259              1537.4897
 Red. masses --      1.0562                 1.0430                 1.0615
 Frc consts  --      1.4655                 1.4497                 1.4784
 IR Inten    --     14.0820                 2.9153                11.6477

                     67                     68                     69
                      A                      A                      A
 Frequencies --   1541.4374              1557.7767              2990.8324
 Red. masses --      1.0538                 1.0811                 1.0671
 Frc consts  --      1.4752                 1.5457                 5.6237
 IR Inten    --      1.5395                 9.5950                45.2974

                     70                     71                     72
                      A                      A                      A
 Frequencies --   3009.2277              3030.5474              3033.3149
 Red. masses --      1.0629                 1.0647                 1.0607
 Frc consts  --      5.6710                 5.7614                 5.7502
 IR Inten    --     38.7053                30.5577                28.0481

                     73                     74                     75
                      A                      A                      A
 Frequencies --   3041.7324              3047.2455              3048.1535
 Red. masses --      1.0417                 1.0436                 1.0631
 Frc consts  --      5.6785                 5.7096                 5.8197
 IR Inten    --     23.9480                14.8545                32.3462

                     76                     77                     78
                      A                      A                      A
 Frequencies --   3051.2603              3052.3531              3053.7394
 Red. masses --      1.0372                 1.0450                 1.0818
 Frc consts  --      5.6893                 5.7364                 5.9436
 IR Inten    --     14.0754                66.2926                16.9271

                     79                     80                     81
                      A                      A                      A
 Frequencies --   3072.2342              3078.8331              3079.1917
 Red. masses --      1.0954                 1.0990                 1.0977
 Frc consts  --      6.0915                 6.1377                 6.1320
 IR Inten    --     32.8723                14.0681                78.7394

                     82                     83                     84
                      A                      A                      A
 Frequencies --   3089.2458              3099.4433              3103.4234
 Red. masses --      1.0977                 1.1015                 1.1015
 Frc consts  --      6.1719                 6.2345                 6.2507
 IR Inten    --     21.2179                 2.1273                 2.9039

                     85                     86                     87
                      A                      A                      A
 Frequencies --   3109.5939              3112.8266              3115.7714
 Red. masses --      1.1002                 1.1017                 1.1021
 Frc consts  --      6.2680                 6.2896                 6.3036
 IR Inten    --     53.2409                75.5167                69.8469

                     88                     89                     90
                      A                      A                      A
 Frequencies --   3123.7071              3127.5604              3132.8276
 Red. masses --      1.1028                 1.1024                 1.1005
 Frc consts  --      6.3399                 6.3536                 6.3639
 IR Inten    --     48.7846                67.3126                44.5520

 - Thermochemistry -
 -------------------
 Temperature   298.150 Kelvin.  Pressure   1.00000 Atm.
 Atom     1 has atomic number  6 and mass  12.00000

 Molecular mass:   146.16707 amu.
 Principal axes and moments of inertia in atomic units:
                           1         2         3
     Eigenvalues --  1829.749772340.148833483.01433
           X            0.99998   0.00018  -0.00682
           Y           -0.00018   1.00000  -0.00055
           Z            0.00682   0.00055   0.99998
 This molecule is an asymmetric top.
 Rotational symmetry number  1.
 Warning -- assumption of classical behavior for rotation
           may cause significant error
 Rotational temperatures (Kelvin)      0.04734     0.03701     0.02487
 Rotational constants (GHZ):           0.98633     0.77121     0.51815
 Zero-point vibrational energy     788392.5 (Joules/Mol)
                                  188.43032 (Kcal/Mol)
 Warning -- explicit consideration of  20 degrees of freedom as
           vibrations may cause significant error
 Vibrational temperatures:     22.77    37.59    48.17    56.38    62.92
          (Kelvin)             97.44   100.68   109.26   131.13   163.53
                              243.86   311.95   358.28   396.19   449.96
                              462.40   543.38   570.39   679.83   783.46
                             1076.27  1116.73  1194.59  1199.07  1200.46
                             1208.95  1262.57  1333.55  1367.30  1417.20
                             1443.64  1455.35  1511.62  1572.03  1601.00
                             1639.65  1661.74  1702.86  1722.93  1777.97
                             1778.52  1823.49  1854.62  1886.43  1927.16
                             1927.55  2000.01  2017.69  2029.34  2040.94
                             2061.03  2074.18  2076.51  2093.27  2095.22
                             2164.39  2167.00  2180.95  2186.84  2197.01
                             2201.44  2202.70  2207.56  2207.99  2209.85
                             2212.10  2217.78  2241.29  4303.14  4329.61
                             4360.28  4364.26  4376.37  4384.31  4385.61
                             4390.08  4391.66  4393.65  4420.26  4429.75
                             4430.27  4444.74  4459.41  4465.13  4474.01
                             4478.66  4482.90  4494.32  4499.86  4507.44

 Zero-point correction=                           0.300283 (Hartree/Particle)
 Thermal correction to Energy=                    0.316361
 Thermal correction to Enthalpy=                  0.317305
 Thermal correction to Gibbs Free Energy=         0.252322
 Sum of electronic and zero-point Energies=           -431.170183
 Sum of electronic and thermal Energies=              -431.154105
 Sum of electronic and thermal Enthalpies=            -431.153161
 Sum of electronic and thermal Free Energies=         -431.218145

                     E (Thermal)             CV                S
                      KCal/Mol        Cal/Mol-Kelvin    Cal/Mol-Kelvin
 Total                  198.520             52.593            136.770
 Electronic               0.000              0.000              0.000
 Translational            0.889              2.981             40.849
 Rotational               0.889              2.981             31.079
 Vibrational            196.742             46.631             64.842
 Vibration     1          0.593              1.986              7.099
 Vibration     2          0.593              1.985              6.104
 Vibration     3          0.594              1.983              5.612
 Vibration     4          0.594              1.981              5.300
 Vibration     5          0.595              1.980              5.083
 Vibration     6          0.598              1.970              4.218
 Vibration     7          0.598              1.968              4.154
 Vibration     8          0.599              1.965              3.993
 Vibration     9          0.602              1.955              3.635
 Vibration    10          0.607              1.938              3.205
 Vibration    11          0.625              1.880              2.441
 Vibration    12          0.646              1.815              1.986
 Vibration    13          0.662              1.764              1.738
 Vibration    14          0.677              1.719              1.562
 Vibration    15          0.701              1.649              1.348
 Vibration    16          0.707              1.633              1.303
 Vibration    17          0.748              1.518              1.048
 Vibration    18          0.763              1.478              0.976
 Vibration    19          0.829              1.311              0.731
 Vibration    20          0.900              1.152              0.556

 Optimization completed on the basis of negligible forces.
    -- Stationary point found.

 1\1\GINC-NODE103\Freq\RB3LYP\6-31G(d)\C9H22O1\VSC10255\08-Dec-2020\0\\
 #N Geom=AllCheck Guess=TCheck SCRF=Check GenChk RB3LYP/6-31G(d) Freq\\
 CID_143195884_JID_850_neutraal\\0,1\C,0.8952898798,0.0166011571,-0.043
 9009475\C,1.8214007534,0.4954553203,1.0755659129\C,-1.4867852819,-3.32
 09928079,1.3274586173\C,-2.0964195728,-3.1870451584,2.7264876607\C,-1.
 3281526773,-2.2356020846,3.6532256549\C,-1.2863750571,-0.7930064217,3.
 1600043787\O,-2.6163855037,-0.3036994104,3.060317399\C,-2.8738767846,0
 .6480489234,2.0393341377\C,-2.6784321862,2.1044930958,2.4653372622\C,-

 Normal termination of Gaussian 16 at Tue Dec  8 14:25:29 2020.

 ----------------------------------------------------------------------
 # B3LYP/6-311++G(d,p) empiricaldispersion=gd3bj scf=xqc pop=npa geom=c
 heck
 ----------------------------------------------------------------------

 --------------------------------------
 CID_143195884_JID_850_Energie_neutraal
 --------------------------------------
 Structure from the checkpoint file:  "JID_850.chk"
 Charge =  0 Multiplicity = 1

 SCF Done:  E(RB3LYP) =  -431.599460185     A.U. after   12 cycles
 Normal termination of Gaussian 16 at Tue Dec  8 14:29:04 2020.

 ----------------------------------------------------------------------
 # B3LYP/6-311++G(d,p) empiricaldispersion=gd3bj scf=xqc pop=npa geom=c
 heck
 ----------------------------------------------------------------------

 ------------------------------------
 CID_143195884_JID_850_Energie_kation
 ------------------------------------
 Structure from the checkpoint file:  "JID_850.chk"
 Charge =  1 Multiplicity = 2

 SCF Done:  E(UB3LYP) =  -431.266615647     A.U. after   18 cycles
 Normal termination of Gaussian 16 at Tue Dec  8 14:35:48 2020.
 Gaussian 16:  ES64L-G16RevA.03 25-Dec-2016

 -----------------------------------
 CID_143195884_JID_850_Energie_anion
 -----------------------------------
 Structure from the checkpoint file:  "JID_850.chk"
 Charge = -1 Multiplicity = 2

                         Standard orientation:
 ---------------------------------------------------------------------
 Center     Atomic      Atomic             Coordinates (Angstroms)
 Number     Number       Type             X           Y           Z
 ---------------------------------------------------------------------
      1          6           0       -1.102897    2.773710   -0.774423
      2          6           0       -1.607467    2.858852    0.667224
      3          6           0        2.794144    0.903522   -0.873984
      4          6           0        2.968728   -0.342529   -0.000054
      5          6           0        2.011777   -0.403394    1.197803
      6          6           0        0.538331   -0.463622    0.808671
      7          8           0        0.316777   -1.631596    0.030829
      8          6           0       -0.688913   -1.554851   -0.967785
      9          6           0       -2.086717   -1.957043   -0.493136
     10          6           0       -2.740533   -0.988589    0.496376
     11          1           0       -0.009437    2.709868   -0.812426
     12          1           0       -1.403228    3.653394   -1.354892
     13          1           0       -1.502676    1.889710   -1.285041
     14          1           0       -2.701030    2.921169    0.703491
     15          1           0       -1.308569    1.979038    1.247387
     16          1           0       -1.208092    3.743264    1.176299
     17          1           0        1.812556    0.922928   -1.360652
     18          1           0        3.550825    0.939127   -1.665623
     19          1           0        2.888802    1.822198   -0.280740
     20          1           0        2.821183   -1.241523   -0.608980
     21          1           0        4.000160   -0.380559    0.373318
     22          1           0        2.245651   -1.285605    1.806887
     23          1           0        2.156528    0.475551    1.842379
     24          1           0       -0.084472   -0.474837    1.715536
     25          1           0        0.255669    0.428882    0.233882
     26          1           0       -0.713994   -0.540815   -1.400136
     27          1           0       -0.369258   -2.242502   -1.759930
     28          1           0       -2.720857   -2.047948   -1.386802
     29          1           0       -2.024243   -2.959191   -0.050602
     30          1           0       -2.758899    0.033639    0.099325
     31          1           0       -3.774853   -1.282598    0.706668
     32          1           0       -2.204703   -0.966768    1.449875
 ---------------------------------------------------------------------

 SCF Done:  E(UB3LYP) =  -431.582952504     A.U. after   27 cycles

 The electronic state is 2-A.
 Alpha  occ. eigenvalues --  -19.02047 -10.11454 -10.11162 -10.06730 -10.06544
 Alpha  occ. eigenvalues --  -10.06430 -10.05790 -10.05789 -10.05761 -10.05724
 Alpha  occ. eigenvalues --   -0.93241  -0.70121  -0.67619  -0.65317  -0.62604
 Alpha  occ. eigenvalues --   -0.57745  -0.53562  -0.51640  -0.49015  -0.46705
 Alpha  occ. eigenvalues --   -0.39994  -0.38046  -0.37344  -0.34775  -0.33777
 Alpha  occ. eigenvalues --   -0.33576  -0.33269  -0.32556  -0.29925  -0.29361
 Alpha  occ. eigenvalues --   -0.28362  -0.27152  -0.26841  -0.25240  -0.24713
 Alpha  occ. eigenvalues --   -0.24450  -0.24429  -0.23732  -0.23177  -0.22597
 Alpha  occ. eigenvalues --   -0.20963  -0.15556   0.04539
 Alpha virt. eigenvalues --    0.06587   0.07032   0.07407   0.08757   0.09183
 Alpha virt. eigenvalues --    0.09348   0.09502   0.09908   0.11370   0.11598
 Alpha virt. eigenvalues --    0.11977   0.12051   0.12803   0.13008   0.14407

  Beta  occ. eigenvalues --  -19.02042 -10.11441 -10.11150 -10.06712 -10.06531
  Beta  occ. eigenvalues --  -10.06419 -10.05762 -10.05758 -10.05730 -10.05694
  Beta  occ. eigenvalues --   -0.93233  -0.70093  -0.67584  -0.65272  -0.62570
  Beta  occ. eigenvalues --   -0.57696  -0.53510  -0.51540  -0.48955  -0.46655
  Beta  occ. eigenvalues --   -0.39959  -0.38019  -0.37317  -0.34738  -0.33746
  Beta  occ. eigenvalues --   -0.33544  -0.33239  -0.32528  -0.29895  -0.29327
  Beta  occ. eigenvalues --   -0.28324  -0.27094  -0.26784  -0.25197  -0.24683
  Beta  occ. eigenvalues --   -0.24415  -0.24393  -0.23695  -0.23153  -0.22566
  Beta  occ. eigenvalues --   -0.20935  -0.15539
  Beta virt. eigenvalues --    0.06623   0.07426   0.07668   0.07983   0.09246
  Beta virt. eigenvalues --    0.09645   0.09727   0.09918   0.10228   0.11764
  Beta virt. eigenvalues --    0.11965   0.12332   0.12534   0.13013   0.13310

 Mulliken charges and spin densities:
               1          2
     1  C   -0.003485  -0.380750
     2  C    0.292537  -0.715324
     3  C    0.315659  -0.749951
     4  C   -0.252331  -0.048896
     5  C    0.818611  -1.188153
     6  C   -1.580990   1.394034
     7  O   -0.041112  -0.004025
     8  C   -0.159577   0.082898
     9  C    0.573008  -0.934595
    10  C   -0.380390  -0.028674
    11  H    0.180974  -0.060175
    12  H   -0.665964   0.825785
    13  H   -0.062244   0.194293
    14  H   -0.281606   0.413622
    15  H   -0.355585   0.497458
    16  H   -0.132551   0.258744
    17  H   -0.337372   0.469144
    18  H   -0.324536   0.465562
    19  H   -0.099284   0.230748
    20  H    0.160901  -0.022081
    21  H   -0.105255   0.254455
    22  H   -0.043532   0.199502
    23  H   -0.278634   0.423279
    24  H   -0.163135   0.324311
    25  H    2.514417  -2.459265
    26  H   -0.041867   0.127822
    27  H   -0.151192   0.314590
    28  H   -0.408531   0.548014
    29  H    0.115561   0.023269
    30  H    0.545438  -0.399098
    31  H   -0.551706   0.718009
    32  H   -0.096229   0.225445
 Sum of Mulliken charges =  -1.00000   1.00000

 Dipole moment (field-independent basis, Debye):
    X=              2.1631    Y=             -3.2799    Z=              0.6075  Tot=              3.9756
 Quadrupole moment (field-independent basis, Debye-Ang):
   XX=           -135.1388   YY=           -123.9169   ZZ=           -105.6219
   XY=             -1.6212   XZ=             -0.6959   YZ=              1.3305

 Summary of Natural Population Analysis:

                                       Natural Population
                Natural  -----------------------------------------------
    Atom  No    Charge         Core      Valence    Rydberg      Total
 -----------------------------------------------------------------------
      C    1   -0.28835      0.99968     2.28365    0.00502     3.28835
      C    2   -0.28687      0.99968     2.28242    0.00476     3.28687
      C    3   -0.28795      0.99967     2.28297    0.00531     3.28795
      C    4   -0.19340      0.99964     2.18527    0.00849     3.19340
      C    5   -0.19656      0.99962     2.18775    0.00918     3.19656
      C    6   -0.01113      0.99956     2.00022    0.01134     3.01113
      O    7   -0.30710      0.99988     3.29804    0.00918     4.30710
      C    8   -0.00433      0.99957     1.99208    0.01268     3.00433
      C    9   -0.20237      0.99964     2.19454    0.00819     3.20237
      C   10   -0.28852      0.99966     2.28343    0.00543     3.28852
      H   11    0.09644      0.00000     0.40217    0.00140     0.40356
      H   12    0.09660      0.00000     0.40216    0.00124     0.40340
      H   13    0.09473      0.00000     0.40371    0.00156     0.40527
      H   14    0.09606      0.00000     0.40276    0.00118     0.40394
      H   15    0.09597      0.00000     0.40270    0.00133     0.40403
      H   16    0.09567      0.00000     0.40328    0.00105     0.40433
      H   17    0.09635      0.00000     0.40220    0.00145     0.40365
      H   18    0.09830      0.00000     0.40074    0.00097     0.40170
      H   19    0.09634      0.00000     0.40235    0.00131     0.40366
      H   20    0.09911      0.00000     0.39952    0.00137     0.40089
      H   21    0.09331      0.00000     0.40567    0.00102     0.40669
      H   22    0.09776      0.00000     0.40107    0.00117     0.40224
      H   23    0.09736      0.00000     0.40147    0.00116     0.40264
      H   24    0.08028      0.00000     0.41819    0.00153     0.41972
      H   25    0.08214      0.00000     0.41508    0.00278     0.41786
      H   26    0.07780      0.00000     0.42020    0.00200     0.42220
      H   27    0.08628      0.00000     0.41248    0.00123     0.41372
      H   28    0.09643      0.00000     0.40212    0.00145     0.40357
      H   29    0.09503      0.00000     0.40379    0.00118     0.40497
      H   30    0.09840      0.00000     0.40012    0.00148     0.40160
      H   31    0.09979      0.00000     0.39902    0.00119     0.40021
      H   32    0.09642      0.00000     0.40212    0.00146     0.40358
 =======================================================================
   * Total *    0.00000      9.99661    31.89330    0.11009    42.00000

 Normal termination of Gaussian 16 at Tue Dec  8 14:46:48 2020.
