 Gaussian 16, Revision A.03,

 -----------------------------------------------------------
 # opt freq B3LYP/6-31G(d) empiricaldispersion=gd3bj scf=xqc
 -----------------------------------------------------------

 -------------------------------
 CID_126625997_JID_1648_neutraal
 -------------------------------
 Symbolic Z-matrix:
 Charge =  0 Multiplicity = 1

 SCF Done:  E(RB3LYP) =  -1592.02764075     A.U. after   16 cycles
 SCF Done:  E(RB3LYP) =  -1592.04132786     A.U. after   14 cycles
 SCF Done:  E(RB3LYP) =  -1592.04413632     A.U. after   14 cycles
 SCF Done:  E(RB3LYP) =  -1592.04601343     A.U. after   14 cycles
 SCF Done:  E(RB3LYP) =  -1592.04781956     A.U. after   14 cycles
 SCF Done:  E(RB3LYP) =  -1592.04852038     A.U. after   13 cycles
 SCF Done:  E(RB3LYP) =  -1592.04875878     A.U. after   12 cycles
 SCF Done:  E(RB3LYP) =  -1592.04881278     A.U. after   11 cycles
 SCF Done:  E(RB3LYP) =  -1592.04882719     A.U. after   10 cycles
 SCF Done:  E(RB3LYP) =  -1592.04883236     A.U. after   10 cycles
 SCF Done:  E(RB3LYP) =  -1592.04883381     A.U. after    9 cycles
 SCF Done:  E(RB3LYP) =  -1592.04883443     A.U. after    9 cycles
 SCF Done:  E(RB3LYP) =  -1592.04883462     A.U. after    9 cycles
 SCF Done:  E(RB3LYP) =  -1592.04883480     A.U. after    9 cycles
 SCF Done:  E(RB3LYP) =  -1592.04883490     A.U. after    9 cycles
 Optimization completed.
    -- Stationary point found.
 Normal termination of Gaussian 16 at Tue Dec  8 20:40:11 2020.

 --------------------------------------------------------------------
 #N Geom=AllCheck Guess=TCheck SCRF=Check GenChk RB3LYP/6-31G(d) Freq
 --------------------------------------------------------------------

 Structure from the checkpoint file:  "JID_1648.chk"
 -------------------------------
 CID_126625997_JID_1648_neutraal
 -------------------------------
 Charge =  0 Multiplicity = 1

 SCF Done:  E(RB3LYP) =  -1592.04883490     A.U. after    1 cycles

  Exact polarizability: 179.242  -4.334 112.078   1.107   1.201  55.078
 Approx polarizability: 283.833 -11.614 238.294   3.130  -1.182  93.061

                      1                      2                      3
                      A                      A                      A
 Frequencies --     36.9477                78.5035               127.9957
 Red. masses --      8.9916                12.2038                11.4431
 Frc consts  --      0.0072                 0.0443                 0.1105
 IR Inten    --      0.9624                 0.0175                 0.2069

                      4                      5                      6
                      A                      A                      A
 Frequencies --    210.6997               227.5062               273.0695
 Red. masses --      7.1731                 8.1906                 7.7638
 Frc consts  --      0.1876                 0.2498                 0.3411
 IR Inten    --      5.5841                 1.1265                 8.5453

                      7                      8                      9
                      A                      A                      A
 Frequencies --    290.1588               321.1016               394.5348
 Red. masses --      5.4333                 2.7271                13.8787
 Frc consts  --      0.2695                 0.1657                 1.2728
 IR Inten    --      7.6997                29.2937                 3.6041

                     10                     11                     12
                      A                      A                      A
 Frequencies --    429.2615               457.5634               474.7178
 Red. masses --      6.1119                 2.2636                 6.5423
 Frc consts  --      0.6635                 0.2792                 0.8687
 IR Inten    --     10.4367               175.1029                19.3007

                     13                     14                     15
                      A                      A                      A
 Frequencies --    501.1730               587.9290               614.5524
 Red. masses --     11.7972                11.7484                12.4520
 Frc consts  --      1.7458                 2.3926                 2.7708
 IR Inten    --     13.2332                 2.4937                34.5239

                     16                     17                     18
                      A                      A                      A
 Frequencies --    659.4790               673.5115               710.3087
 Red. masses --      1.2877                 9.6837                15.2456
 Frc consts  --      0.3300                 2.5881                 4.5320
 IR Inten    --      0.1198                 7.0788               136.4534

                     19                     20                     21
                      A                      A                      A
 Frequencies --    725.8186               780.5294               783.9980
 Red. masses --      4.2711                 1.3683                 6.1962
 Frc consts  --      1.3257                 0.4912                 2.2439
 IR Inten    --      4.6963                65.9981                12.8752

                     22                     23                     24
                      A                      A                      A
 Frequencies --    837.3978               871.5951               962.7304
 Red. masses --      5.4321                 3.9409                 8.9898
 Frc consts  --      2.2443                 1.7639                 4.9092
 IR Inten    --     12.4312                19.1608                50.8018

                     25                     26                     27
                      A                      A                      A
 Frequencies --   1058.7633              1132.7646              1183.0869
 Red. masses --      4.1745                 1.8062                 1.4472
 Frc consts  --      2.7571                 1.3655                 1.1935
 IR Inten    --      7.5843               114.2643                 2.5331

                     28                     29                     30
                      A                      A                      A
 Frequencies --   1204.5575              1214.8419              1356.9621
 Red. masses --      2.7648                 2.0921                 3.5949
 Frc consts  --      2.3636                 1.8192                 3.9000
 IR Inten    --    113.3717                 3.2850                 6.5912

                     31                     32                     33
                      A                      A                      A
 Frequencies --   1501.3918              1569.5966              1606.2533
 Red. masses --      8.7942                11.4614                 9.7938
 Frc consts  --     11.6797                16.6366                14.8877
 IR Inten    --     21.2386                44.2660                13.8929

                     34                     35                     36
                      A                      A                      A
 Frequencies --   3286.4037              3291.4431              3634.4250
 Red. masses --      1.0945                 1.0950                 1.0659
 Frc consts  --      6.9648                 6.9895                 8.2952
 IR Inten    --      1.6822                 4.1080                47.5675

 - Thermochemistry -
 -------------------
 Temperature   298.150 Kelvin.  Pressure   1.00000 Atm.
 Atom     1 has atomic number  6 and mass  12.00000

 Molecular mass:   204.93259 amu.
 Principal axes and moments of inertia in atomic units:
                           1         2         3
     Eigenvalues --   815.130104397.259845114.51168
           X            0.99999  -0.00321  -0.00257
           Y            0.00324   0.99995   0.00937
           Z            0.00254  -0.00938   0.99995
 This molecule is an asymmetric top.
 Rotational symmetry number  1.
 Warning -- assumption of classical behavior for rotation
           may cause significant error
 Rotational temperatures (Kelvin)      0.10626     0.01970     0.01693
 Rotational constants (GHZ):           2.21405     0.41042     0.35287
 Zero-point vibrational energy     203793.3 (Joules/Mol)
                                   48.70776 (Kcal/Mol)
 Warning -- explicit consideration of  15 degrees of freedom as
           vibrations may cause significant error
 Vibrational temperatures:     53.16   112.95   184.16   303.15   327.33
          (Kelvin)            392.89   417.47   461.99   567.65   617.61
                              658.33   683.01   721.08   845.90   884.20
                              948.84   969.03  1021.98  1044.29  1123.01
                             1128.00  1204.83  1254.03  1385.15  1523.32
                             1629.80  1702.20  1733.09  1747.89  1952.37
                             2160.17  2258.30  2311.04  4728.40  4735.65
                             5229.13

 Zero-point correction=                           0.077621 (Hartree/Particle)
 Thermal correction to Energy=                    0.087685
 Thermal correction to Enthalpy=                  0.088629
 Thermal correction to Gibbs Free Energy=         0.040592
 Sum of electronic and zero-point Energies=          -1591.971214
 Sum of electronic and thermal Energies=             -1591.961150
 Sum of electronic and thermal Enthalpies=           -1591.960206
 Sum of electronic and thermal Free Energies=        -1592.008243

                     E (Thermal)             CV                S
                      KCal/Mol        Cal/Mol-Kelvin    Cal/Mol-Kelvin
 Total                   55.023             37.131            101.102
 Electronic               0.000              0.000              0.000
 Translational            0.889              2.981             41.857
 Rotational               0.889              2.981             31.284
 Vibrational             53.246             31.170             27.962
 Vibration     1          0.594              1.982              5.416
 Vibration     2          0.600              1.964              3.928
 Vibration     3          0.611              1.925              2.976
 Vibration     4          0.643              1.825              2.038
 Vibration     5          0.651              1.799              1.899
 Vibration     6          0.676              1.723              1.577
 Vibration     7          0.686              1.692              1.473
 Vibration     8          0.707              1.633              1.304
 Vibration     9          0.761              1.482              0.983
 Vibration    10          0.791              1.407              0.861
 Vibration    11          0.816              1.344              0.773
 Vibration    12          0.831              1.306              0.724
 Vibration    13          0.857              1.247              0.655
 Vibration    14          0.945              1.058              0.471
 Vibration    15          0.974              1.001              0.425

 Optimization completed.
    -- Stationary point found.
 Normal termination of Gaussian 16 at Tue Dec  8 20:42:57 2020.

 ----------------------------------------------------------------------
 # B3LYP/6-311++G(d,p) empiricaldispersion=gd3bj scf=xqc pop=npa geom=c
 heck
 ----------------------------------------------------------------------

 ---------------------------------------
 CID_126625997_JID_1648_Energie_neutraal
 ---------------------------------------
 Structure from the checkpoint file:  "JID_1648.chk"
 Charge =  0 Multiplicity = 1

 SCF Done:  E(RB3LYP) =  -1592.24353894     A.U. after   21 cycles
 Normal termination of Gaussian 16 at Tue Dec  8 20:46:12 2020.

 ----------------------------------------------------------------------
 # B3LYP/6-311++G(d,p) empiricaldispersion=gd3bj scf=xqc pop=npa geom=c
 heck
 ----------------------------------------------------------------------

 -------------------------------------
 CID_126625997_JID_1648_Energie_kation
 -------------------------------------
 Structure from the checkpoint file:  "JID_1648.chk"
 Charge =  1 Multiplicity = 2

 SCF Done:  E(UB3LYP) =  -1591.92752108     A.U. after   26 cycles
 Normal termination of Gaussian 16 at Tue Dec  8 20:52:54 2020.
 Gaussian 16:  ES64L-G16RevA.03 25-Dec-2016

 ----------------------------------------------------------------------
 # B3LYP/6-311++G(d,p) empiricaldispersion=gd3bj scf=xqc pop=npa geom=c
 heck
 ----------------------------------------------------------------------

 ------------------------------------
 CID_126625997_JID_1648_Energie_anion
 ------------------------------------
 Structure from the checkpoint file:  "JID_1648.chk"
 Charge = -1 Multiplicity = 2

                         Standard orientation:
 ---------------------------------------------------------------------
 Center     Atomic      Atomic             Coordinates (Angstroms)
 Number     Number       Type             X           Y           Z
 ---------------------------------------------------------------------
      1          6           0        2.345663   -1.401082   -0.039471
      2          6           0        1.153456   -0.719986   -0.078967
      3          6           0        1.319869    0.713949   -0.001430
      4          6           0        2.623385    1.106834    0.096875
      5         16           0        3.662510   -0.291134    0.092511
      6         16           0       -0.254654    1.491673   -0.057552
      7          6           0       -0.958220   -0.159284   -0.163629
      8          7           0       -0.156908   -1.160847   -0.177502
      9         16           0       -2.765104   -0.407668   -0.369219
     10          8           0       -3.146925   -1.447461    0.615736
     11          8           0       -3.185364    1.123050    0.192670
     12          1           0        2.512564   -2.467446   -0.078043
     13          1           0        3.046252    2.098020    0.169186
     14          1           0       -2.991103    1.162108    1.152022
 ---------------------------------------------------------------------

 SCF Done:  E(UB3LYP) =  -1592.26933365     A.U. after   25 cycles

 The electronic state is 2-A.
 Alpha  occ. eigenvalues --  -88.85239 -88.74170 -88.73851 -19.02923 -18.97158
 Alpha  occ. eigenvalues --  -14.16083 -10.08350 -10.07576 -10.06827 -10.06731
 Alpha  occ. eigenvalues --  -10.04783  -7.92392  -7.82798  -7.82423  -5.88871
 Alpha  occ. eigenvalues --   -5.88495  -5.87905  -5.79104  -5.78750  -5.78732
 Alpha  occ. eigenvalues --   -5.78415  -5.78414  -5.77921  -0.94944  -0.87760
 Alpha  occ. eigenvalues --   -0.82203  -0.73921  -0.65813  -0.60735  -0.57881
 Alpha  occ. eigenvalues --   -0.55437  -0.45883  -0.43961  -0.40835  -0.37612
 Alpha  occ. eigenvalues --   -0.33888  -0.32866  -0.32245  -0.30461  -0.28870
 Alpha  occ. eigenvalues --   -0.27263  -0.25536  -0.23597  -0.21849  -0.21488
 Alpha  occ. eigenvalues --   -0.20781  -0.17797  -0.16865  -0.15003  -0.11802
 Alpha  occ. eigenvalues --   -0.11200  -0.09189   0.03387
 Alpha virt. eigenvalues --    0.08967   0.09623   0.10362   0.11268   0.12254
 Alpha virt. eigenvalues --    0.12719   0.13676   0.13988   0.14366   0.14615
 Alpha virt. eigenvalues --    0.15069   0.15404   0.16432   0.17235   0.17892

  Beta  occ. eigenvalues --  -88.85213 -88.74112 -88.73834 -19.02805 -18.97061
  Beta  occ. eigenvalues --  -14.15714 -10.07889 -10.07615 -10.06884 -10.06649
  Beta  occ. eigenvalues --  -10.04389  -7.92364  -7.82746  -7.82406  -5.88840
  Beta  occ. eigenvalues --   -5.88425  -5.87898  -5.79078  -5.78746  -5.78708
  Beta  occ. eigenvalues --   -5.78413  -5.78223  -5.77857  -0.94640  -0.87485
  Beta  occ. eigenvalues --   -0.81624  -0.73584  -0.65518  -0.60276  -0.57421
  Beta  occ. eigenvalues --   -0.55226  -0.45236  -0.43703  -0.40552  -0.37382
  Beta  occ. eigenvalues --   -0.33622  -0.32514  -0.31853  -0.30198  -0.28037
  Beta  occ. eigenvalues --   -0.27076  -0.25155  -0.23319  -0.21374  -0.20830
  Beta  occ. eigenvalues --   -0.20207  -0.17446  -0.15927  -0.14614  -0.11350
  Beta  occ. eigenvalues --   -0.10290  -0.07585
  Beta virt. eigenvalues --    0.08716   0.09175   0.10250   0.10500   0.12170
  Beta virt. eigenvalues --    0.12393   0.12948   0.13843   0.14049   0.14574
  Beta virt. eigenvalues --    0.14753   0.15140   0.15507   0.16586   0.17326

 Mulliken charges and spin densities:
               1          2
     1  C    0.514394   0.308086
     2  C   -1.800718  -0.135481
     3  C    0.321904   0.000371
     4  C    0.770807   0.101892
     5  S   -0.543596   0.084461
     6  S   -0.547735  -0.014898
     7  C   -0.490572   0.449575
     8  N    0.043420   0.160361
     9  S    0.734005   0.048097
    10  O   -0.379504  -0.043706
    11  O   -0.272313  -0.022486
    12  H    0.223528  -0.016803
    13  H    0.238917  -0.003000
    14  H    0.187464   0.083530
 Sum of Mulliken charges =  -1.00000   1.00000

 Dipole moment (field-independent basis, Debye):
    X=              2.6121    Y=              2.9443    Z=             -0.1424  Tot=              3.9386
 Quadrupole moment (field-independent basis, Debye-Ang):
   XX=           -127.7274   YY=            -97.9992   ZZ=            -91.9290
   XY=             -3.7472   XZ=              0.9890   YZ=              4.1538

 Summary of Natural Population Analysis:

                                       Natural Population
                Natural  -----------------------------------------------
    Atom  No    Charge         Core      Valence    Rydberg      Total
 -----------------------------------------------------------------------
      C    1   -0.12318      0.99949     2.11300    0.01069     3.12318
      C    2    0.01996      0.99940     1.96583    0.01481     2.98004
      C    3   -0.13487      0.99934     2.12305    0.01249     3.13487
      C    4   -0.21106      0.99945     2.19929    0.01232     3.21106
      S    5    0.20748      4.99948     2.76809    0.02495     7.79252
      S    6    0.14738      4.99941     2.83243    0.02079     7.85262
      C    7    0.00908      0.99953     1.97129    0.02011     2.99092
      N    8   -0.18920      0.99957     2.67400    0.01564     3.68920
      S    9    0.72833      4.99936     2.20332    0.06899     7.27167
      O   10   -0.45368      0.99992     3.44618    0.00758     4.45368
      O   11   -0.44059      0.99992     3.43262    0.00805     4.44059
      H   12    0.10396      0.00000     0.39523    0.00080     0.39604
      H   13    0.10365      0.00000     0.39543    0.00092     0.39635
      H   14    0.23274      0.00000     0.26235    0.00491     0.26726
 =======================================================================
   * Total *   -0.00000     22.99486    28.78210    0.22305    52.00000

 Normal termination of Gaussian 16 at Tue Dec  8 20:59:04 2020.
