 Gaussian 16, Revision A.03,

 -----------------------------------------------------------
 # opt freq B3LYP/6-31G(d) empiricaldispersion=gd3bj scf=xqc
 -----------------------------------------------------------

 ------------------------------
 CID_129885334_JID_713_neutraal
 ------------------------------
 Symbolic Z-matrix:
 Charge =  0 Multiplicity = 1

 SCF Done:  E(RB3LYP) =  -826.084085289     A.U. after   15 cycles
 SCF Done:  E(RB3LYP) =  -826.089018720     A.U. after   13 cycles
 SCF Done:  E(RB3LYP) =  -826.090036372     A.U. after   12 cycles
 SCF Done:  E(RB3LYP) =  -826.090097854     A.U. after   10 cycles
 SCF Done:  E(RB3LYP) =  -826.090108170     A.U. after   10 cycles
 SCF Done:  E(RB3LYP) =  -826.090110621     A.U. after    9 cycles
 Optimization completed.
    -- Stationary point found.
 Normal termination of Gaussian 16 at Mon Dec 14 16:27:46 2020.

 --------------------------------------------------------------------
 #N Geom=AllCheck Guess=TCheck SCRF=Check GenChk RB3LYP/6-31G(d) Freq
 --------------------------------------------------------------------

 Structure from the checkpoint file:  "JID_713.chk"
 ------------------------------
 CID_129885334_JID_713_neutraal
 ------------------------------
 Charge =  0 Multiplicity = 1

 SCF Done:  E(RB3LYP) =  -826.090110621     A.U. after    1 cycles

  Exact polarizability: 130.028   1.120  90.122  -0.002   0.001  35.826
 Approx polarizability: 215.280  -1.471 191.418  -0.002   0.002  56.563

 ******    1 imaginary frequencies (negative Signs) ******

                      1                      2                      3
                      A                      A                      A
 Frequencies --    -99.8399               117.4737               169.7930
 Red. masses --      1.0813                 6.3220                10.4546
 Frc consts  --      0.0064                 0.0514                 0.1776
 IR Inten    --     24.9490                 7.7329                 3.0836

                      4                      5                      6
                      A                      A                      A
 Frequencies --    234.2972               278.4248               418.4574
 Red. masses --      8.3880                 8.3821                 4.1468
 Frc consts  --      0.2713                 0.3828                 0.4278
 IR Inten    --      5.9095                 3.8215                 1.2373

                      7                      8                      9
                      A                      A                      A
 Frequencies --    435.4441               492.7129               579.1937
 Red. masses --     10.9422                 7.4759                 9.1649
 Frc consts  --      1.2224                 1.0693                 1.8114
 IR Inten    --      6.7955                 4.7566                 0.7694

                     10                     11                     12
                      A                      A                      A
 Frequencies --    611.0029               664.5194               700.4392
 Red. masses --      8.9929                 8.3759                 9.9704
 Frc consts  --      1.9780                 2.1792                 2.8821
 IR Inten    --      3.1157                 0.0163                 6.5325

                     13                     14                     15
                      A                      A                      A
 Frequencies --    794.6892               810.4007               860.8164
 Red. masses --      8.1012                 7.0469                 1.3434
 Frc consts  --      3.0144                 2.7268                 0.5865
 IR Inten    --      0.5603                 8.5676                22.1762

                     16                     17                     18
                      A                      A                      A
 Frequencies --    922.4357               983.7296               984.3137
 Red. masses --      2.8593                 2.9901                 1.3408
 Frc consts  --      1.4334                 1.7049                 0.7654
 IR Inten    --     26.7981                28.7599                 0.1201

                     19                     20                     21
                      A                      A                      A
 Frequencies --   1048.9244              1073.3507              1111.7128
 Red. masses --      2.3018                 9.3664                 2.4597
 Frc consts  --      1.4921                 6.3578                 1.7911
 IR Inten    --      0.7702                21.2393                59.8764

                     22                     23                     24
                      A                      A                      A
 Frequencies --   1190.9986              1211.5451              1296.7003
 Red. masses --      2.8125                 6.4318                 4.4834
 Frc consts  --      2.3505                 5.5624                 4.4416
 IR Inten    --     48.1649                36.7387                16.3104

                     25                     26                     27
                      A                      A                      A
 Frequencies --   1334.2427              1364.2887              1447.4841
 Red. masses --      3.6955                 4.7938                 4.2628
 Frc consts  --      3.8761                 5.2570                 5.2623
 IR Inten    --      2.6218                 4.6879                31.3435

                     28                     29                     30
                      A                      A                      A
 Frequencies --   1489.7028              1603.1094              1638.7835
 Red. masses --      3.1104                 8.0320                 8.0334
 Frc consts  --      4.0669                12.1618                12.7113
 IR Inten    --      6.0081                 0.4713                 0.9728

                     31                     32                     33
                      A                      A                      A
 Frequencies --   2698.0822              3218.2611              3234.5699
 Red. masses --      1.0382                 1.0893                 1.0965
 Frc consts  --      4.4529                 6.6475                 6.7594
 IR Inten    --      0.8960                 4.3346                 6.7438

 - Thermochemistry -
 -------------------
 Temperature   298.150 Kelvin.  Pressure   1.00000 Atm.
 Atom     1 has atomic number  6 and mass  12.00000

 Molecular mass:   153.01092 amu.
 Principal axes and moments of inertia in atomic units:
                           1         2         3
     Eigenvalues --   731.875251804.280992536.15623
           X            0.99999   0.00442  -0.00000
           Y           -0.00442   0.99999   0.00000
           Z            0.00000  -0.00000   1.00000
 This molecule is an asymmetric top.
 Rotational symmetry number  1.
 Warning -- assumption of classical behavior for rotation
           may cause significant error
 Rotational temperatures (Kelvin)      0.11835     0.04800     0.03415
 Rotational constants (GHZ):           2.46591     1.00026     0.71160
    1 imaginary frequencies ignored.
 Zero-point vibrational energy     209465.5 (Joules/Mol)
                                   50.06346 (Kcal/Mol)
 Warning -- explicit consideration of   9 degrees of freedom as
           vibrations may cause significant error
 Vibrational temperatures:    169.02   244.29   337.10   400.59   602.07
          (Kelvin)            626.51   708.90   833.33   879.10   956.10
                             1007.78  1143.38  1165.99  1238.52  1327.18
                             1415.37  1416.21  1509.17  1544.31  1599.51
                             1713.58  1743.14  1865.66  1919.68  1962.91
                             2082.61  2143.35  2306.52  2357.84  3881.94
                             4630.36  4653.82

 Zero-point correction=                           0.079781 (Hartree/Particle)
 Thermal correction to Energy=                    0.086754
 Thermal correction to Enthalpy=                  0.087698
 Thermal correction to Gibbs Free Energy=         0.047388
 Sum of electronic and zero-point Energies=           -826.010329
 Sum of electronic and thermal Energies=              -826.003357
 Sum of electronic and thermal Enthalpies=            -826.002413
 Sum of electronic and thermal Free Energies=         -826.042723

                     E (Thermal)             CV                S
                      KCal/Mol        Cal/Mol-Kelvin    Cal/Mol-Kelvin
 Total                   54.439             26.264             84.841
 Electronic               0.000              0.000              0.000
 Translational            0.889              2.981             40.986
 Rotational               0.889              2.981             29.595
 Vibrational             52.661             20.303             14.260
 Vibration     1          0.608              1.935              3.142
 Vibration     2          0.625              1.880              2.438
 Vibration     3          0.654              1.788              1.846
 Vibration     4          0.679              1.713              1.543
 Vibration     5          0.781              1.430              0.897
 Vibration     6          0.796              1.393              0.841
 Vibration     7          0.848              1.266              0.677
 Vibration     8          0.936              1.076              0.487
 Vibration     9          0.970              1.009              0.431

 Optimization completed.
    -- Stationary point found.
 Normal termination of Gaussian 16 at Mon Dec 14 16:29:37 2020.

 ----------------------------------------------------------------------
 # B3LYP/6-311++G(d,p) empiricaldispersion=gd3bj scf=xqc pop=npa geom=c
 heck
 ----------------------------------------------------------------------

 --------------------------------------
 CID_129885334_JID_713_Energie_neutraal
 --------------------------------------
 Structure from the checkpoint file:  "JID_713.chk"
 Charge =  0 Multiplicity = 1

 SCF Done:  E(RB3LYP) =  -826.227880822     A.U. after   15 cycles
 Normal termination of Gaussian 16 at Mon Dec 14 16:30:06 2020.

 ----------------------------------------------------------------------
 # B3LYP/6-311++G(d,p) empiricaldispersion=gd3bj scf=xqc pop=npa geom=c
 heck
 ----------------------------------------------------------------------

 ------------------------------------
 CID_129885334_JID_713_Energie_kation
 ------------------------------------
 Structure from the checkpoint file:  "JID_713.chk"
 Charge =  1 Multiplicity = 2

 SCF Done:  E(UB3LYP) =  -825.889735694     A.U. after   33 cycles
 SCF Done:  E(UB3LYP) =  -825.889735694     a.u. after    2 cycles
 Normal termination of Gaussian 16 at Mon Dec 14 16:33:32 2020.
 Gaussian 16:  ES64L-G16RevA.03 25-Dec-2016

 ----------------------------------------------------------------------
 # B3LYP/6-311++G(d,p) empiricaldispersion=gd3bj scf=xqc pop=npa geom=c
 heck
 ----------------------------------------------------------------------

 -----------------------------------
 CID_129885334_JID_713_Energie_anion
 -----------------------------------
 Structure from the checkpoint file:  "JID_713.chk"
 Charge = -1 Multiplicity = 2

                         Standard orientation:
 ---------------------------------------------------------------------
 Center     Atomic      Atomic             Coordinates (Angstroms)
 Number     Number       Type             X           Y           Z
 ---------------------------------------------------------------------
      1          6           0        2.277278    0.829482   -0.000004
      2          6           0        2.726646   -0.488916    0.000003
      3          7           0        1.937594   -1.593606    0.000011
      4          7           0        0.618871   -1.479041    0.000014
      5          6           0        0.148992   -0.231090    0.000014
      6          6           0        0.891855    0.966135    0.000000
      7          7           0        0.019849    2.031057    0.000010
      8          7           0       -1.190947    1.557861   -0.000056
      9          7           0       -1.148113    0.193256    0.000008
     10         16           0       -2.581570   -0.792823   -0.000045
     11          1           0        2.956767    1.674861   -0.000008
     12          1           0        3.788489   -0.712496    0.000004
     13          1           0       -3.369524    0.302441    0.000735
 ---------------------------------------------------------------------

 SCF Done:  E(UB3LYP) =  -826.266613045     A.U. after   22 cycles

 The electronic state is 2-A.
 Alpha  occ. eigenvalues --  -88.77353 -14.25705 -14.20847 -14.17914 -14.16356
 Alpha  occ. eigenvalues --  -14.16274 -10.08488 -10.04890 -10.04807 -10.02213
 Alpha  occ. eigenvalues --   -7.85758  -5.82313  -5.81774  -5.80993  -0.94539
 Alpha  occ. eigenvalues --   -0.84882  -0.77483  -0.67227  -0.65862  -0.61927
 Alpha  occ. eigenvalues --   -0.54333  -0.49426  -0.45542  -0.39453  -0.38535
 Alpha  occ. eigenvalues --   -0.33782  -0.33558  -0.29153  -0.27623  -0.26567
 Alpha  occ. eigenvalues --   -0.25418  -0.20953  -0.19332  -0.16854  -0.15035
 Alpha  occ. eigenvalues --   -0.13170  -0.12374  -0.09763  -0.07495   0.02940
 Alpha virt. eigenvalues --    0.08255   0.09585   0.10226   0.12491   0.14148
 Alpha virt. eigenvalues --    0.14710   0.14822   0.15701   0.15932   0.17941
 Alpha virt. eigenvalues --    0.18282   0.18647   0.18867   0.19476   0.20314

  Beta  occ. eigenvalues --  -88.77357 -14.25598 -14.20103 -14.17835 -14.15831
  Beta  occ. eigenvalues --  -14.15796 -10.08583 -10.04942 -10.04854 -10.01801
  Beta  occ. eigenvalues --   -7.85761  -5.82320  -5.81778  -5.80998  -0.93915
  Beta  occ. eigenvalues --   -0.83978  -0.77175  -0.66653  -0.65303  -0.61702
  Beta  occ. eigenvalues --   -0.53258  -0.49277  -0.45256  -0.39093  -0.38302
  Beta  occ. eigenvalues --   -0.33276  -0.32563  -0.29044  -0.27565  -0.26321
  Beta  occ. eigenvalues --   -0.23360  -0.19894  -0.18818  -0.16262  -0.13905
  Beta  occ. eigenvalues --   -0.11849  -0.10819  -0.08574  -0.06819
  Beta virt. eigenvalues --    0.08301   0.09593   0.10213   0.10503   0.12476
  Beta virt. eigenvalues --    0.14607   0.14700   0.15591   0.15707   0.17249
  Beta virt. eigenvalues --    0.17956   0.18272   0.18677   0.19326   0.19461

 Mulliken charges and spin densities:
               1          2
     1  C    0.151552   0.358793
     2  C   -0.498753  -0.108745
     3  N   -0.144586   0.213262
     4  N   -0.227676   0.244029
     5  C   -0.357918  -0.084227
     6  C   -0.079033   0.013779
     7  N   -0.303033   0.016909
     8  N    0.052231   0.349667
     9  N    0.132301   0.014562
    10  S   -0.057341   0.002049
    11  H    0.122744  -0.022765
    12  H    0.126164   0.002544
    13  H    0.083347   0.000143
 Sum of Mulliken charges =  -1.00000   1.00000

 Dipole moment (field-independent basis, Debye):
    X=             -2.6087    Y=              0.5763    Z=              0.0005  Tot=              2.6716
 Quadrupole moment (field-independent basis, Debye-Ang):
   XX=            -74.4199   YY=            -93.4740   ZZ=            -70.8419
   XY=              8.1027   XZ=             -0.0028   YZ=              0.0012

 Summary of Natural Population Analysis:

                                       Natural Population
                Natural  -----------------------------------------------
    Atom  No    Charge         Core      Valence    Rydberg      Total
 -----------------------------------------------------------------------
      C    1   -0.03600      0.99952     2.02789    0.00859     3.03600
      C    2   -0.04796      0.99962     2.03322    0.01513     3.04796
      N    3   -0.07370      0.99975     2.55540    0.01855     3.57370
      N    4   -0.07433      0.99967     2.55817    0.01648     3.57433
      C    5    0.13223      0.99945     1.85087    0.01746     2.86777
      C    6    0.03215      0.99945     1.95156    0.01683     2.96785
      N    7   -0.14583      0.99973     2.62899    0.01711     3.64583
      N    8    0.06669      0.99977     2.41537    0.01816     3.43331
      N    9   -0.17889      0.99958     2.66462    0.01469     3.67889
      S   10    0.09004      4.99964     2.89103    0.01929     7.90996
      H   11    0.09219      0.00000     0.40589    0.00193     0.40781
      H   12    0.08356      0.00000     0.41506    0.00137     0.41644
      H   13    0.05984      0.00000     0.43665    0.00351     0.44016
 =======================================================================
   * Total *   -0.00000     13.99617    24.83472    0.16911    39.00000

 Normal termination of Gaussian 16 at Mon Dec 14 16:34:34 2020.
