 Gaussian 16, Revision A.03,

 -----------------------------------------------------------
 # opt freq B3LYP/6-31G(d) empiricaldispersion=gd3bj scf=xqc
 -----------------------------------------------------------

 -------------------------------
 CID_131498514_JID_1227_neutraal
 -------------------------------
 Symbolic Z-matrix:
 Charge =  0 Multiplicity = 1

 SCF Done:  E(RB3LYP) =  -512.828684802     A.U. after   14 cycles
 SCF Done:  E(RB3LYP) =  -512.835200413     A.U. after   12 cycles
 SCF Done:  E(RB3LYP) =  -512.836696166     A.U. after   11 cycles
 SCF Done:  E(RB3LYP) =  -512.837135180     A.U. after   11 cycles
 SCF Done:  E(RB3LYP) =  -512.837253543     A.U. after   10 cycles
 SCF Done:  E(RB3LYP) =  -512.837301780     A.U. after   10 cycles
 SCF Done:  E(RB3LYP) =  -512.837329448     A.U. after   10 cycles
 SCF Done:  E(RB3LYP) =  -512.837335525     A.U. after    9 cycles
 SCF Done:  E(RB3LYP) =  -512.837338588     A.U. after    8 cycles
 SCF Done:  E(RB3LYP) =  -512.837340241     A.U. after    9 cycles
 SCF Done:  E(RB3LYP) =  -512.837478928     A.U. after   12 cycles
 SCF Done:  E(RB3LYP) =  -512.837531638     A.U. after   11 cycles
 SCF Done:  E(RB3LYP) =  -512.837538206     A.U. after    9 cycles
 SCF Done:  E(RB3LYP) =  -512.837542108     A.U. after    9 cycles
 SCF Done:  E(RB3LYP) =  -512.837543245     A.U. after    8 cycles
 SCF Done:  E(RB3LYP) =  -512.837543489     A.U. after    7 cycles
 Optimization completed.
    -- Stationary point found.
 Normal termination of Gaussian 16 at Tue Dec  8 19:34:44 2020.

 --------------------------------------------------------------------
 #N Geom=AllCheck Guess=TCheck SCRF=Check GenChk RB3LYP/6-31G(d) Freq
 --------------------------------------------------------------------

 Structure from the checkpoint file:  "JID_1227.chk"
 -------------------------------
 CID_131498514_JID_1227_neutraal
 -------------------------------
 Charge =  0 Multiplicity = 1

 SCF Done:  E(RB3LYP) =  -512.837543489     A.U. after    2 cycles

  Exact polarizability: 119.223   0.961  95.871   0.047   0.765  58.565
 Approx polarizability: 160.277   2.240 153.447  -0.524   3.555  88.712

                      1                      2                      3
                      A                      A                      A
 Frequencies --     72.2967                85.5449               135.2057
 Red. masses --      1.2275                 2.3234                 2.9869
 Frc consts  --      0.0038                 0.0100                 0.0322
 IR Inten    --      0.5723                 0.9334                 2.9344

                      4                      5                      6
                      A                      A                      A
 Frequencies --    192.3344               219.3814               230.0186
 Red. masses --      2.8002                 2.5627                 1.1199
 Frc consts  --      0.0610                 0.0727                 0.0349
 IR Inten    --      3.4112                 2.8054                 0.7664

                      7                      8                      9
                      A                      A                      A
 Frequencies --    304.4613               307.1379               347.5528
 Red. masses --      4.6863                 2.6752                 5.4850
 Frc consts  --      0.2559                 0.1487                 0.3904
 IR Inten    --      1.2467                 2.6811                 7.4600

                     10                     11                     12
                      A                      A                      A
 Frequencies --    412.1202               462.2051               488.0410
 Red. masses --      4.4692                 2.2840                 3.5601
 Frc consts  --      0.4472                 0.2875                 0.4996
 IR Inten    --      5.3569                11.3949                 6.0071

                     13                     14                     15
                      A                      A                      A
 Frequencies --    564.3676               624.2674               638.7054
 Red. masses --      4.6378                 9.0554                 3.9362
 Frc consts  --      0.8703                 2.0792                 0.9461
 IR Inten    --      3.5985                 1.4413                50.8456

                     16                     17                     18
                      A                      A                      A
 Frequencies --    673.7522               716.5746               761.6222
 Red. masses --      4.5918                 2.9274                 3.0273
 Frc consts  --      1.2281                 0.8856                 1.0346
 IR Inten    --     12.0302                28.0268                24.7849

                     19                     20                     21
                      A                      A                      A
 Frequencies --    825.5949               844.1664               879.6996
 Red. masses --      1.2976                 3.8096                 2.0563
 Frc consts  --      0.5211                 1.5995                 0.9376
 IR Inten    --     15.7892                26.6705                11.2681

                     22                     23                     24
                      A                      A                      A
 Frequencies --    962.9445               973.8365              1018.2353
 Red. masses --      1.5965                 1.9512                 2.3824
 Frc consts  --      0.8722                 1.0902                 1.4554
 IR Inten    --      5.7119                 3.1680                11.2830

                     25                     26                     27
                      A                      A                      A
 Frequencies --   1048.1582              1098.8698              1150.3163
 Red. masses --      4.8181                 2.6304                 2.1075
 Frc consts  --      3.1188                 1.8714                 1.6431
 IR Inten    --    128.2318                17.2532                 3.3358

                     28                     29                     30
                      A                      A                      A
 Frequencies --   1159.0373              1171.3999              1187.4511
 Red. masses --      1.3157                 2.8044                 2.2213
 Frc consts  --      1.0413                 2.2672                 1.8454
 IR Inten    --     10.5441                16.0168                 4.9744

                     31                     32                     33
                      A                      A                      A
 Frequencies --   1227.6408              1249.6787              1285.6587
 Red. masses --      1.5566                 2.9331                 1.1963
 Frc consts  --      1.3822                 2.6989                 1.1650
 IR Inten    --      3.1379                23.7697                 5.4523

                     34                     35                     36
                      A                      A                      A
 Frequencies --   1331.4192              1355.7889              1374.1347
 Red. masses --      2.4013                 1.9780                 1.6075
 Frc consts  --      2.5080                 2.1422                 1.7883
 IR Inten    --     15.3483                31.2010                 9.2638

                     37                     38                     39
                      A                      A                      A
 Frequencies --   1398.0304              1411.6545              1439.9195
 Red. masses --      1.3719                 2.4285                 1.2950
 Frc consts  --      1.5798                 2.8513                 1.5820
 IR Inten    --     46.0593                78.1238                12.4759

                     40                     41                     42
                      A                      A                      A
 Frequencies --   1458.4378              1470.0453              1496.8464
 Red. masses --      1.8316                 1.3698                 1.9077
 Frc consts  --      2.2954                 1.7441                 2.5183
 IR Inten    --     35.8128                17.0269                63.6714

                     43                     44                     45
                      A                      A                      A
 Frequencies --   1513.5139              1517.8873              1526.9617
 Red. masses --      1.1255                 1.1323                 1.1083
 Frc consts  --      1.5190                 1.5370                 1.5226
 IR Inten    --      5.8419                 1.2653                 3.8471

                     46                     47                     48
                      A                      A                      A
 Frequencies --   1529.4630              1535.6084              1606.6029
 Red. masses --      1.0493                 1.1238                 4.8851
 Frc consts  --      1.4462                 1.5613                 7.4292
 IR Inten    --      4.0725                 1.1839                76.0685

                     49                     50                     51
                      A                      A                      A
 Frequencies --   1674.2190              2963.1554              3052.9384
 Red. masses --      7.8281                 1.0824                 1.0410
 Frc consts  --     12.9281                 5.5997                 5.7168
 IR Inten    --     88.4987                48.7421                14.4218

                     52                     53                     54
                      A                      A                      A
 Frequencies --   3057.5152              3058.0678              3119.5287
 Red. masses --      1.0492                 1.0525                 1.1021
 Frc consts  --      5.7787                 5.7990                 6.3191
 IR Inten    --     87.0980                21.6785                22.5709

                     55                     56                     57
                      A                      A                      A
 Frequencies --   3131.7973              3132.9124              3148.1217
 Red. masses --      1.1031                 1.0947                 1.1011
 Frc consts  --      6.3744                 6.3306                 6.4295
 IR Inten    --     18.6048                15.8411                33.7741

                     58                     59                     60
                      A                      A                      A
 Frequencies --   3175.3540              3252.6956              3520.9231
 Red. masses --      1.1052                 1.0956                 1.0749
 Frc consts  --      6.5657                 6.8295                 7.8514
 IR Inten    --      5.8223                 9.5101                 1.5331

 - Thermochemistry -
 -------------------
 Temperature   298.150 Kelvin.  Pressure   1.00000 Atm.
 Atom     1 has atomic number  6 and mass  12.00000

 Molecular mass:   153.09021 amu.
 Principal axes and moments of inertia in atomic units:
                           1         2         3
     Eigenvalues --   716.582732171.130392810.64930
           X            0.99984  -0.01809  -0.00023
           Y            0.01808   0.99981  -0.00680
           Z            0.00036   0.00679   0.99998
 This molecule is an asymmetric top.
 Rotational symmetry number  1.
 Warning -- assumption of classical behavior for rotation
           may cause significant error
 Rotational temperatures (Kelvin)      0.12087     0.03989     0.03082
 Rotational constants (GHZ):           2.51854     0.83124     0.64211
 Zero-point vibrational energy     487907.8 (Joules/Mol)
                                  116.61277 (Kcal/Mol)
 Warning -- explicit consideration of  13 degrees of freedom as
           vibrations may cause significant error
 Vibrational temperatures:    104.02   123.08   194.53   276.73   315.64
          (Kelvin)            330.95   438.05   441.90   500.05   592.95
                              665.01   702.18   812.00   898.18   918.95
                              969.38  1030.99  1095.80  1187.85  1214.57
                             1265.69  1385.46  1401.13  1465.01  1508.07
                             1581.03  1655.05  1667.60  1685.38  1708.48
                             1766.30  1798.01  1849.78  1915.62  1950.68
                             1977.07  2011.45  2031.06  2071.72  2098.37
                             2115.07  2153.63  2177.61  2183.90  2196.96
                             2200.56  2209.40  2311.54  2408.83  4263.32
                             4392.50  4399.08  4399.88  4488.31  4505.96
                             4507.56  4529.45  4568.63  4679.90  5065.82

 Zero-point correction=                           0.185834 (Hartree/Particle)
 Thermal correction to Energy=                    0.195848
 Thermal correction to Enthalpy=                  0.196792
 Thermal correction to Gibbs Free Energy=         0.150432
 Sum of electronic and zero-point Energies=           -512.651709
 Sum of electronic and thermal Energies=              -512.641696
 Sum of electronic and thermal Enthalpies=            -512.640752
 Sum of electronic and thermal Free Energies=         -512.687111

                     E (Thermal)             CV                S
                      KCal/Mol        Cal/Mol-Kelvin    Cal/Mol-Kelvin
 Total                  122.896             37.951             97.572
 Electronic               0.000              0.000              0.000
 Translational            0.889              2.981             40.987
 Rotational               0.889              2.981             29.860
 Vibrational            121.119             31.989             26.725
 Vibration     1          0.598              1.967              4.090
 Vibration     2          0.601              1.959              3.759
 Vibration     3          0.613              1.918              2.871
 Vibration     4          0.634              1.850              2.205
 Vibration     5          0.647              1.812              1.964
 Vibration     6          0.652              1.795              1.879
 Vibration     7          0.695              1.665              1.392
 Vibration     8          0.697              1.660              1.378
 Vibration     9          0.725              1.580              1.177
 Vibration    10          0.776              1.444              0.919
 Vibration    11          0.820              1.334              0.760
 Vibration    12          0.844              1.277              0.689
 Vibration    13          0.920              1.108              0.515

 Optimization completed.
    -- Stationary point found.
 Normal termination of Gaussian 16 at Tue Dec  8 19:39:15 2020.

 ----------------------------------------------------------------------
 # B3LYP/6-311++G(d,p) empiricaldispersion=gd3bj scf=xqc pop=npa geom=c
 heck
 ----------------------------------------------------------------------

 ---------------------------------------
 CID_131498514_JID_1227_Energie_neutraal
 ---------------------------------------
 Structure from the checkpoint file:  "JID_1227.chk"
 Charge =  0 Multiplicity = 1

 SCF Done:  E(RB3LYP) =  -512.980372777     A.U. after   14 cycles
 Normal termination of Gaussian 16 at Tue Dec  8 19:41:06 2020.

 ----------------------------------------------------------------------
 # B3LYP/6-311++G(d,p) empiricaldispersion=gd3bj scf=xqc pop=npa geom=c
 heck
 ----------------------------------------------------------------------

 -------------------------------------
 CID_131498514_JID_1227_Energie_kation
 -------------------------------------
 Structure from the checkpoint file:  "JID_1227.chk"
 Charge =  1 Multiplicity = 2

 SCF Done:  E(UB3LYP) =  -512.714438875     A.U. after   20 cycles
 Normal termination of Gaussian 16 at Tue Dec  8 19:44:48 2020.
 Gaussian 16:  ES64L-G16RevA.03 25-Dec-2016

 ----------------------------------------------------------------------
 # B3LYP/6-311++G(d,p) empiricaldispersion=gd3bj scf=xqc pop=npa geom=c
 heck
 ----------------------------------------------------------------------

 ------------------------------------
 CID_131498514_JID_1227_Energie_anion
 ------------------------------------
 Structure from the checkpoint file:  "JID_1227.chk"
 Charge = -1 Multiplicity = 2

                         Standard orientation:
 ---------------------------------------------------------------------
 Center     Atomic      Atomic             Coordinates (Angstroms)
 Number     Number       Type             X           Y           Z
 ---------------------------------------------------------------------
      1          6           0       -3.521962    0.043298   -0.030160
      2          6           0       -2.034902   -0.057592   -0.354973
      3          6           0       -1.413794   -1.287528    0.327632
      4          8           0       -0.029932   -1.485738   -0.034398
      5          6           0        0.623109   -0.296127   -0.004250
      6          6           0        0.067701    0.967046    0.048490
      7          7           0       -1.335092    1.145576    0.121501
      8          6           0        1.186871    1.827551    0.074968
      9          7           0        2.338550    1.145166    0.037009
     10          7           0        1.973033   -0.166591    0.011260
     11          6           0        2.962081   -1.211847   -0.120776
     12          1           0       -4.068344   -0.827833   -0.407621
     13          1           0       -3.956014    0.936248   -0.493792
     14          1           0       -3.673938    0.118965    1.051493
     15          1           0       -1.900499   -0.197864   -1.442382
     16          1           0       -1.484537   -1.176938    1.417156
     17          1           0       -1.929941   -2.197913    0.017883
     18          1           0       -1.647347    1.969982   -0.384299
     19          1           0        1.207626    2.908518    0.121945
     20          1           0        2.574065   -2.127964    0.330621
     21          1           0        3.203936   -1.404851   -1.172569
     22          1           0        3.864388   -0.892315    0.402775
 ---------------------------------------------------------------------

 SCF Done:  E(UB3LYP) =  -512.965168395     A.U. after   31 cycles

 The electronic state is 2-A.
 Alpha  occ. eigenvalues --  -19.06161 -14.28251 -14.21908 -14.21111 -10.14702
 Alpha  occ. eigenvalues --  -10.12655 -10.11313 -10.10619 -10.08841 -10.08425
 Alpha  occ. eigenvalues --  -10.05668  -0.98711  -0.93446  -0.82298  -0.73747
 Alpha  occ. eigenvalues --   -0.69346  -0.64123  -0.59968  -0.58786  -0.51382
 Alpha  occ. eigenvalues --   -0.50343  -0.44584  -0.44212  -0.39871  -0.38903
 Alpha  occ. eigenvalues --   -0.37856  -0.36399  -0.33707  -0.33630  -0.32503
 Alpha  occ. eigenvalues --   -0.30725  -0.29901  -0.28750  -0.27352  -0.26972
 Alpha  occ. eigenvalues --   -0.24300  -0.22184  -0.19748  -0.18956  -0.13489
 Alpha  occ. eigenvalues --   -0.08813   0.04693
 Alpha virt. eigenvalues --    0.06453   0.07825   0.08834   0.09112   0.09838
 Alpha virt. eigenvalues --    0.10080   0.10935   0.11438   0.12059   0.12872
 Alpha virt. eigenvalues --    0.13270   0.13972   0.14831   0.15998   0.17077

  Beta  occ. eigenvalues --  -19.06155 -14.28246 -14.21902 -14.21074 -10.14699
  Beta  occ. eigenvalues --  -10.12627 -10.11286 -10.10601 -10.08840 -10.08422
  Beta  occ. eigenvalues --  -10.05611  -0.98699  -0.93435  -0.82255  -0.73729
  Beta  occ. eigenvalues --   -0.69311  -0.64074  -0.59919  -0.58724  -0.51305
  Beta  occ. eigenvalues --   -0.50308  -0.44535  -0.44173  -0.39826  -0.38862
  Beta  occ. eigenvalues --   -0.37827  -0.36350  -0.33679  -0.33592  -0.32454
  Beta  occ. eigenvalues --   -0.30683  -0.29867  -0.28699  -0.27288  -0.26915
  Beta  occ. eigenvalues --   -0.24272  -0.22145  -0.19701  -0.18935  -0.13471
  Beta  occ. eigenvalues --   -0.08781
  Beta virt. eigenvalues --    0.06941   0.07789   0.08739   0.09378   0.09831
  Beta virt. eigenvalues --    0.10294   0.10724   0.11463   0.11948   0.12448
  Beta virt. eigenvalues --    0.13377   0.13775   0.14157   0.14897   0.16122

 Mulliken charges and spin densities:
               1          2
     1  C    2.648448  -3.183596
     2  C   -2.470204   2.416715
     3  C    1.446056  -1.882759
     4  O   -0.205752   0.058767
     5  C   -0.703561   0.557120
     6  C    0.582709  -0.400157
     7  N   -0.202192   0.199106
     8  C    0.633734  -0.903986
     9  N   -0.373713   0.049565
    10  N    0.005513   0.161483
    11  C    0.492929  -0.829351
    12  H   -0.344605   0.486167
    13  H   -0.778229   0.929377
    14  H   -0.161595   0.306208
    15  H   -0.387788   0.583018
    16  H    0.029935   0.160418
    17  H   -0.486179   0.688489
    18  H   -0.147450   0.391448
    19  H   -0.148498   0.295160
    20  H   -0.181650   0.344923
    21  H   -0.183281   0.355852
    22  H   -0.064627   0.216032
 Sum of Mulliken charges =  -1.00000   1.00000

 Dipole moment (field-independent basis, Debye):
    X=              5.0528    Y=              0.1691    Z=              2.1016  Tot=              5.4750
 Quadrupole moment (field-independent basis, Debye-Ang):
   XX=           -140.0713   YY=           -106.8539   ZZ=            -92.9857
   XY=              0.9822   XZ=             -5.9802   YZ=             -0.4483

 Summary of Natural Population Analysis:

                                       Natural Population
                Natural  -----------------------------------------------
    Atom  No    Charge         Core      Valence    Rydberg      Total
 -----------------------------------------------------------------------
      C    1   -0.28676      0.99964     2.28026    0.00686     3.28676
      C    2   -0.02521      0.99961     2.01324    0.01236     3.02521
      C    3   -0.00986      0.99953     1.99816    0.01217     3.00986
      O    4   -0.27259      0.99987     3.26401    0.00871     4.27259
      C    5    0.22982      0.99932     1.75643    0.01443     2.77018
      C    6   -0.00006      0.99941     1.98884    0.01181     3.00006
      N    7   -0.32509      0.99969     2.81349    0.01191     3.82509
      C    8   -0.02125      0.99960     2.00809    0.01356     3.02125
      N    9   -0.16696      0.99974     2.65552    0.01170     3.66696
      N   10   -0.12106      0.99962     2.60910    0.01234     3.62106
      C   11   -0.17486      0.99964     2.16680    0.00841     3.17486
      H   12    0.10482      0.00000     0.39252    0.00266     0.39518
      H   13    0.10638      0.00000     0.39060    0.00301     0.39362
      H   14    0.10027      0.00000     0.39828    0.00146     0.39973
      H   15    0.08811      0.00000     0.40907    0.00282     0.41189
      H   16    0.08670      0.00000     0.41186    0.00144     0.41330
      H   17    0.10006      0.00000     0.39783    0.00211     0.39994
      H   18    0.18640      0.00000     0.30938    0.00422     0.31360
      H   19    0.09624      0.00000     0.40265    0.00112     0.40376
      H   20    0.10456      0.00000     0.39397    0.00146     0.39544
      H   21    0.09599      0.00000     0.40274    0.00127     0.40401
      H   22    0.10437      0.00000     0.39416    0.00148     0.39563
 =======================================================================
   * Total *    0.00000     10.99567    29.85700    0.14733    41.00000

 Normal termination of Gaussian 16 at Tue Dec  8 19:50:34 2020.
