 Gaussian 16, Revision A.03,

 -----------------------------------------------------------
 # opt freq B3LYP/6-31G(d) empiricaldispersion=gd3bj scf=xqc
 -----------------------------------------------------------

 ------------------------------
 CID_10332171_JID_8332_neutraal
 ------------------------------
 Symbolic Z-matrix:
 Charge =  0 Multiplicity = 1

 SCF Done:  E(RB3LYP) =  -773.391477953     A.U. after   14 cycles
 SCF Done:  E(RB3LYP) =  -773.399115990     A.U. after   12 cycles
 SCF Done:  E(RB3LYP) =  -773.399212613     A.U. after   12 cycles
 SCF Done:  E(RB3LYP) =  -773.397073577     A.U. after   13 cycles
 SCF Done:  E(RB3LYP) =  -773.400017161     A.U. after   12 cycles
 SCF Done:  E(RB3LYP) =  -773.400629908     A.U. after   12 cycles
 SCF Done:  E(RB3LYP) =  -773.400716317     A.U. after   11 cycles
 SCF Done:  E(RB3LYP) =  -773.400745368     A.U. after   11 cycles
 SCF Done:  E(RB3LYP) =  -773.400782970     A.U. after   10 cycles
 SCF Done:  E(RB3LYP) =  -773.400786829     A.U. after    8 cycles
 SCF Done:  E(RB3LYP) =  -773.400787353     A.U. after    7 cycles
 SCF Done:  E(RB3LYP) =  -773.400787461     A.U. after    7 cycles
 SCF Done:  E(RB3LYP) =  -773.400787500     A.U. after    6 cycles
 Optimization completed.
    -- Stationary point found.
 Normal termination of Gaussian 16 at Fri Dec 11 20:05:42 2020.

 --------------------------------------------------------------------
 #N Geom=AllCheck Guess=TCheck SCRF=Check GenChk RB3LYP/6-31G(d) Freq
 --------------------------------------------------------------------

 Structure from the checkpoint file:  "JID_8332.chk"
 ------------------------------
 CID_10332171_JID_8332_neutraal
 ------------------------------
 Charge =  0 Multiplicity = 1

 SCF Done:  E(RB3LYP) =  -773.400787500     A.U. after    1 cycles

  Exact polarizability: 191.065  16.799 192.351   9.079  -5.871 130.770
 Approx polarizability: 253.603  26.407 289.932  29.510 -10.335 219.093

                      1                      2                      3
                      A                      A                      A
 Frequencies --     25.1895                40.1017                49.6471
 Red. masses --      4.1334                 4.0895                 2.6796
 Frc consts  --      0.0015                 0.0039                 0.0039
 IR Inten    --      0.0022                 1.2111                 0.4293

                      4                      5                      6
                      A                      A                      A
 Frequencies --     57.0900                87.0619                95.7877
 Red. masses --      3.4868                 3.2690                 4.4700
 Frc consts  --      0.0067                 0.0146                 0.0242
 IR Inten    --      0.5046                 3.0592                 0.6138

                      7                      8                      9
                      A                      A                      A
 Frequencies --    109.2582               147.7685               166.4560
 Red. masses --      4.9412                 3.7053                 3.4248
 Frc consts  --      0.0348                 0.0477                 0.0559
 IR Inten    --      0.1314                 2.8134                 0.5517

                     10                     11                     12
                      A                      A                      A
 Frequencies --    195.2737               215.1825               230.9128
 Red. masses --      1.6583                 2.7386                 2.0158
 Frc consts  --      0.0373                 0.0747                 0.0633
 IR Inten    --      0.7022                 0.2006                 1.5678

                     13                     14                     15
                      A                      A                      A
 Frequencies --    238.7762               254.1956               280.1275
 Red. masses --      1.6764                 2.5590                 2.0890
 Frc consts  --      0.0563                 0.0974                 0.0966
 IR Inten    --      0.9438                 1.3751                 1.0599

                     16                     17                     18
                      A                      A                      A
 Frequencies --    291.2165               303.7295               328.4806
 Red. masses --      1.8865                 2.1268                 3.0207
 Frc consts  --      0.0943                 0.1156                 0.1920
 IR Inten    --      3.3801                 0.3119                 0.4279

                     19                     20                     21
                      A                      A                      A
 Frequencies --    383.3588               403.9050               422.1020
 Red. masses --      4.3253                 2.9098                 2.2265
 Frc consts  --      0.3745                 0.2797                 0.2337
 IR Inten    --      3.6224                 0.8437                16.2859

                     22                     23                     24
                      A                      A                      A
 Frequencies --    433.0204               467.7255               488.3291
 Red. masses --      2.8605                 3.3850                 2.6370
 Frc consts  --      0.3160                 0.4363                 0.3705
 IR Inten    --      0.3973                 0.7029                 0.2850

                     25                     26                     27
                      A                      A                      A
 Frequencies --    497.1421               551.6134               586.8505
 Red. masses --      1.2559                 4.4187                 2.7988
 Frc consts  --      0.1829                 0.7922                 0.5679
 IR Inten    --     90.9782                 5.5580                 5.7843

                     28                     29                     30
                      A                      A                      A
 Frequencies --    594.2077               641.9064               660.1446
 Red. masses --      2.4345                 4.5750                 3.0526
 Frc consts  --      0.5065                 1.1107                 0.7838
 IR Inten    --      2.4047                 9.5414                 5.4255

                     31                     32                     33
                      A                      A                      A
 Frequencies --    726.2308               747.9944               754.4196
 Red. masses --      3.4114                 3.0498                 2.5067
 Frc consts  --      1.0601                 1.0054                 0.8406
 IR Inten    --      0.9024                 2.1632                 7.2443

                     34                     35                     36
                      A                      A                      A
 Frequencies --    798.0446               809.8841               818.2285
 Red. masses --      4.4911                 1.2933                 1.4455
 Frc consts  --      1.6852                 0.4998                 0.5702
 IR Inten    --      1.6370                 4.7780                33.1397

                     37                     38                     39
                      A                      A                      A
 Frequencies --    828.6444               880.2652               885.5670
 Red. masses --      1.9848                 1.4290                 1.6242
 Frc consts  --      0.8030                 0.6524                 0.7505
 IR Inten    --      1.9115                12.4203                20.0601

                     40                     41                     42
                      A                      A                      A
 Frequencies --    911.3583               929.1954               935.7516
 Red. masses --      2.2072                 1.7235                 1.8178
 Frc consts  --      1.0801                 0.8768                 0.9378
 IR Inten    --     10.7438                 1.0100                 1.2111

                     43                     44                     45
                      A                      A                      A
 Frequencies --    948.2627               976.0441               983.9142
 Red. masses --      1.8164                 1.6329                 2.5703
 Frc consts  --      0.9623                 0.9165                 1.4660
 IR Inten    --      4.2204                 2.3357                10.1403

                     46                     47                     48
                      A                      A                      A
 Frequencies --   1008.6878              1023.8764              1049.0066
 Red. masses --      2.1139                 2.5966                 4.8622
 Frc consts  --      1.2672                 1.6038                 3.1524
 IR Inten    --      1.9832                 5.5690                44.4142

                     49                     50                     51
                      A                      A                      A
 Frequencies --   1064.5507              1076.2878              1087.6731
 Red. masses --      2.4174                 2.1514                 1.8428
 Frc consts  --      1.6141                 1.4683                 1.2845
 IR Inten    --     15.5629                18.8351                 6.9347

                     52                     53                     54
                      A                      A                      A
 Frequencies --   1098.2240              1121.3392              1132.8105
 Red. masses --      1.7406                 2.3154                 1.7440
 Frc consts  --      1.2369                 1.7153                 1.3186
 IR Inten    --      5.6876                31.6492                15.0925

                     55                     56                     57
                      A                      A                      A
 Frequencies --   1143.8175              1173.1317              1186.4217
 Red. masses --      1.7821                 1.5197                 1.2713
 Frc consts  --      1.3737                 1.2323                 1.0543
 IR Inten    --      6.1206                 9.9217                 0.8098

                     58                     59                     60
                      A                      A                      A
 Frequencies --   1201.8125              1203.1620              1219.4622
 Red. masses --      1.7324                 1.6089                 1.5275
 Frc consts  --      1.4742                 1.3722                 1.3384
 IR Inten    --     39.2018                 1.2677                14.0690

                     61                     62                     63
                      A                      A                      A
 Frequencies --   1223.4911              1226.6644              1237.2873
 Red. masses --      1.1021                 1.4846                 1.5937
 Frc consts  --      0.9720                 1.3162                 1.4375
 IR Inten    --      6.6359                 7.8029                 4.0069

                     64                     65                     66
                      A                      A                      A
 Frequencies --   1258.3981              1272.7415              1284.1566
 Red. masses --      1.5457                 2.1651                 1.4601
 Frc consts  --      1.4422                 2.0664                 1.4186
 IR Inten    --      0.9137                61.8666                22.6262

                     67                     68                     69
                      A                      A                      A
 Frequencies --   1314.7795              1320.5382              1347.8722
 Red. masses --      1.6503                 1.3429                 1.4901
 Frc consts  --      1.6808                 1.3797                 1.5950
 IR Inten    --     83.0477                26.8576                 6.7405

                     70                     71                     72
                      A                      A                      A
 Frequencies --   1354.4298              1370.4270              1380.8239
 Red. masses --      1.3048                 1.3891                 1.9744
 Frc consts  --      1.4103                 1.5371                 2.2180
 IR Inten    --      7.2152                 1.7623                39.1407

                     73                     74                     75
                      A                      A                      A
 Frequencies --   1386.7467              1404.8907              1422.3383
 Red. masses --      1.8764                 1.5777                 1.4519
 Frc consts  --      2.1260                 1.8347                 1.7306
 IR Inten    --     35.8031                10.2926                 0.2558

                     76                     77                     78
                      A                      A                      A
 Frequencies --   1436.1443              1442.4280              1483.7203
 Red. masses --      1.2711                 1.2182                 3.2795
 Frc consts  --      1.5447                 1.4933                 4.2536
 IR Inten    --      6.8052                34.9879                20.9047

                     79                     80                     81
                      A                      A                      A
 Frequencies --   1495.2515              1501.1084              1508.5678
 Red. masses --      1.3644                 1.1350                 1.0897
 Frc consts  --      1.7973                 1.5069                 1.4611
 IR Inten    --     26.8618                10.0829                 5.0732

                     82                     83                     84
                      A                      A                      A
 Frequencies --   1514.0414              1521.6373              1525.4050
 Red. masses --      1.0956                 1.0483                 1.0550
 Frc consts  --      1.4797                 1.4301                 1.4463
 IR Inten    --      0.5003                 5.6809                 2.3465

                     85                     86                     87
                      A                      A                      A
 Frequencies --   1530.3916              1531.9409              1537.3803
 Red. masses --      1.5796                 1.0557                 1.0834
 Frc consts  --      2.1797                 1.4597                 1.5086
 IR Inten    --    120.3496                 6.9489                 3.7479

                     88                     89                     90
                      A                      A                      A
 Frequencies --   1541.1217              1541.7931              1649.7383
 Red. masses --      1.3125                 1.0962                 7.3059
 Frc consts  --      1.8367                 1.5353                11.7153
 IR Inten    --      4.2098                 5.0365                 7.8777

                     91                     92                     93
                      A                      A                      A
 Frequencies --   1667.1725              1747.0004              2998.0806
 Red. masses --      6.8025                 7.2106                 1.0702
 Frc consts  --     11.1399                12.9660                 5.6678
 IR Inten    --     72.1196                 1.1144                59.5892

                     94                     95                     96
                      A                      A                      A
 Frequencies --   3025.8293              3026.8979              3040.5162
 Red. masses --      1.0351                 1.0614                 1.0837
 Frc consts  --      5.5837                 5.7294                 5.9025
 IR Inten    --     61.2775                19.6073                32.0325

                     97                     98                     99
                      A                      A                      A
 Frequencies --   3042.2658              3048.5821              3060.9512
 Red. masses --      1.0620                 1.0352                 1.0583
 Frc consts  --      5.7911                 5.6685                 5.8421
 IR Inten    --     24.9146                32.6531                45.2203

                    100                    101                    102
                      A                      A                      A
 Frequencies --   3061.8432              3071.1829              3080.7695
 Red. masses --      1.0627                 1.1000                 1.0927
 Frc consts  --      5.8700                 6.1130                 6.1107
 IR Inten    --     14.9092                29.9617                55.3855

                    103                    104                    105
                      A                      A                      A
 Frequencies --   3083.0159              3084.9036              3098.8820
 Red. masses --      1.1024                 1.1066                 1.1003
 Frc consts  --      6.1734                 6.2047                 6.2256
 IR Inten    --     52.0379                42.9760                 2.1059

                    106                    107                    108
                      A                      A                      A
 Frequencies --   3108.3304              3117.6378              3123.6464
 Red. masses --      1.1071                 1.1023                 1.1030
 Frc consts  --      6.3023                 6.3123                 6.3411
 IR Inten    --     29.2745                38.8403                45.0139

                    109                    110                    111
                      A                      A                      A
 Frequencies --   3143.6259              3159.0087              3212.5831
 Red. masses --      1.0883                 1.0998                 1.0909
 Frc consts  --      6.3367                 6.4664                 6.6332
 IR Inten    --     31.0786                29.3634                16.0533

                    112                    113                    114
                      A                      A                      A
 Frequencies --   3214.5329              3231.3662              3695.6976
 Red. masses --      1.0882                 1.0919                 1.0660
 Frc consts  --      6.6254                 6.7178                 8.5782
 IR Inten    --      2.9654                10.4620               112.9154

 - Thermochemistry -
 -------------------
 Temperature   298.150 Kelvin.  Pressure   1.00000 Atm.
 Atom     1 has atomic number  6 and mass  12.00000

 Molecular mass:   246.16198 amu.
 Principal axes and moments of inertia in atomic units:
                           1         2         3
     Eigenvalues --  3144.994086523.895058690.55323
           X            0.99991   0.01084  -0.00755
           Y           -0.01089   0.99992  -0.00667
           Z            0.00748   0.00675   0.99995
 This molecule is an asymmetric top.
 Rotational symmetry number  1.
 Warning -- assumption of classical behavior for rotation
           may cause significant error
 Rotational temperatures (Kelvin)      0.02754     0.01328     0.00997
 Rotational constants (GHZ):           0.57385     0.27664     0.20767
 Zero-point vibrational energy     919217.7 (Joules/Mol)
                                  219.69831 (Kcal/Mol)
 Warning -- explicit consideration of  28 degrees of freedom as
           vibrations may cause significant error
 Vibrational temperatures:     36.24    57.70    71.43    82.14   125.26
          (Kelvin)            137.82   157.20   212.61   239.49   280.96
                              309.60   332.23   343.55   365.73   403.04
                              419.00   437.00   472.61   551.57   581.13
                              607.31   623.02   672.95   702.60   715.28
                              793.65   844.35   854.93   923.56   949.80
                             1044.88  1076.20  1085.44  1148.21  1165.24
                             1177.25  1192.23  1266.51  1274.13  1311.24
                             1336.90  1346.34  1364.34  1404.31  1415.63
                             1451.28  1473.13  1509.29  1531.65  1548.54
                             1564.92  1580.10  1613.36  1629.86  1645.70
                             1687.87  1707.00  1729.14  1731.08  1754.53
                             1760.33  1764.90  1780.18  1810.55  1831.19
                             1847.61  1891.67  1899.96  1939.29  1948.72
                             1971.74  1986.70  1995.22  2021.32  2046.43
                             2066.29  2075.33  2134.74  2151.33  2159.76
                             2170.49  2178.37  2189.30  2194.72  2201.89
                             2204.12  2211.95  2217.33  2218.30  2373.61
                             2398.69  2513.54  4313.57  4353.49  4355.03
                             4374.62  4377.14  4386.23  4404.03  4405.31
                             4418.75  4432.54  4435.77  4438.49  4458.60
                             4472.19  4485.59  4494.23  4522.98  4545.11
                             4622.19  4625.00  4649.22  5317.28

 Zero-point correction=                           0.350112 (Hartree/Particle)
 Thermal correction to Energy=                    0.368367
 Thermal correction to Enthalpy=                  0.369311
 Thermal correction to Gibbs Free Energy=         0.302911
 Sum of electronic and zero-point Energies=           -773.050676
 Sum of electronic and thermal Energies=              -773.032421
 Sum of electronic and thermal Enthalpies=            -773.031476
 Sum of electronic and thermal Free Energies=         -773.097877

                     E (Thermal)             CV                S
                      KCal/Mol        Cal/Mol-Kelvin    Cal/Mol-Kelvin
 Total                  231.154             69.673            139.751
 Electronic               0.000              0.000              0.000
 Translational            0.889              2.981             42.403
 Rotational               0.889              2.981             33.544
 Vibrational            229.376             63.712             63.804
 Vibration     1          0.593              1.985              6.176
 Vibration     2          0.594              1.981              5.254
 Vibration     3          0.595              1.978              4.831
 Vibration     4          0.596              1.975              4.555
 Vibration     5          0.601              1.958              3.725
 Vibration     6          0.603              1.952              3.538
 Vibration     7          0.606              1.942              3.282
 Vibration     8          0.617              1.905              2.701
 Vibration     9          0.624              1.884              2.475
 Vibration    10          0.636              1.846              2.177
 Vibration    11          0.645              1.818              1.999
 Vibration    12          0.653              1.794              1.872
 Vibration    13          0.657              1.781              1.812
 Vibration    14          0.665              1.756              1.701
 Vibration    15          0.680              1.710              1.533
 Vibration    16          0.687              1.690              1.467
 Vibration    17          0.695              1.667              1.396
 Vibration    18          0.712              1.619              1.268
 Vibration    19          0.753              1.506              1.026
 Vibration    20          0.769              1.462              0.948
 Vibration    21          0.784              1.422              0.885
 Vibration    22          0.794              1.398              0.849
 Vibration    23          0.825              1.322              0.744
 Vibration    24          0.844              1.276              0.688
 Vibration    25          0.853              1.256              0.665
 Vibration    26          0.907              1.136              0.541
 Vibration    27          0.944              1.060              0.473
 Vibration    28          0.952              1.044              0.460

                           ! Non-Optimized Parameters !
 Normal termination of Gaussian 16 at Fri Dec 11 20:24:01 2020.

 ----------------------------------------------------------------------
 # B3LYP/6-311++G(d,p) empiricaldispersion=gd3bj scf=xqc pop=npa geom=c
 heck
 ----------------------------------------------------------------------

 --------------------------------------
 CID_10332171_JID_8332_Energie_neutraal
 --------------------------------------
 Structure from the checkpoint file:  "JID_8332.chk"
 Charge =  0 Multiplicity = 1

 SCF Done:  E(RB3LYP) =  -773.617097687     A.U. after   15 cycles
 Normal termination of Gaussian 16 at Fri Dec 11 20:31:46 2020.

 ----------------------------------------------------------------------
 # B3LYP/6-311++G(d,p) empiricaldispersion=gd3bj scf=xqc pop=npa geom=c
 heck
 ----------------------------------------------------------------------

 ------------------------------------
 CID_10332171_JID_8332_Energie_kation
 ------------------------------------
 Structure from the checkpoint file:  "JID_8332.chk"
 Charge =  1 Multiplicity = 2

 SCF Done:  E(UB3LYP) =  -773.335189365     A.U. after   23 cycles
 Normal termination of Gaussian 16 at Fri Dec 11 20:48:20 2020.
 Gaussian 16:  ES64L-G16RevA.03 25-Dec-2016

 ----------------------------------------------------------------------
 # B3LYP/6-311++G(d,p) empiricaldispersion=gd3bj scf=xqc pop=npa geom=c
 heck
 ----------------------------------------------------------------------

 -----------------------------------
 CID_10332171_JID_8332_Energie_anion
 -----------------------------------
 Structure from the checkpoint file:  "JID_8332.chk"
 Charge = -1 Multiplicity = 2

                         Standard orientation:
 ---------------------------------------------------------------------
 Center     Atomic      Atomic             Coordinates (Angstroms)
 Number     Number       Type             X           Y           Z
 ---------------------------------------------------------------------
      1          6           0        4.502503   -1.357580   -1.144597
      2          6           0        3.049559   -0.852407   -1.127871
      3          6           0        2.460431   -0.849696    0.263945
      4          6           0        2.324266    0.243225    1.027163
      5          6           0        2.631747    1.662147    0.623811
      6          6           0        1.515713    2.306051   -0.225742
      7          6           0        0.143203    2.432112    0.441529
      8          6           0       -0.964076    3.034378   -0.523331
      9          6           0       -1.704966    1.718113   -0.358791
     10          6           0       -0.758766    1.193559    0.526509
     11          6           0       -0.945081   -0.049998    1.108269
     12          6           0       -2.088411   -0.777052    0.727722
     13          6           0       -3.012209   -0.251181   -0.193263
     14          6           0       -2.840133    1.033295   -0.747281
     15          8           0       -4.130293   -0.916504   -0.608799
     16          6           0       -4.353527   -2.226518   -0.115082
     17          6           0        1.945035   -2.182243    0.755369
     18          8           0        0.842152   -2.638231   -0.030247
     19          1           0        5.148737   -0.704590   -0.547376
     20          1           0        4.895346   -1.386151   -2.167069
     21          1           0        4.578505   -2.369233   -0.730803
     22          1           0        3.012046    0.148182   -1.569494
     23          1           0        2.430521   -1.500624   -1.759548
     24          1           0        1.888303    0.117208    2.018044
     25          1           0        2.793482    2.271240    1.522270
     26          1           0        3.565330    1.707290    0.049910
     27          1           0        1.839773    3.315659   -0.515357
     28          1           0        1.396879    1.732953   -1.154172
     29          1           0        0.234708    2.985222    1.385907
     30          1           0       -0.603983    3.260235   -1.533657
     31          1           0       -1.482362    3.915943   -0.130677
     32          1           0       -0.264918   -0.472867    1.839523
     33          1           0       -2.252223   -1.755403    1.163551
     34          1           0       -3.584861    1.418152   -1.436842
     35          1           0       -3.529506   -2.902095   -0.379485
     36          1           0       -4.485512   -2.230239    0.975049
     37          1           0       -5.272813   -2.572604   -0.590501
     38          1           0        2.703120   -2.968217    0.661636
     39          1           0        1.674885   -2.111280    1.820961
     40          1           0        0.187952   -1.918127   -0.039660
 ---------------------------------------------------------------------

 SCF Done:  E(UB3LYP) =  -773.604144128     A.U. after   33 cycles
 SCF Done:  E(UB3LYP) =  -773.604144128     a.u. after    1 cycles

 The electronic state is 2-A.
 Alpha  occ. eigenvalues --  -19.06186 -19.02570 -10.14035 -10.13336 -10.12431
 Alpha  occ. eigenvalues --  -10.08760 -10.08239 -10.07924 -10.07835 -10.07815
 Alpha  occ. eigenvalues --  -10.07711 -10.07616 -10.07453 -10.07386 -10.07346
 Alpha  occ. eigenvalues --  -10.07321 -10.07202 -10.06908  -0.97778  -0.92602
 Alpha  occ. eigenvalues --   -0.78493  -0.73063  -0.71756  -0.67801  -0.66452
 Alpha  occ. eigenvalues --   -0.64208  -0.61809  -0.59252  -0.57870  -0.54848
 Alpha  occ. eigenvalues --   -0.53112  -0.51753  -0.48807  -0.46144  -0.43583
 Alpha  occ. eigenvalues --   -0.43056  -0.40932  -0.40418  -0.38844  -0.38053
 Alpha  occ. eigenvalues --   -0.37587  -0.35910  -0.35194  -0.34721  -0.34422
 Alpha  occ. eigenvalues --   -0.33606  -0.32801  -0.32020  -0.31812  -0.30965
 Alpha  occ. eigenvalues --   -0.29004  -0.28479  -0.28100  -0.27492  -0.25868
 Alpha  occ. eigenvalues --   -0.25702  -0.25396  -0.23751  -0.23675  -0.23220
 Alpha  occ. eigenvalues --   -0.22337  -0.21649  -0.21456  -0.18525  -0.16119
 Alpha  occ. eigenvalues --   -0.14945  -0.12496   0.04171
 Alpha virt. eigenvalues --    0.05473   0.06132   0.06952   0.07428   0.07851
 Alpha virt. eigenvalues --    0.08246   0.08873   0.09077   0.09273   0.09458
 Alpha virt. eigenvalues --    0.10080   0.10518   0.10555   0.10985   0.11108

  Beta  occ. eigenvalues --  -19.06179 -19.02564 -10.14020 -10.13305 -10.12427
  Beta  occ. eigenvalues --  -10.08747 -10.08229 -10.07862 -10.07836 -10.07794
  Beta  occ. eigenvalues --  -10.07706 -10.07608 -10.07405 -10.07366 -10.07324
  Beta  occ. eigenvalues --  -10.07299 -10.07177 -10.06898  -0.97757  -0.92590
  Beta  occ. eigenvalues --   -0.78433  -0.73022  -0.71699  -0.67759  -0.66364
  Beta  occ. eigenvalues --   -0.64177  -0.61752  -0.59194  -0.57819  -0.54805
  Beta  occ. eigenvalues --   -0.53063  -0.51660  -0.48749  -0.46095  -0.43544
  Beta  occ. eigenvalues --   -0.43018  -0.40910  -0.40390  -0.38818  -0.38013
  Beta  occ. eigenvalues --   -0.37535  -0.35880  -0.35131  -0.34678  -0.34368
  Beta  occ. eigenvalues --   -0.33573  -0.32765  -0.32003  -0.31776  -0.30927
  Beta  occ. eigenvalues --   -0.28965  -0.28412  -0.28018  -0.27442  -0.25846
  Beta  occ. eigenvalues --   -0.25669  -0.25359  -0.23717  -0.23629  -0.23190
  Beta  occ. eigenvalues --   -0.22258  -0.21592  -0.21412  -0.18514  -0.15906
  Beta  occ. eigenvalues --   -0.14828  -0.12324
  Beta virt. eigenvalues --    0.06132   0.06329   0.06824   0.07210   0.07858
  Beta virt. eigenvalues --    0.08066   0.08574   0.09160   0.09306   0.09501
  Beta virt. eigenvalues --    0.09723   0.10239   0.10630   0.10792   0.11171

 Mulliken charges and spin densities:
               1          2
     1  C    0.250017  -0.917229
     2  C   -0.861552   0.753191
     3  C    0.340035  -0.246494
     4  C    0.035241   0.438335
     5  C   -0.363993  -0.397554
     6  C    0.885795  -1.175394
     7  C    0.003749   0.352978
     8  C   -0.205599  -0.489416
     9  C    0.431096  -0.187133
    10  C    1.977001  -0.940005
    11  C    0.144332  -0.323445
    12  C   -0.736202   0.661872
    13  C   -1.087038   0.218636
    14  C   -0.775095   0.080108
    15  O   -0.180581   0.029408
    16  C    0.462128  -0.823795
    17  C    0.084693  -0.869969
    18  O   -0.236851   0.013852
    19  H   -0.038233   0.185498
    20  H   -0.153103   0.293068
    21  H    0.053100   0.079717
    22  H    0.091689   0.043156
    23  H    0.100438   0.075938
    24  H   -0.014870   0.219592
    25  H   -0.230828   0.394230
    26  H   -0.179225   0.368673
    27  H   -0.413598   0.590576
    28  H   -0.001203   0.098039
    29  H   -0.274698   0.509636
    30  H    0.133684   0.036027
    31  H   -0.088428   0.254128
    32  H   -0.340102   0.418598
    33  H    0.140126   0.078484
    34  H    0.107423   0.052394
    35  H   -0.028616   0.185193
    36  H   -0.109138   0.254762
    37  H   -0.445562   0.620722
    38  H    0.103291   0.020850
    39  H    0.083460   0.077095
    40  H    0.337215  -0.034323
 Sum of Mulliken charges =  -1.00000   1.00000

 Dipole moment (field-independent basis, Debye):
    X=             -0.1138    Y=             -1.3211    Z=             -0.8738  Tot=              1.5880
 Quadrupole moment (field-independent basis, Debye-Ang):
   XX=           -196.1907   YY=           -171.1604   ZZ=           -142.1335
   XY=            -17.6172   XZ=              3.5537   YZ=             -7.9720

 Summary of Natural Population Analysis:

                                       Natural Population
                Natural  -----------------------------------------------
    Atom  No    Charge         Core      Valence    Rydberg      Total
 -----------------------------------------------------------------------
      C    1   -0.28121      0.99966     2.27681    0.00474     3.28121
      C    2   -0.21006      0.99959     2.20127    0.00920     3.21006
      C    3   -0.02468      0.99945     2.01471    0.01052     3.02468
      C    4   -0.08007      0.99946     2.06965    0.01097     3.08007
      C    5   -0.20935      0.99961     2.19933    0.01042     3.20935
      C    6   -0.18080      0.99959     2.17190    0.00930     3.18080
      C    7   -0.10379      0.99958     2.09272    0.01149     3.10379
      C    8   -0.18447      0.99961     2.17679    0.00807     3.18447
      C    9   -0.00525      0.99946     1.99588    0.00990     3.00525
      C   10   -0.02257      0.99943     2.01218    0.01095     3.02257
      C   11   -0.09363      0.99951     2.08455    0.00956     3.09363
      C   12   -0.15167      0.99953     2.14331    0.00883     3.15167
      C   13    0.16490      0.99941     1.82229    0.01340     2.83510
      C   14   -0.11523      0.99946     2.10738    0.00839     3.11523
      O   15   -0.27533      0.99985     3.26587    0.00961     4.27533
      C   16   -0.10165      0.99960     2.09296    0.00909     3.10165
      C   17   -0.01938      0.99954     2.00756    0.01228     3.01938
      O   18   -0.37267      0.99990     3.36623    0.00653     4.37267
      H   19    0.09787      0.00000     0.40117    0.00096     0.40213
      H   20    0.09769      0.00000     0.40145    0.00086     0.40231
      H   21    0.09393      0.00000     0.40512    0.00095     0.40607
      H   22    0.10100      0.00000     0.39779    0.00121     0.39900
      H   23    0.10601      0.00000     0.39277    0.00123     0.39399
      H   24    0.09185      0.00000     0.40634    0.00181     0.40815
      H   25    0.10244      0.00000     0.39594    0.00162     0.39756
      H   26    0.10334      0.00000     0.39538    0.00128     0.39666
      H   27    0.10050      0.00000     0.39783    0.00166     0.39950
      H   28    0.09441      0.00000     0.40390    0.00169     0.40559
      H   29    0.10158      0.00000     0.39604    0.00238     0.39842
      H   30    0.09909      0.00000     0.39986    0.00105     0.40091
      H   31    0.10296      0.00000     0.39591    0.00113     0.39704
      H   32    0.10278      0.00000     0.39541    0.00181     0.39722
      H   33    0.10538      0.00000     0.39333    0.00130     0.39462
      H   34    0.10417      0.00000     0.39449    0.00134     0.39583
      H   35    0.08604      0.00000     0.41264    0.00132     0.41396
      H   36    0.08377      0.00000     0.41481    0.00142     0.41623
      H   37    0.09354      0.00000     0.40525    0.00121     0.40646
      H   38    0.08554      0.00000     0.41310    0.00136     0.41446
      H   39    0.07776      0.00000     0.42095    0.00129     0.42224
      H   40    0.23526      0.00000     0.26145    0.00328     0.26474
 =======================================================================
   * Total *    0.00000     17.99225    48.80234    0.20541    67.00000

 Normal termination of Gaussian 16 at Fri Dec 11 21:11:58 2020.
