 Gaussian 16, Revision A.03,

 -----------------------------------------------------------
 # opt freq B3LYP/6-31G(d) empiricaldispersion=gd3bj scf=xqc
 -----------------------------------------------------------

 ------------------------------
 CID_102545719_JID_393_neutraal
 ------------------------------
 Symbolic Z-matrix:
 Charge =  0 Multiplicity = 1

 SCF Done:  E(RB3LYP) =  -780.487867648     A.U. after   15 cycles
 SCF Done:  E(RB3LYP) =  -780.492495393     A.U. after   12 cycles
 SCF Done:  E(RB3LYP) =  -780.493001924     A.U. after   12 cycles
 SCF Done:  E(RB3LYP) =  -780.493152944     A.U. after   12 cycles
 SCF Done:  E(RB3LYP) =  -780.493190221     A.U. after   11 cycles
 SCF Done:  E(RB3LYP) =  -780.493204200     A.U. after   11 cycles
 SCF Done:  E(RB3LYP) =  -780.493210217     A.U. after   10 cycles
 SCF Done:  E(RB3LYP) =  -780.493211226     A.U. after    9 cycles
 SCF Done:  E(RB3LYP) =  -780.493211917     A.U. after    8 cycles
 SCF Done:  E(RB3LYP) =  -780.493212275     A.U. after    8 cycles
 SCF Done:  E(RB3LYP) =  -780.493212788     A.U. after    8 cycles
 SCF Done:  E(RB3LYP) =  -780.493212827     A.U. after    8 cycles
 SCF Done:  E(RB3LYP) =  -780.493212842     A.U. after    7 cycles
 SCF Done:  E(RB3LYP) =  -780.493212849     A.U. after    7 cycles
 Optimization completed.
    -- Stationary point found.
 Normal termination of Gaussian 16 at Tue Dec  8 10:31:57 2020.

 --------------------------------------------------------------------
 #N Geom=AllCheck Guess=TCheck SCRF=Check GenChk RB3LYP/6-31G(d) Freq
 --------------------------------------------------------------------

 Structure from the checkpoint file:  "JID_393.chk"
 ------------------------------
 CID_102545719_JID_393_neutraal
 ------------------------------
 Charge =  0 Multiplicity = 1

 SCF Done:  E(RB3LYP) =  -780.493212849     A.U. after    1 cycles

  Exact polarizability: 178.562   0.894  98.129  -7.988   3.605  56.747
 Approx polarizability: 291.332  -2.126 156.165 -19.764   7.487  86.254

                      1                      2                      3
                      A                      A                      A
 Frequencies --     26.8205                75.8945               163.9731
 Red. masses --      3.1785                 5.6626                 1.7254
 Frc consts  --      0.0013                 0.0192                 0.0273
 IR Inten    --      4.8989                 1.4638                 0.2012

                      4                      5                      6
                      A                      A                      A
 Frequencies --    190.6972               193.6164               238.0831
 Red. masses --      2.1125                 1.9313                 2.8147
 Frc consts  --      0.0453                 0.0427                 0.0940
 IR Inten    --      4.6854                 4.6524                13.6888

                      7                      8                      9
                      A                      A                      A
 Frequencies --    266.2950               325.8878               373.8704
 Red. masses --      1.6249                 2.0912                 6.3259
 Frc consts  --      0.0679                 0.1309                 0.5210
 IR Inten    --     31.9998                18.9853                 1.1291

                     10                     11                     12
                      A                      A                      A
 Frequencies --    424.5635               447.3949               481.7275
 Red. masses --      3.2154                 3.5325                 3.9960
 Frc consts  --      0.3415                 0.4166                 0.5464
 IR Inten    --     12.2879                 1.3814                18.9235

                     13                     14                     15
                      A                      A                      A
 Frequencies --    533.6983               593.7031               698.5045
 Red. masses --      4.5824                 3.3755                 4.7001
 Frc consts  --      0.7690                 0.7010                 1.3511
 IR Inten    --      0.4707                10.4879                 3.2264

                     16                     17                     18
                      A                      A                      A
 Frequencies --    724.2132               750.3667               765.0705
 Red. masses --      3.5739                 2.4215                 1.7723
 Frc consts  --      1.1044                 0.8033                 0.6112
 IR Inten    --     11.6589                26.4696                43.1623

                     19                     20                     21
                      A                      A                      A
 Frequencies --    868.8461               899.6971               901.3963
 Red. masses --      1.2771                 1.3978                 1.3064
 Frc consts  --      0.5680                 0.6666                 0.6254
 IR Inten    --    131.2508                 2.6098                 3.7445

                     22                     23                     24
                      A                      A                      A
 Frequencies --    926.8473              1016.0250              1033.1753
 Red. masses --      4.2094                 2.2629                 1.5876
 Frc consts  --      2.1305                 1.3763                 0.9985
 IR Inten    --     10.3672                17.3443                20.7275

                     25                     26                     27
                      A                      A                      A
 Frequencies --   1058.3914              1076.0749              1110.5781
 Red. masses --      2.0282                 1.5512                 2.4551
 Frc consts  --      1.3386                 1.0583                 1.7841
 IR Inten    --      7.4394                 5.2975               148.5862

                     28                     29                     30
                      A                      A                      A
 Frequencies --   1165.7732              1218.3401              1250.1433
 Red. masses --      1.7098                 1.6702                 2.3627
 Frc consts  --      1.3691                 1.4607                 2.1756
 IR Inten    --     11.0480                11.3172               109.0928

                     31                     32                     33
                      A                      A                      A
 Frequencies --   1263.3114              1304.2905              1305.7786
 Red. masses --      2.8143                 1.7854                 1.3475
 Frc consts  --      2.6463                 1.7896                 1.3536
 IR Inten    --     10.8687                 8.1624                 7.6587

                     34                     35                     36
                      A                      A                      A
 Frequencies --   1366.4731              1442.0820              1445.4411
 Red. masses --      1.7966                 1.2685                 1.3749
 Frc consts  --      1.9765                 1.5542                 1.6925
 IR Inten    --      2.0446                 4.2066                31.5453

                     37                     38                     39
                      A                      A                      A
 Frequencies --   1475.6167              1508.1840              1513.7433
 Red. masses --      2.2742                 2.3040                 1.1410
 Frc consts  --      2.9176                 3.0877                 1.5404
 IR Inten    --      2.6967                17.1605                 8.9015

                     40                     41                     42
                      A                      A                      A
 Frequencies --   1526.2928              1556.0228              1607.6129
 Red. masses --      1.3218                 1.0910                 2.7861
 Frc consts  --      1.8142                 1.5564                 4.2424
 IR Inten    --     22.7169                 0.9787               309.6565

                     43                     44                     45
                      A                      A                      A
 Frequencies --   1685.7838              1696.5287              2999.6068
 Red. masses --      1.6986                 2.0290                 1.0711
 Frc consts  --      2.8441                 3.4408                 5.6783
 IR Inten    --    136.4639                43.0881                65.3283

                     46                     47                     48
                      A                      A                      A
 Frequencies --   3048.7908              3069.0116              3099.3239
 Red. masses --      1.0389                 1.0909                 1.1001
 Frc consts  --      5.6894                 6.0539                 6.2262
 IR Inten    --     26.6153                31.3365                14.9974

                     49                     50                     51
                      A                      A                      A
 Frequencies --   3145.1856              3230.9491              3232.6862
 Red. masses --      1.1001                 1.0918                 1.0930
 Frc consts  --      6.4120                 6.7152                 6.7295
 IR Inten    --     13.9385                 3.2436                 1.4646

                     52                     53                     54
                      A                      A                      A
 Frequencies --   3454.4467              3544.8368              3577.0147
 Red. masses --      1.0495                 1.0929                 1.0780
 Frc consts  --      7.3786                 8.0911                 8.1269
 IR Inten    --      4.4930                 2.4695                50.1757

 - Thermochemistry -
 -------------------
 Temperature   298.150 Kelvin.  Pressure   1.00000 Atm.
 Atom     1 has atomic number  6 and mass  12.00000

 Molecular mass:   154.05647 amu.
 Principal axes and moments of inertia in atomic units:
                           1         2         3
     Eigenvalues --   739.477982749.872693317.08494
           X            0.99997   0.00764   0.00168
           Y           -0.00765   0.99994   0.00760
           Z           -0.00163  -0.00762   0.99997
 This molecule is an asymmetric top.
 Rotational symmetry number  1.
 Warning -- assumption of classical behavior for rotation
           may cause significant error
 Rotational temperatures (Kelvin)      0.11713     0.03150     0.02611
 Rotational constants (GHZ):           2.44056     0.65630     0.54407
 Zero-point vibrational energy     436030.9 (Joules/Mol)
                                  104.21390 (Kcal/Mol)
 Warning -- explicit consideration of  14 degrees of freedom as
           vibrations may cause significant error
 Vibrational temperatures:     38.59   109.20   235.92   274.37   278.57
          (Kelvin)            342.55   383.14   468.88   537.92   610.85
                              643.70   693.10   767.87   854.21  1004.99
                             1041.98  1079.61  1100.77  1250.08  1294.46
                             1296.91  1333.53  1461.83  1486.51  1522.79
                             1548.23  1597.87  1677.29  1752.92  1798.68
                             1817.62  1876.58  1878.72  1966.05  2074.83
                             2079.67  2123.08  2169.94  2177.94  2195.99
                             2238.77  2313.00  2425.47  2440.93  4315.77
                             4386.53  4415.62  4459.24  4525.22  4648.62
                             4651.11  4970.18  5100.23  5146.53

 Zero-point correction=                           0.166075 (Hartree/Particle)
 Thermal correction to Energy=                    0.176085
 Thermal correction to Enthalpy=                  0.177030
 Thermal correction to Gibbs Free Energy=         0.129609
 Sum of electronic and zero-point Energies=           -780.327137
 Sum of electronic and thermal Energies=              -780.317127
 Sum of electronic and thermal Enthalpies=            -780.316183
 Sum of electronic and thermal Free Energies=         -780.363604

                     E (Thermal)             CV                S
                      KCal/Mol        Cal/Mol-Kelvin    Cal/Mol-Kelvin
 Total                  110.495             36.959             99.805
 Electronic               0.000              0.000              0.000
 Translational            0.889              2.981             41.006
 Rotational               0.889              2.981             30.290
 Vibrational            108.718             30.998             28.509
 Vibration     1          0.593              1.984              6.052
 Vibration     2          0.599              1.965              3.994
 Vibration     3          0.623              1.887              2.503
 Vibration     4          0.634              1.853              2.221
 Vibration     5          0.635              1.849              2.193
 Vibration     6          0.656              1.782              1.817
 Vibration     7          0.672              1.735              1.620
 Vibration     8          0.710              1.624              1.280
 Vibration     9          0.745              1.526              1.064
 Vibration    10          0.787              1.417              0.877
 Vibration    11          0.807              1.367              0.804
 Vibration    12          0.838              1.291              0.705
 Vibration    13          0.889              1.175              0.579
 Vibration    14          0.951              1.045              0.461

 Optimization completed.
    -- Stationary point found.
 Normal termination of Gaussian 16 at Tue Dec  8 10:35:23 2020.

 ----------------------------------------------------------------------
 # B3LYP/6-311++G(d,p) empiricaldispersion=gd3bj scf=xqc pop=npa geom=c
 heck
 ----------------------------------------------------------------------

 --------------------------------------
 CID_102545719_JID_393_Energie_neutraal
 --------------------------------------
 Structure from the checkpoint file:  "JID_393.chk"
 Charge =  0 Multiplicity = 1

 SCF Done:  E(RB3LYP) =  -780.631573711     A.U. after   16 cycles
 Normal termination of Gaussian 16 at Tue Dec  8 10:37:17 2020.

 ----------------------------------------------------------------------
 # B3LYP/6-311++G(d,p) empiricaldispersion=gd3bj scf=xqc pop=npa geom=c
 heck
 ----------------------------------------------------------------------

 ------------------------------------
 CID_102545719_JID_393_Energie_kation
 ------------------------------------
 Structure from the checkpoint file:  "JID_393.chk"
 Charge =  1 Multiplicity = 2

 SCF Done:  E(UB3LYP) =  -780.346953588     A.U. after   33 cycles
 SCF Done:  E(UB3LYP) =  -780.346953588     a.u. after    1 cycles
 Normal termination of Gaussian 16 at Tue Dec  8 10:47:37 2020.
 Gaussian 16:  ES64L-G16RevA.03 25-Dec-2016

 ----------------------------------------------------------------------
 # B3LYP/6-311++G(d,p) empiricaldispersion=gd3bj scf=xqc pop=npa geom=c
 heck
 ----------------------------------------------------------------------

 -----------------------------------
 CID_102545719_JID_393_Energie_anion
 -----------------------------------
 Structure from the checkpoint file:  "JID_393.chk"
 Charge = -1 Multiplicity = 2

                         Standard orientation:
 ---------------------------------------------------------------------
 Center     Atomic      Atomic             Coordinates (Angstroms)
 Number     Number       Type             X           Y           Z
 ---------------------------------------------------------------------
      1          6           0        1.406122    2.232937   -0.099502
      2          6           0        0.559100    0.986120   -0.125878
      3          6           0       -0.804534    1.076793    0.032479
      4          6           0       -1.670939   -0.059843    0.016691
      5         16           0       -3.340958   -0.039760    0.193758
      6          7           0       -1.004005   -1.260964   -0.164633
      7          6           0        0.339068   -1.389901   -0.321890
      8          6           0        1.165565   -0.300281   -0.321954
      9          6           0        2.657131   -0.495984   -0.442341
     10          7           0        3.230754   -0.871122    0.861569
     11          1           0        2.225823    2.147053    0.623704
     12          1           0        0.806433    3.106314    0.167692
     13          1           0        1.862650    2.422360   -1.078716
     14          1           0       -1.278279    2.040289    0.179624
     15          1           0       -1.598038   -2.083221   -0.173651
     16          1           0        0.710869   -2.401859   -0.436859
     17          1           0        2.862247   -1.319829   -1.136139
     18          1           0        3.107260    0.403902   -0.890109
     19          1           0        4.247627   -0.902345    0.790778
     20          1           0        3.012418   -0.150962    1.549365
 ---------------------------------------------------------------------

 SCF Done:  E(UB3LYP) =  -780.635560221     A.U. after   33 cycles
 SCF Done:  E(UB3LYP) =  -780.635560221     a.u. after    1 cycles

 The electronic state is 2-A.
 Alpha  occ. eigenvalues --  -88.63716 -14.22821 -14.18329 -10.09451 -10.08891
 Alpha  occ. eigenvalues --  -10.08697 -10.05143 -10.05076 -10.04217 -10.02954
 Alpha  occ. eigenvalues --   -7.72478  -5.68871  -5.68302  -5.68068  -0.84816
 Alpha  occ. eigenvalues --   -0.77378  -0.69496  -0.65900  -0.60268  -0.57178
 Alpha  occ. eigenvalues --   -0.52485  -0.49115  -0.46719  -0.41174  -0.38936
 Alpha  occ. eigenvalues --   -0.35965  -0.34079  -0.33021  -0.30687  -0.30367
 Alpha  occ. eigenvalues --   -0.28805  -0.28279  -0.27216  -0.25229  -0.22319
 Alpha  occ. eigenvalues --   -0.20609  -0.16176  -0.15985  -0.13569  -0.06646
 Alpha  occ. eigenvalues --   -0.06242   0.04429
 Alpha virt. eigenvalues --    0.06608   0.08711   0.09137   0.09841   0.10809
 Alpha virt. eigenvalues --    0.11618   0.12090   0.12712   0.13102   0.14448
 Alpha virt. eigenvalues --    0.14935   0.15615   0.16525   0.17533   0.17624

  Beta  occ. eigenvalues --  -88.63690 -14.22535 -14.18290 -10.09212 -10.08724
  Beta  occ. eigenvalues --  -10.08683 -10.05257 -10.05103 -10.03732 -10.02968
  Beta  occ. eigenvalues --   -7.72455  -5.68866  -5.68212  -5.68055  -0.84299
  Beta  occ. eigenvalues --   -0.77318  -0.69001  -0.65509  -0.60014  -0.57068
  Beta  occ. eigenvalues --   -0.52249  -0.48891  -0.46341  -0.40988  -0.38799
  Beta  occ. eigenvalues --   -0.35786  -0.33846  -0.32850  -0.30215  -0.30086
  Beta  occ. eigenvalues --   -0.28620  -0.27325  -0.27143  -0.25061  -0.22152
  Beta  occ. eigenvalues --   -0.20387  -0.15200  -0.14420  -0.13513  -0.06564
  Beta  occ. eigenvalues --   -0.05572
  Beta virt. eigenvalues --    0.07298   0.08763   0.09259   0.09590   0.10492
  Beta virt. eigenvalues --    0.11313   0.11788   0.12239   0.12859   0.13212
  Beta virt. eigenvalues --    0.14476   0.14922   0.15793   0.16585   0.17531

 Mulliken charges and spin densities:
               1          2
     1  C   -0.205208  -0.604707
     2  C    0.515439   0.603145
     3  C    0.161122  -0.031106
     4  C   -0.247385   0.149583
     5  S   -1.049163   0.062443
     6  N    0.034456   0.106437
     7  C   -0.139723   0.129115
     8  C    0.184111  -0.045128
     9  C   -0.382536  -0.543477
    10  N   -0.356732   0.031408
    11  H   -0.262397   0.415832
    12  H    0.069970   0.069141
    13  H    0.192622  -0.041389
    14  H    0.146178  -0.007718
    15  H    0.223767  -0.005317
    16  H    0.136413   0.003457
    17  H    0.160807  -0.015372
    18  H   -0.096949   0.224524
    19  H   -0.258942   0.470472
    20  H    0.174152   0.028660
 Sum of Mulliken charges =  -1.00000   1.00000

 Dipole moment (field-independent basis, Debye):
    X=              2.3561    Y=             -0.9817    Z=             -2.7113  Tot=              3.7237
 Quadrupole moment (field-independent basis, Debye-Ang):
   XX=           -140.7917   YY=            -79.9658   ZZ=            -82.6463
   XY=              2.4745   XZ=             -6.6235   YZ=              1.6387

 Summary of Natural Population Analysis:

                                       Natural Population
                Natural  -----------------------------------------------
    Atom  No    Charge         Core      Valence    Rydberg      Total
 -----------------------------------------------------------------------
      C    1   -0.30022      0.99964     2.29515    0.00542     3.30022
      C    2    0.08996      0.99948     1.90025    0.01031     2.91004
      C    3   -0.13436      0.99945     2.12597    0.00894     3.13436
      C    4    0.07271      0.99958     1.91176    0.01596     2.92729
      S    5   -0.17904      4.99960     3.16354    0.01590     8.17904
      N    6   -0.23284      0.99964     2.72207    0.01114     3.73284
      C    7    0.07464      0.99951     1.91610    0.00975     2.92536
      C    8   -0.08473      0.99947     2.07509    0.01016     3.08473
      C    9   -0.09473      0.99960     2.08215    0.01298     3.09473
      N   10   -0.42162      0.99978     2.91073    0.01111     3.92162
      H   11    0.10528      0.00000     0.39286    0.00187     0.39472
      H   12    0.10012      0.00000     0.39908    0.00080     0.39988
      H   13    0.10174      0.00000     0.39734    0.00093     0.39826
      H   14    0.10032      0.00000     0.39866    0.00102     0.39968
      H   15    0.19391      0.00000     0.30404    0.00205     0.30609
      H   16    0.09184      0.00000     0.40706    0.00109     0.40816
      H   17    0.08754      0.00000     0.41127    0.00120     0.41246
      H   18    0.08337      0.00000     0.41508    0.00155     0.41663
      H   19    0.17186      0.00000     0.32395    0.00419     0.32814
      H   20    0.17424      0.00000     0.32372    0.00204     0.32576
 =======================================================================
   * Total *    0.00000     13.99575    26.87585    0.12839    41.00000

 Normal termination of Gaussian 16 at Tue Dec  8 10:53:46 2020.
