 Gaussian 16, Revision A.03,

 -----------------------------------------------------------
 # opt freq B3LYP/6-31G(d) empiricaldispersion=gd3bj scf=xqc
 -----------------------------------------------------------

 ------------------------------
 CID_153244345_JID_887_neutraal
 ------------------------------
 Symbolic Z-matrix:
 Charge =  0 Multiplicity = 1

 SCF Done:  E(RB3LYP) =  -505.548315637     A.U. after   15 cycles
 SCF Done:  E(RB3LYP) =  -505.552813897     A.U. after   13 cycles
 SCF Done:  E(RB3LYP) =  -505.553409468     A.U. after   12 cycles
 SCF Done:  E(RB3LYP) =  -505.553533489     A.U. after   11 cycles
 SCF Done:  E(RB3LYP) =  -505.553534351     A.U. after   10 cycles
 SCF Done:  E(RB3LYP) =  -505.553556625     A.U. after    9 cycles
 SCF Done:  E(RB3LYP) =  -505.553561164     A.U. after    9 cycles
 SCF Done:  E(RB3LYP) =  -505.553569553     A.U. after   10 cycles
 SCF Done:  E(RB3LYP) =  -505.553570257     A.U. after   11 cycles
 SCF Done:  E(RB3LYP) =  -505.553580888     A.U. after    9 cycles
 SCF Done:  E(RB3LYP) =  -505.555057180     A.U. after   10 cycles
 SCF Done:  E(RB3LYP) =  -505.555061803     A.U. after   11 cycles
 SCF Done:  E(RB3LYP) =  -505.555062979     A.U. after   10 cycles
 SCF Done:  E(RB3LYP) =  -505.555063563     A.U. after    9 cycles
 SCF Done:  E(RB3LYP) =  -505.555063618     A.U. after    8 cycles
 Optimization completed.
    -- Stationary point found.
 Normal termination of Gaussian 16 at Tue Dec  8 13:29:42 2020.

 --------------------------------------------------------------------
 #N Geom=AllCheck Guess=TCheck SCRF=Check GenChk RB3LYP/6-31G(d) Freq
 --------------------------------------------------------------------

 Structure from the checkpoint file:  "JID_887.chk"
 ------------------------------
 CID_153244345_JID_887_neutraal
 ------------------------------
 Charge =  0 Multiplicity = 1

 SCF Done:  E(RB3LYP) =  -505.555063618     A.U. after    1 cycles

  Exact polarizability: 107.600  -6.602  74.644   7.430  -0.545  44.363
 Approx polarizability: 151.267 -10.030 122.276  16.447   4.779  72.161

                      1                      2                      3
                      A                      A                      A
 Frequencies --     43.2686                52.6037                73.4204
 Red. masses --      5.5805                 4.8220                 3.5915
 Frc consts  --      0.0062                 0.0079                 0.0114
 IR Inten    --      9.3386                 0.5759                 4.7190

                      4                      5                      6
                      A                      A                      A
 Frequencies --    177.3049               232.2122               283.9701
 Red. masses --      5.0507                 1.0962                 5.5687
 Frc consts  --      0.0935                 0.0348                 0.2646
 IR Inten    --      0.5444                 0.3071                 2.5070

                      7                      8                      9
                      A                      A                      A
 Frequencies --    330.1559               354.0334               383.8862
 Red. masses --      2.4502                 1.7816                 2.8003
 Frc consts  --      0.1574                 0.1316                 0.2431
 IR Inten    --     21.2572                63.4765                35.8729

                     10                     11                     12
                      A                      A                      A
 Frequencies --    426.1676               498.7234               620.1694
 Red. masses --      3.2956                 1.6359                 3.8902
 Frc consts  --      0.3527                 0.2397                 0.8816
 IR Inten    --      1.9537                64.7005                 8.0781

                     13                     14                     15
                      A                      A                      A
 Frequencies --    645.8387               699.6711               714.4763
 Red. masses --      3.4020                 1.1568                 2.7283
 Frc consts  --      0.8361                 0.3336                 0.8206
 IR Inten    --      1.6245                 9.4348                42.6371

                     16                     17                     18
                      A                      A                      A
 Frequencies --    754.8602               760.6858               816.3063
 Red. masses --      3.6801                 1.8087                 7.0672
 Frc consts  --      1.2355                 0.6166                 2.7746
 IR Inten    --     15.4911                69.2109                 5.2890

                     19                     20                     21
                      A                      A                      A
 Frequencies --    909.4125              1002.8058              1026.6955
 Red. masses --      3.6344                 2.0745                 7.2875
 Frc consts  --      1.7709                 1.2292                 4.5260
 IR Inten    --     23.2665                 8.5829                25.1910

                     22                     23                     24
                      A                      A                      A
 Frequencies --   1080.8068              1135.8439              1150.2880
 Red. masses --      4.9439                 5.8993                 4.8394
 Frc consts  --      3.4027                 4.4843                 3.7727
 IR Inten    --      6.3548                92.4324                 6.9882

                     25                     26                     27
                      A                      A                      A
 Frequencies --   1189.8770              1191.8731              1234.0407
 Red. masses --      1.3011                 3.8278                 1.4727
 Frc consts  --      1.0853                 3.2037                 1.3214
 IR Inten    --      0.1093                25.6773                13.4164

                     28                     29                     30
                      A                      A                      A
 Frequencies --   1267.4928              1347.0000              1379.1993
 Red. masses --      6.9520                 3.8892                 3.2167
 Frc consts  --      6.5804                 4.1577                 3.6050
 IR Inten    --      6.5444                17.7342               300.0893

                     31                     32                     33
                      A                      A                      A
 Frequencies --   1425.1207              1478.1256              1504.8155
 Red. masses --      1.4217                 1.4455                 1.1545
 Frc consts  --      1.7013                 1.8608                 1.5403
 IR Inten    --     36.1266                12.6245                17.4470

                     34                     35                     36
                      A                      A                      A
 Frequencies --   1518.6082              1523.2243              1536.8500
 Red. masses --      1.1022                 2.4943                 1.0525
 Frc consts  --      1.4976                 3.4098                 1.4646
 IR Inten    --      8.7820                21.9507                12.7060

                     37                     38                     39
                      A                      A                      A
 Frequencies --   1625.3604              1738.5281              3038.1748
 Red. masses --      6.1845                 5.5966                 1.0354
 Frc consts  --      9.6262                 9.9664                 5.6307
 IR Inten    --    344.5177               394.4270                42.2098

                     40                     41                     42
                      A                      A                      A
 Frequencies --   3103.8801              3169.2779              3209.7961
 Red. masses --      1.1042                 1.1020                 1.0603
 Frc consts  --      6.2678                 6.5215                 6.4365
 IR Inten    --     34.4060                16.9946                 0.4903

                     43                     44                     45
                      A                      A                      A
 Frequencies --   3293.6423              3655.3722              3657.0128
 Red. masses --      1.1167                 1.0774                 1.0823
 Frc consts  --      7.1374                 8.4821                 8.5278
 IR Inten    --      7.5459                46.7386               109.4667

 - Thermochemistry -
 -------------------
 Temperature   298.150 Kelvin.  Pressure   1.00000 Atm.
 Atom     1 has atomic number  6 and mass  12.00000

 Molecular mass:   141.06506 amu.
 Principal axes and moments of inertia in atomic units:
                           1         2         3
     Eigenvalues --   555.995402160.343832554.32993
           X            0.99990   0.01175   0.00786
           Y           -0.01155   0.99964  -0.02441
           Z           -0.00814   0.02432   0.99967
 This molecule is an asymmetric top.
 Rotational symmetry number  1.
 Warning -- assumption of classical behavior for rotation
           may cause significant error
 Rotational temperatures (Kelvin)      0.15578     0.04009     0.03391
 Rotational constants (GHZ):           3.24596     0.83540     0.70654
 Zero-point vibrational energy     342496.1 (Joules/Mol)
                                   81.85854 (Kcal/Mol)
 Warning -- explicit consideration of  12 degrees of freedom as
           vibrations may cause significant error
 Vibrational temperatures:     62.25    75.69   105.64   255.10   334.10
          (Kelvin)            408.57   475.02   509.38   552.33   613.16
                              717.55   892.29   929.22  1006.67  1027.97
                             1086.08  1094.46  1174.48  1308.44  1442.81
                             1477.19  1555.04  1634.23  1655.01  1711.97
                             1714.84  1775.51  1823.64  1938.03  1984.36
                             2050.43  2126.69  2165.09  2184.94  2191.58
                             2211.18  2338.53  2501.35  4371.26  4465.79
                             4559.88  4618.18  4738.82  5259.27  5261.63

 Zero-point correction=                           0.130450 (Hartree/Particle)
 Thermal correction to Energy=                    0.139940
 Thermal correction to Enthalpy=                  0.140885
 Thermal correction to Gibbs Free Energy=         0.094485
 Sum of electronic and zero-point Energies=           -505.424614
 Sum of electronic and thermal Energies=              -505.415123
 Sum of electronic and thermal Enthalpies=            -505.414179
 Sum of electronic and thermal Free Energies=         -505.460579

                     E (Thermal)             CV                S
                      KCal/Mol        Cal/Mol-Kelvin    Cal/Mol-Kelvin
 Total                   87.814             33.775             97.657
 Electronic               0.000              0.000              0.000
 Translational            0.889              2.981             40.744
 Rotational               0.889              2.981             29.507
 Vibrational             86.037             27.814             27.406
 Vibration     1          0.595              1.980              5.104
 Vibration     2          0.596              1.977              4.717
 Vibration     3          0.599              1.967              4.059
 Vibration     4          0.628              1.870              2.357
 Vibration     5          0.653              1.792              1.862
 Vibration     6          0.682              1.703              1.510
 Vibration     7          0.713              1.615              1.259
 Vibration     8          0.730              1.567              1.148
 Vibration     9          0.753              1.505              1.024
 Vibration    10          0.788              1.413              0.871
 Vibration    11          0.854              1.253              0.661
 Vibration    12          0.980              0.989              0.416

 Optimization completed.
    -- Stationary point found.
 Normal termination of Gaussian 16 at Tue Dec  8 13:32:05 2020.

 ----------------------------------------------------------------------
 # B3LYP/6-311++G(d,p) empiricaldispersion=gd3bj scf=xqc pop=npa geom=c
 heck
 ----------------------------------------------------------------------

 --------------------------------------
 CID_153244345_JID_887_Energie_neutraal
 --------------------------------------
 Structure from the checkpoint file:  "JID_887.chk"
 Charge =  0 Multiplicity = 1

 SCF Done:  E(RB3LYP) =  -505.703897058     A.U. after   14 cycles
 Normal termination of Gaussian 16 at Tue Dec  8 13:34:11 2020.

 ----------------------------------------------------------------------
 # B3LYP/6-311++G(d,p) empiricaldispersion=gd3bj scf=xqc pop=npa geom=c
 heck
 ----------------------------------------------------------------------

 ------------------------------------
 CID_153244345_JID_887_Energie_kation
 ------------------------------------
 Structure from the checkpoint file:  "JID_887.chk"
 Charge =  1 Multiplicity = 2

 SCF Done:  E(UB3LYP) =  -505.405240530     A.U. after   22 cycles
 Normal termination of Gaussian 16 at Tue Dec  8 13:40:12 2020.
 Gaussian 16:  ES64L-G16RevA.03 25-Dec-2016

 ----------------------------------------------------------------------
 # B3LYP/6-311++G(d,p) empiricaldispersion=gd3bj scf=xqc pop=npa geom=c
 heck
 ----------------------------------------------------------------------

 -----------------------------------
 CID_153244345_JID_887_Energie_anion
 -----------------------------------
 Structure from the checkpoint file:  "JID_887.chk"
 Charge = -1 Multiplicity = 2

                         Standard orientation:
 ---------------------------------------------------------------------
 Center     Atomic      Atomic             Coordinates (Angstroms)
 Number     Number       Type             X           Y           Z
 ---------------------------------------------------------------------
      1          6           0       -2.742840   -1.411786    0.143149
      2          8           0       -1.622260   -0.644833    0.559204
      3          6           0       -1.492053    0.590474    0.023240
      4          6           0       -2.440246    1.302887   -0.604095
      5          7           0       -0.206816    1.092880    0.265017
      6          6           0        0.963737    0.395859    0.086183
      7          7           0        2.147760    0.907420    0.433155
      8          7           0        2.955082   -0.089311    0.052932
      9          7           0        2.344263   -1.137502   -0.471445
     10          7           0        1.063553   -0.846761   -0.468968
     11          1           0       -2.569442   -2.422102    0.515759
     12          1           0       -2.821954   -1.420274   -0.949910
     13          1           0       -3.673014   -1.017888    0.572107
     14          1           0       -2.194885    2.255694   -1.056128
     15          1           0       -3.467363    0.969250   -0.656347
     16          1           0       -0.111784    2.091898    0.364609
     17          1           0        3.958039   -0.049604    0.170589
 ---------------------------------------------------------------------

 SCF Done:  E(UB3LYP) =  -505.684739795     A.U. after   33 cycles
 SCF Done:  E(UB3LYP) =  -505.688816873     a.u. after   13 cycles

 The electronic state is 2-A.
 Alpha  occ. eigenvalues --  -19.05839 -14.32425 -14.28688 -14.25072 -14.24954
 Alpha  occ. eigenvalues --  -14.23723 -10.17156 -10.16748 -10.12313 -10.05132
 Alpha  occ. eigenvalues --   -1.04477  -0.98454  -0.86367  -0.84379  -0.76504
 Alpha  occ. eigenvalues --   -0.65886  -0.61713  -0.58368  -0.54684  -0.49976
 Alpha  occ. eigenvalues --   -0.46363  -0.42535  -0.41637  -0.39840  -0.38402
 Alpha  occ. eigenvalues --   -0.36966  -0.33203  -0.30802  -0.28889  -0.27963
 Alpha  occ. eigenvalues --   -0.25090  -0.23825  -0.21969  -0.21806  -0.19148
 Alpha  occ. eigenvalues --   -0.15766  -0.11830   0.04709
 Alpha virt. eigenvalues --    0.06082   0.07088   0.07381   0.09232   0.09868
 Alpha virt. eigenvalues --    0.11050   0.11587   0.12577   0.13171   0.14749
 Alpha virt. eigenvalues --    0.16142   0.16252   0.16870   0.18059   0.18459

  Beta  occ. eigenvalues --  -19.05831 -14.32337 -14.28676 -14.25050 -14.24939
  Beta  occ. eigenvalues --  -14.23721 -10.17151 -10.16745 -10.12274 -10.05098
  Beta  occ. eigenvalues --   -1.04424  -0.98438  -0.86334  -0.84326  -0.76427
  Beta  occ. eigenvalues --   -0.65850  -0.61653  -0.58245  -0.54640  -0.49888
  Beta  occ. eigenvalues --   -0.46296  -0.42450  -0.41582  -0.39779  -0.38331
  Beta  occ. eigenvalues --   -0.36927  -0.33164  -0.30759  -0.28839  -0.27924
  Beta  occ. eigenvalues --   -0.25059  -0.23778  -0.21905  -0.21763  -0.19129
  Beta  occ. eigenvalues --   -0.15717  -0.11781
  Beta virt. eigenvalues --    0.07059   0.07386   0.08047   0.08819   0.09751
  Beta virt. eigenvalues --    0.10398   0.11419   0.11888   0.12898   0.13412
  Beta virt. eigenvalues --    0.14761   0.15967   0.16295   0.16796   0.18043

 Mulliken charges and spin densities:
               1          2
     1  C    0.946418  -1.285481
     2  O   -0.144811   0.032164
     3  C    0.488066  -0.485604
     4  C   -0.228166  -0.119661
     5  N   -0.279880   0.039685
     6  C    0.185041  -0.141104
     7  N   -0.108986  -0.013638
     8  N    0.358318  -0.447389
     9  N    0.192420   0.055791
    10  N   -0.328775  -0.122438
    11  H   -0.066612   0.211960
    12  H   -0.192928   0.348494
    13  H   -0.357943   0.508786
    14  H   -0.184736   0.315567
    15  H   -0.293805   0.417207
    16  H   -0.094658   0.417947
    17  H   -0.888962   1.267713
 Sum of Mulliken charges =  -1.00000   1.00000

 Dipole moment (field-independent basis, Debye):
    X=             -3.2254    Y=             -0.0651    Z=             -0.0181  Tot=              3.2261
 Quadrupole moment (field-independent basis, Debye-Ang):
   XX=           -141.9546   YY=            -89.2776   ZZ=            -79.7092
   XY=              0.6664   XZ=             -1.3104   YZ=             -1.3309

 Summary of Natural Population Analysis:

                                       Natural Population
                Natural  -----------------------------------------------
    Atom  No    Charge         Core      Valence    Rydberg      Total
 -----------------------------------------------------------------------
      C    1   -0.09956      0.99960     2.09081    0.00916     3.09956
      O    2   -0.27055      0.99985     3.26074    0.00996     4.27055
      C    3    0.25790      0.99943     1.72647    0.01619     2.74210
      C    4   -0.28461      0.99954     2.27789    0.00718     3.28461
      N    5   -0.31826      0.99963     2.80712    0.01151     3.81826
      C    6    0.24620      0.99964     1.73511    0.01905     2.75380
      N    7   -0.16464      0.99970     2.65167    0.01327     3.66464
      N    8   -0.06675      0.99975     2.55042    0.01657     3.56675
      N    9   -0.02877      0.99979     2.51114    0.01784     3.52877
      N   10   -0.16232      0.99972     2.64966    0.01294     3.66232
      H   11    0.09361      0.00000     0.40537    0.00102     0.40639
      H   12    0.08958      0.00000     0.40902    0.00140     0.41042
      H   13    0.08494      0.00000     0.41312    0.00194     0.41506
      H   14    0.10300      0.00000     0.39577    0.00123     0.39700
      H   15    0.10260      0.00000     0.39609    0.00131     0.39740
      H   16    0.20447      0.00000     0.29259    0.00294     0.29553
      H   17    0.21316      0.00000     0.23999    0.04685     0.28684
 =======================================================================
   * Total *   -0.00000      9.99666    26.81298    0.19036    37.00000

 Normal termination of Gaussian 16 at Tue Dec  8 14:11:32 2020.
