 Gaussian 16, Revision A.03,

 -----------------------------------------------------------
 # opt freq B3LYP/6-31G(d) empiricaldispersion=gd3bj scf=xqc
 -----------------------------------------------------------

 -------------------------------
 CID_117346871_JID_7466_neutraal
 -------------------------------
 Symbolic Z-matrix:
 Charge =  0 Multiplicity = 1

 SCF Done:  E(RB3LYP) =  -787.274917596     A.U. after   14 cycles
 SCF Done:  E(RB3LYP) =  -787.279175470     A.U. after   11 cycles
 SCF Done:  E(RB3LYP) =  -787.278702900     A.U. after   12 cycles
 SCF Done:  E(RB3LYP) =  -787.280179518     A.U. after   11 cycles
 SCF Done:  E(RB3LYP) =  -787.280279784     A.U. after   11 cycles
 SCF Done:  E(RB3LYP) =  -787.280336866     A.U. after   11 cycles
 SCF Done:  E(RB3LYP) =  -787.280509425     A.U. after   11 cycles
 SCF Done:  E(RB3LYP) =  -787.280515844     A.U. after    9 cycles
 SCF Done:  E(RB3LYP) =  -787.280516729     A.U. after    7 cycles
 SCF Done:  E(RB3LYP) =  -787.280516878     A.U. after    7 cycles
 Optimization completed.
    -- Stationary point found.
 Normal termination of Gaussian 16 at Fri Dec 11 12:05:31 2020.

 --------------------------------------------------------------------
 #N Geom=AllCheck Guess=TCheck SCRF=Check GenChk RB3LYP/6-31G(d) Freq
 --------------------------------------------------------------------

 Structure from the checkpoint file:  "JID_7466.chk"
 -------------------------------
 CID_117346871_JID_7466_neutraal
 -------------------------------
 Charge =  0 Multiplicity = 1

 SCF Done:  E(RB3LYP) =  -787.280516878     A.U. after    1 cycles

  Exact polarizability: 185.314   5.153 168.130  -4.539  -3.686  97.368
 Approx polarizability: 255.296   2.198 257.857  -5.818 -14.219 149.191

                      1                      2                      3
                      A                      A                      A
 Frequencies --     44.8860                56.7266                65.6384
 Red. masses --      2.6740                 4.1045                 3.9466
 Frc consts  --      0.0032                 0.0078                 0.0100
 IR Inten    --      0.0690                 0.5672                 0.3999

                      4                      5                      6
                      A                      A                      A
 Frequencies --     86.5636                98.3654               128.4916
 Red. masses --      4.2944                 3.3859                 3.8529
 Frc consts  --      0.0190                 0.0193                 0.0375
 IR Inten    --      2.1827                 0.3175                 3.0897

                      7                      8                      9
                      A                      A                      A
 Frequencies --    183.3226               228.9945               230.6914
 Red. masses --      4.6938                 1.0404                 2.9857
 Frc consts  --      0.0929                 0.0321                 0.0936
 IR Inten    --      0.4001                 0.1536                 0.8484

                     10                     11                     12
                      A                      A                      A
 Frequencies --    243.7363               256.5995               263.6356
 Red. masses --      4.4961                 1.6387                 1.9571
 Frc consts  --      0.1574                 0.0636                 0.0801
 IR Inten    --      0.2493                 0.4519                 5.8404

                     13                     14                     15
                      A                      A                      A
 Frequencies --    276.8693               313.6333               335.2559
 Red. masses --      2.7886                 2.4619                 1.9496
 Frc consts  --      0.1259                 0.1427                 0.1291
 IR Inten    --      5.2585                 8.3063                45.2451

                     16                     17                     18
                      A                      A                      A
 Frequencies --    356.0044               373.2562               392.1520
 Red. masses --      1.6722                 2.1246                 3.6498
 Frc consts  --      0.1249                 0.1744                 0.3307
 IR Inten    --     43.8626                13.5227                 1.6720

                     19                     20                     21
                      A                      A                      A
 Frequencies --    416.2393               458.3967               469.9063
 Red. masses --      3.5509                 3.8100                 3.7447
 Frc consts  --      0.3625                 0.4717                 0.4872
 IR Inten    --      0.9821                 1.1141                 1.2852

                     22                     23                     24
                      A                      A                      A
 Frequencies --    488.8217               528.7594               546.7006
 Red. masses --      3.0071                 3.5196                 4.1717
 Frc consts  --      0.4233                 0.5798                 0.7346
 IR Inten    --      7.3500                 3.4519                 1.3804

                     25                     26                     27
                      A                      A                      A
 Frequencies --    554.7836               586.0424               597.9713
 Red. masses --      4.4723                 2.4031                 3.4727
 Frc consts  --      0.8110                 0.4863                 0.7316
 IR Inten    --      5.3827                 2.1920                 4.0789

                     28                     29                     30
                      A                      A                      A
 Frequencies --    653.7074               730.3985               749.9831
 Red. masses --      4.5129                 2.1788                 3.7130
 Frc consts  --      1.1363                 0.6848                 1.2305
 IR Inten    --      6.3060                19.7032                 4.1842

                     31                     32                     33
                      A                      A                      A
 Frequencies --    779.4058               812.4377               839.9984
 Red. masses --      2.0132                 2.0096                 2.1111
 Frc consts  --      0.7206                 0.7815                 0.8776
 IR Inten    --     24.1108               147.5822                19.6381

                     34                     35                     36
                      A                      A                      A
 Frequencies --    844.5456               871.9024               876.1808
 Red. masses --      2.5591                 1.7315                 2.9514
 Frc consts  --      1.0754                 0.7756                 1.3350
 IR Inten    --     23.6521                 3.0183                 7.2316

                     37                     38                     39
                      A                      A                      A
 Frequencies --    906.6868               929.3267               940.7357
 Red. masses --      2.3758                 2.4218                 1.2158
 Frc consts  --      1.1507                 1.2323                 0.6339
 IR Inten    --     15.3837                15.7159                 0.5051

                     40                     41                     42
                      A                      A                      A
 Frequencies --    947.3430               952.4116               959.0157
 Red. masses --      2.3989                 1.2876                 1.4538
 Frc consts  --      1.2685                 0.6881                 0.7878
 IR Inten    --      7.5021                 1.3623                 1.2090

                     43                     44                     45
                      A                      A                      A
 Frequencies --   1002.2019              1041.5948              1055.4950
 Red. masses --      2.3338                 3.6110                 2.2063
 Frc consts  --      1.3811                 2.3082                 1.4482
 IR Inten    --      6.6432                82.0250                32.2836

                     46                     47                     48
                      A                      A                      A
 Frequencies --   1077.1941              1111.1766              1139.1153
 Red. masses --      3.3843                 1.9291                 4.2471
 Frc consts  --      2.3137                 1.4034                 3.2469
 IR Inten    --     70.2090                 7.2039                95.6283

                     49                     50                     51
                      A                      A                      A
 Frequencies --   1149.7482              1156.9896              1170.0527
 Red. masses --      3.2419                 2.1017                 2.4871
 Frc consts  --      2.5249                 1.6576                 2.0061
 IR Inten    --     22.5463                94.6889                 4.6650

                     52                     53                     54
                      A                      A                      A
 Frequencies --   1175.0868              1191.5952              1213.5337
 Red. masses --      2.0089                 1.1668                 1.8843
 Frc consts  --      1.6344                 0.9761                 1.6350
 IR Inten    --     23.7604                 5.8266                 2.3742

                     55                     56                     57
                      A                      A                      A
 Frequencies --   1221.2508              1230.4234              1244.7509
 Red. masses --      2.0290                 1.5913                 1.4716
 Frc consts  --      1.7829                 1.4194                 1.3434
 IR Inten    --     40.1864                34.5363                19.9317

                     58                     59                     60
                      A                      A                      A
 Frequencies --   1284.5771              1309.3843              1321.7078
 Red. masses --      1.7057                 1.3297                 2.3607
 Frc consts  --      1.6583                 1.3432                 2.4297
 IR Inten    --    170.4133                71.5311                31.1315

                     61                     62                     63
                      A                      A                      A
 Frequencies --   1332.1549              1361.6546              1365.3680
 Red. masses --      1.6316                 1.2957                 3.6260
 Frc consts  --      1.7060                 1.4154                 3.9827
 IR Inten    --     19.7914                 3.1237                 7.8046

                     64                     65                     66
                      A                      A                      A
 Frequencies --   1376.2215              1384.7588              1396.3476
 Red. masses --      1.3733                 1.2769                 1.2847
 Frc consts  --      1.5325                 1.4426                 1.4758
 IR Inten    --      6.3045                 4.6458                24.5388

                     67                     68                     69
                      A                      A                      A
 Frequencies --   1404.2966              1417.8176              1426.8567
 Red. masses --      1.2627                 1.4134                 1.3789
 Frc consts  --      1.4671                 1.6740                 1.6541
 IR Inten    --     18.8916                12.0664                17.4757

                     70                     71                     72
                      A                      A                      A
 Frequencies --   1436.7045              1440.9165              1495.9068
 Red. masses --      1.3446                 1.2734                 1.1040
 Frc consts  --      1.6352                 1.5577                 1.4555
 IR Inten    --      0.0773                23.2357                 4.9519

                     73                     74                     75
                      A                      A                      A
 Frequencies --   1504.2996              1507.4963              1509.5759
 Red. masses --      1.3004                 1.2200                 1.3008
 Frc consts  --      1.7338                 1.6335                 1.7465
 IR Inten    --     14.7893                27.4836                28.9116

                     76                     77                     78
                      A                      A                      A
 Frequencies --   1510.4141              1518.6174              1520.1099
 Red. masses --      1.2956                 1.0856                 1.0956
 Frc consts  --      1.7414                 1.4750                 1.4916
 IR Inten    --     32.9844                 1.5760                 3.3281

                     79                     80                     81
                      A                      A                      A
 Frequencies --   1522.5875              1532.5598              1541.3314
 Red. masses --      1.0576                 2.9487                 1.0690
 Frc consts  --      1.4445                 4.0806                 1.4962
 IR Inten    --      2.7689                33.1870                 4.8173

                     82                     83                     84
                      A                      A                      A
 Frequencies --   1639.3227              1667.0454              2966.0395
 Red. masses --      6.5057                 6.4063                 1.0723
 Frc consts  --     10.3008                10.4895                 5.5580
 IR Inten    --     71.3770                43.6958                50.8956

                     85                     86                     87
                      A                      A                      A
 Frequencies --   2978.2574              3043.4470              3050.0060
 Red. masses --      1.0809                 1.0608                 1.0351
 Frc consts  --      5.6488                 5.7890                 5.6730
 IR Inten    --     51.7621                33.4560                15.9001

                     88                     89                     90
                      A                      A                      A
 Frequencies --   3058.9071              3061.1390              3092.4935
 Red. masses --      1.0366                 1.0657                 1.1008
 Frc consts  --      5.7146                 5.8836                 6.2029
 IR Inten    --     27.6626                33.0829                61.1606

                     91                     92                     93
                      A                      A                      A
 Frequencies --   3096.7253              3098.3654              3118.5723
 Red. masses --      1.0954                 1.0856                 1.1025
 Frc consts  --      6.1889                 6.1402                 6.3175
 IR Inten    --     43.8311                 1.1970                 2.8139

                     94                     95                     96
                      A                      A                      A
 Frequencies --   3126.3017              3130.3796              3133.0192
 Red. masses --      1.1023                 1.0999                 1.0997
 Frc consts  --      6.3475                 6.3505                 6.3602
 IR Inten    --     29.7942                37.9392                38.5192

                     97                     98                     99
                      A                      A                      A
 Frequencies --   3149.7951              3169.7705              3201.0159
 Red. masses --      1.1016                 1.0888                 1.0910
 Frc consts  --      6.4395                 6.4453                 6.5865
 IR Inten    --     22.3417                15.5725                17.7079

                    100                    101                    102
                      A                      A                      A
 Frequencies --   3225.5153              3462.3046              3757.3061
 Red. masses --      1.0942                 1.0735                 1.0660
 Frc consts  --      6.7072                 7.5823                 8.8665
 IR Inten    --      9.2442                 2.2391                44.8464

 - Thermochemistry -
 -------------------
 Temperature   298.150 Kelvin.  Pressure   1.00000 Atm.
 Atom     1 has atomic number  6 and mass  12.00000

 Molecular mass:   237.13649 amu.
 Principal axes and moments of inertia in atomic units:
                           1         2         3
     Eigenvalues --  3152.656903990.591126227.18144
           X            0.99996   0.00490  -0.00803
           Y           -0.00480   0.99991   0.01221
           Z            0.00809  -0.01217   0.99989
 This molecule is an asymmetric top.
 Rotational symmetry number  1.
 Warning -- assumption of classical behavior for rotation
           may cause significant error
 Rotational temperatures (Kelvin)      0.02747     0.02170     0.01391
 Rotational constants (GHZ):           0.57245     0.45225     0.28982
 Zero-point vibrational energy     814681.6 (Joules/Mol)
                                  194.71357 (Kcal/Mol)
 Warning -- explicit consideration of  27 degrees of freedom as
           vibrations may cause significant error
 Vibrational temperatures:     64.58    81.62    94.44   124.55   141.53
          (Kelvin)            184.87   263.76   329.47   331.91   350.68
                              369.19   379.31   398.35   451.25   482.36
                              512.21   537.03   564.22   598.88   659.53
                              676.09   703.31   760.77   786.58   798.21
                              843.18   860.35   940.54  1050.88  1079.06
                             1121.39  1168.92  1208.57  1215.11  1254.47
                             1260.63  1304.52  1337.09  1353.51  1363.02
                             1370.31  1379.81  1441.95  1498.62  1518.62
                             1549.84  1598.74  1638.93  1654.23  1664.65
                             1683.44  1690.69  1714.44  1746.00  1757.11
                             1770.30  1790.92  1848.22  1883.91  1901.64
                             1916.67  1959.12  1964.46  1980.08  1992.36
                             2009.03  2020.47  2039.92  2052.93  2067.10
                             2073.16  2152.28  2164.35  2168.95  2171.94
                             2173.15  2184.95  2187.10  2190.66  2205.01
                             2217.63  2358.62  2398.51  4267.47  4285.05
                             4378.84  4388.28  4401.09  4404.30  4449.41
                             4455.50  4457.86  4486.93  4498.05  4503.92
                             4507.72  4531.85  4560.59  4605.55  4640.80
                             4981.48  5405.93

 Zero-point correction=                           0.310296 (Hartree/Particle)
 Thermal correction to Energy=                    0.326530
 Thermal correction to Enthalpy=                  0.327475
 Thermal correction to Gibbs Free Energy=         0.267047
 Sum of electronic and zero-point Energies=           -786.970221
 Sum of electronic and thermal Energies=              -786.953987
 Sum of electronic and thermal Enthalpies=            -786.953042
 Sum of electronic and thermal Free Energies=         -787.013470

                     E (Thermal)             CV                S
                      KCal/Mol        Cal/Mol-Kelvin    Cal/Mol-Kelvin
 Total                  204.901             63.749            127.181
 Electronic               0.000              0.000              0.000
 Translational            0.889              2.981             42.292
 Rotational               0.889              2.981             32.727
 Vibrational            203.123             57.787             52.163
 Vibration     1          0.595              1.979              5.031
 Vibration     2          0.596              1.975              4.568
 Vibration     3          0.597              1.971              4.280
 Vibration     4          0.601              1.959              3.736
 Vibration     5          0.604              1.950              3.486
 Vibration     6          0.611              1.925              2.969
 Vibration     7          0.631              1.863              2.294
 Vibration     8          0.652              1.797              1.887
 Vibration     9          0.652              1.794              1.874
 Vibration    10          0.659              1.773              1.775
 Vibration    11          0.666              1.752              1.685
 Vibration    12          0.670              1.740              1.638
 Vibration    13          0.678              1.716              1.553
 Vibration    14          0.701              1.648              1.343
 Vibration    15          0.716              1.605              1.235
 Vibration    16          0.732              1.563              1.140
 Vibration    17          0.745              1.527              1.066
 Vibration    18          0.760              1.487              0.992
 Vibration    19          0.779              1.435              0.905
 Vibration    20          0.816              1.342              0.771
 Vibration    21          0.827              1.317              0.738
 Vibration    22          0.845              1.275              0.687
 Vibration    23          0.884              1.186              0.590
 Vibration    24          0.902              1.147              0.551
 Vibration    25          0.910              1.129              0.534
 Vibration    26          0.943              1.062              0.474
 Vibration    27          0.956              1.036              0.453

                           ! Non-Optimized Parameters !
 Normal termination of Gaussian 16 at Fri Dec 11 12:20:53 2020.

 ----------------------------------------------------------------------
 # B3LYP/6-311++G(d,p) empiricaldispersion=gd3bj scf=xqc pop=npa geom=c
 heck
 ----------------------------------------------------------------------

 ---------------------------------------
 CID_117346871_JID_7466_Energie_neutraal
 ---------------------------------------
 Structure from the checkpoint file:  "JID_7466.chk"
 Charge =  0 Multiplicity = 1

 SCF Done:  E(RB3LYP) =  -787.507980124     A.U. after   15 cycles
 Normal termination of Gaussian 16 at Fri Dec 11 12:28:28 2020.

 ----------------------------------------------------------------------
 # B3LYP/6-311++G(d,p) empiricaldispersion=gd3bj scf=xqc pop=npa geom=c
 heck
 ----------------------------------------------------------------------

 -------------------------------------
 CID_117346871_JID_7466_Energie_kation
 -------------------------------------
 Structure from the checkpoint file:  "JID_7466.chk"
 Charge =  1 Multiplicity = 2

 SCF Done:  E(UB3LYP) =  -787.230045904     A.U. after   29 cycles
 Normal termination of Gaussian 16 at Fri Dec 11 12:54:22 2020.
 Gaussian 16:  ES64L-G16RevA.03 25-Dec-2016

 ----------------------------------------------------------------------
 # B3LYP/6-311++G(d,p) empiricaldispersion=gd3bj scf=xqc pop=npa geom=c
 heck
 ----------------------------------------------------------------------

 ------------------------------------
 CID_117346871_JID_7466_Energie_anion
 ------------------------------------
 Structure from the checkpoint file:  "JID_7466.chk"
 Charge = -1 Multiplicity = 2

                         Standard orientation:
 ---------------------------------------------------------------------
 Center     Atomic      Atomic             Coordinates (Angstroms)
 Number     Number       Type             X           Y           Z
 ---------------------------------------------------------------------
      1          6           0        1.296450    3.192222   -0.338001
      2          6           0        0.302591    2.275124    0.354362
      3          6           0       -0.547827    2.985867    1.402896
      4          8           0       -0.532023    1.744999   -0.696096
      5          6           0       -1.318015    0.660688   -0.407447
      6          6           0       -2.698038    0.903047   -0.356713
      7          6           0       -3.593554   -0.134895   -0.136266
      8          6           0       -3.119397   -1.432234    0.042486
      9          6           0       -1.747369   -1.670677   -0.017487
     10          6           0       -0.809672   -0.644874   -0.250476
     11          6           0        0.643264   -1.068154   -0.311113
     12          6           0        1.245328   -1.329375    1.088231
     13          7           0        2.659509   -1.708641    1.041754
     14          6           0        3.423121   -0.773555    0.209935
     15          6           0        2.779309   -0.547813   -1.157574
     16          8           0        1.432084   -0.116310   -1.020722
     17          8           0       -1.242418   -2.941192    0.141056
     18          1           0        0.770543    4.003294   -0.853695
     19          1           0        1.868976    2.623609   -1.075136
     20          1           0        1.985461    3.632651    0.390938
     21          1           0        0.847647    1.449081    0.819260
     22          1           0       -1.091675    3.822964    0.950943
     23          1           0       -1.277889    2.300214    1.845210
     24          1           0        0.085564    3.376644    2.207437
     25          1           0       -3.034775    1.923371   -0.501625
     26          1           0       -4.660789    0.062076   -0.096512
     27          1           0       -3.805258   -2.257660    0.221667
     28          1           0        0.685213   -2.024286   -0.859376
     29          1           0        1.155862   -0.418621    1.692746
     30          1           0        0.678856   -2.119235    1.587962
     31          1           0        2.733437   -2.642993    0.638037
     32          1           0        3.473803    0.185887    0.741450
     33          1           0        4.448340   -1.146036    0.098158
     34          1           0        3.292214    0.236039   -1.724820
     35          1           0        2.814750   -1.482632   -1.745785
     36          1           0       -1.985136   -3.556069    0.239952
 ---------------------------------------------------------------------

 SCF Done:  E(UB3LYP) =  -787.496831963     A.U. after   33 cycles
 SCF Done:  E(UB3LYP) =  -787.496831963     a.u. after    1 cycles

 The electronic state is 2-A.
 Alpha  occ. eigenvalues --  -19.05230 -19.03581 -19.03023 -14.20888 -10.14140
 Alpha  occ. eigenvalues --  -10.13676 -10.13492 -10.13086 -10.12318 -10.10170
 Alpha  occ. eigenvalues --  -10.09622 -10.08667 -10.08335 -10.07457 -10.07342
 Alpha  occ. eigenvalues --  -10.07115 -10.07096  -0.96374  -0.95840  -0.94711
 Alpha  occ. eigenvalues --   -0.81383  -0.75977  -0.69973  -0.69786  -0.64657
 Alpha  occ. eigenvalues --   -0.63467  -0.60518  -0.58516  -0.56234  -0.53407
 Alpha  occ. eigenvalues --   -0.51402  -0.50533  -0.47974  -0.44856  -0.41477
 Alpha  occ. eigenvalues --   -0.40579  -0.39685  -0.39406  -0.37638  -0.36979
 Alpha  occ. eigenvalues --   -0.36508  -0.36096  -0.35494  -0.35210  -0.32258
 Alpha  occ. eigenvalues --   -0.31450  -0.31034  -0.30292  -0.30043  -0.28920
 Alpha  occ. eigenvalues --   -0.28391  -0.27976  -0.27646  -0.26995  -0.26583
 Alpha  occ. eigenvalues --   -0.25490  -0.24635  -0.23335  -0.22345  -0.18906
 Alpha  occ. eigenvalues --   -0.18033  -0.15243  -0.13108  -0.12075   0.04160
 Alpha virt. eigenvalues --    0.05629   0.06252   0.07475   0.07913   0.08080
 Alpha virt. eigenvalues --    0.08234   0.09200   0.09387   0.09479   0.10020
 Alpha virt. eigenvalues --    0.10492   0.11319   0.11946   0.12103   0.12301

  Beta  occ. eigenvalues --  -19.05166 -19.03579 -19.03018 -14.20877 -10.14140
  Beta  occ. eigenvalues --  -10.13673 -10.13489 -10.13080 -10.12302 -10.10152
  Beta  occ. eigenvalues --  -10.09614 -10.08661 -10.08328 -10.07446 -10.07306
  Beta  occ. eigenvalues --  -10.07104 -10.07095  -0.96273  -0.95816  -0.94700
  Beta  occ. eigenvalues --   -0.81357  -0.75950  -0.69955  -0.69766  -0.64622
  Beta  occ. eigenvalues --   -0.63434  -0.60497  -0.58490  -0.56202  -0.53349
  Beta  occ. eigenvalues --   -0.51351  -0.50501  -0.47937  -0.44807  -0.41444
  Beta  occ. eigenvalues --   -0.40543  -0.39637  -0.39352  -0.37611  -0.36955
  Beta  occ. eigenvalues --   -0.36486  -0.36069  -0.35476  -0.35183  -0.32225
  Beta  occ. eigenvalues --   -0.31416  -0.31014  -0.30272  -0.30011  -0.28900
  Beta  occ. eigenvalues --   -0.28369  -0.27935  -0.27609  -0.26979  -0.26556
  Beta  occ. eigenvalues --   -0.25466  -0.24607  -0.23316  -0.22324  -0.18881
  Beta  occ. eigenvalues --   -0.18016  -0.15225  -0.13083  -0.12053
  Beta virt. eigenvalues --    0.05992   0.06777   0.07174   0.07922   0.08160
  Beta virt. eigenvalues --    0.08402   0.08472   0.09247   0.09499   0.09947
  Beta virt. eigenvalues --    0.10312   0.10646   0.11495   0.12111   0.12211

 Mulliken charges and spin densities:
               1          2
     1  C    0.000633  -0.511953
     2  C   -0.485846   0.614038
     3  C   -0.284113  -0.283770
     4  O    0.026109  -0.006421
     5  C   -0.837226   0.262583
     6  C   -1.102960   0.940314
     7  C    1.167233  -1.327270
     8  C   -0.736549   0.106516
     9  C   -0.349740  -0.250470
    10  C    2.077108  -0.935820
    11  C    0.926400  -0.913954
    12  C   -0.170003  -0.407939
    13  N   -0.156818   0.094253
    14  C    0.294783  -0.636769
    15  C   -0.003659  -0.085250
    16  O   -0.080669   0.017746
    17  O   -0.231149   0.060446
    18  H    0.093365   0.044090
    19  H    0.163490   0.003055
    20  H   -0.096664   0.225877
    21  H    0.469789  -0.442834
    22  H    0.065541   0.092682
    23  H    0.127161   0.025483
    24  H    0.005390   0.133722
    25  H    0.051436   0.098318
    26  H    0.072959   0.095261
    27  H   -1.180553   1.343510
    28  H    0.130629   0.136233
    29  H   -0.057703   0.233761
    30  H    0.137110   0.094735
    31  H    0.133370   0.115972
    32  H    0.109509   0.035817
    33  H   -0.583568   0.771125
    34  H   -0.146125   0.310594
    35  H    0.004639   0.104752
    36  H   -0.553306   0.841567
 Sum of Mulliken charges =  -1.00000   1.00000

 Dipole moment (field-independent basis, Debye):
    X=              1.6685    Y=              7.4141    Z=             -0.3153  Tot=              7.6060
 Quadrupole moment (field-independent basis, Debye-Ang):
   XX=           -175.5428   YY=           -169.8643   ZZ=           -132.5541
   XY=            -18.6200   XZ=              1.1487   YZ=              5.0218

 Summary of Natural Population Analysis:

                                       Natural Population
                Natural  -----------------------------------------------
    Atom  No    Charge         Core      Valence    Rydberg      Total
 -----------------------------------------------------------------------
      C    1   -0.29044      0.99963     2.28393    0.00688     3.29044
      C    2    0.06038      0.99955     1.92804    0.01203     2.93962
      C    3   -0.29770      0.99964     2.29344    0.00462     3.29770
      O    4   -0.29282      0.99985     3.28305    0.00993     4.29282
      C    5    0.16698      0.99935     1.81959    0.01409     2.83302
      C    6   -0.13348      0.99951     2.12409    0.00988     3.13348
      C    7   -0.09094      0.99957     2.08161    0.00975     3.09094
      C    8   -0.14076      0.99952     2.13051    0.01073     3.14076
      C    9    0.17011      0.99936     1.81700    0.01353     2.82989
      C   10   -0.06932      0.99940     2.05811    0.01181     3.06932
      C   11    0.05057      0.99951     1.93426    0.01566     2.94943
      C   12   -0.09773      0.99959     2.08752    0.01062     3.09773
      N   13   -0.33422      0.99976     2.82159    0.01287     3.83422
      C   14   -0.10428      0.99963     2.09326    0.01139     3.10428
      C   15   -0.01732      0.99958     2.00490    0.01285     3.01732
      O   16   -0.30085      0.99988     3.29032    0.01065     4.30085
      O   17   -0.34580      0.99988     3.33833    0.00760     4.34580
      H   18    0.09780      0.00000     0.40131    0.00089     0.40220
      H   19    0.10897      0.00000     0.38993    0.00109     0.39103
      H   20    0.09743      0.00000     0.40183    0.00074     0.40257
      H   21    0.08568      0.00000     0.41123    0.00309     0.41432
      H   22    0.09773      0.00000     0.40124    0.00103     0.40227
      H   23    0.10545      0.00000     0.39367    0.00088     0.39455
      H   24    0.09928      0.00000     0.39993    0.00079     0.40072
      H   25    0.10307      0.00000     0.39559    0.00134     0.39693
      H   26    0.10015      0.00000     0.39907    0.00078     0.39985
      H   27    0.10733      0.00000     0.38932    0.00335     0.39267
      H   28    0.09489      0.00000     0.40296    0.00214     0.40511
      H   29    0.08814      0.00000     0.41028    0.00159     0.41186
      H   30    0.10841      0.00000     0.39040    0.00119     0.39159
      H   31    0.17109      0.00000     0.32653    0.00238     0.32891
      H   32    0.09043      0.00000     0.40813    0.00144     0.40957
      H   33    0.09759      0.00000     0.40091    0.00150     0.40241
      H   34    0.09128      0.00000     0.40763    0.00109     0.40872
      H   35    0.07675      0.00000     0.42167    0.00158     0.42325
      H   36    0.24615      0.00000     0.22655    0.02730     0.25385
 =======================================================================
   * Total *   -0.00000     16.99320    46.76771    0.23908    64.00000

 Normal termination of Gaussian 16 at Fri Dec 11 13:19:33 2020.
