 Gaussian 16, Revision A.03,

 -----------------------------------------------------------
 # opt freq B3LYP/6-31G(d) empiricaldispersion=gd3bj scf=xqc
 -----------------------------------------------------------

 --------------------------------
 CID_105853904_JID_10523_neutraal
 --------------------------------
 Symbolic Z-matrix:
 Charge =  0 Multiplicity = 1

 SCF Done:  E(RB3LYP) =  -1366.61264915     A.U. after   15 cycles
 SCF Done:  E(RB3LYP) =  -1366.62430854     A.U. after   15 cycles
 SCF Done:  E(RB3LYP) =  -1366.62017716     A.U. after   16 cycles
 SCF Done:  E(RB3LYP) =  -1366.62721622     A.U. after   15 cycles
 SCF Done:  E(RB3LYP) =  -1366.62882791     A.U. after   14 cycles
 SCF Done:  E(RB3LYP) =  -1366.62973840     A.U. after   14 cycles
 SCF Done:  E(RB3LYP) =  -1366.63069183     A.U. after   14 cycles
 SCF Done:  E(RB3LYP) =  -1366.63102681     A.U. after   13 cycles
 SCF Done:  E(RB3LYP) =  -1366.63111312     A.U. after   12 cycles
 SCF Done:  E(RB3LYP) =  -1366.63115310     A.U. after   11 cycles
 SCF Done:  E(RB3LYP) =  -1366.63126780     A.U. after    9 cycles
 SCF Done:  E(RB3LYP) =  -1366.63127045     A.U. after   10 cycles
 SCF Done:  E(RB3LYP) =  -1366.63127058     A.U. after    8 cycles
 SCF Done:  E(RB3LYP) =  -1366.63127121     A.U. after    9 cycles
 SCF Done:  E(RB3LYP) =  -1366.63127143     A.U. after    8 cycles
 SCF Done:  E(RB3LYP) =  -1366.63127155     A.U. after    8 cycles
 Optimization completed.
    -- Stationary point found.
 Normal termination of Gaussian 16 at Mon Dec 14 17:51:31 2020.

 --------------------------------------------------------------------
 #N Geom=AllCheck Guess=TCheck SCRF=Check GenChk RB3LYP/6-31G(d) Freq
 --------------------------------------------------------------------

 Structure from the checkpoint file:  "JID_10523.chk"
 --------------------------------
 CID_105853904_JID_10523_neutraal
 --------------------------------
 Charge =  0 Multiplicity = 1

 SCF Done:  E(RB3LYP) =  -1366.63127155     A.U. after    1 cycles

  Exact polarizability: 228.931 -13.904 162.623  19.756  23.519 125.722
 Approx polarizability: 306.706 -16.902 288.680  50.950  66.440 225.485

                      1                      2                      3
                      A                      A                      A
 Frequencies --     21.0132                25.5618                35.6333
 Red. masses --      6.3811                 4.0078                 4.5174
 Frc consts  --      0.0017                 0.0015                 0.0034
 IR Inten    --      0.0730                 0.4151                 0.3634

                      4                      5                      6
                      A                      A                      A
 Frequencies --     55.0086                65.8450                69.4687
 Red. masses --      3.6793                 1.9108                 9.7447
 Frc consts  --      0.0066                 0.0049                 0.0277
 IR Inten    --      3.9128                 2.1635                 0.1034

                      7                      8                      9
                      A                      A                      A
 Frequencies --     99.5033               116.7626               139.8657
 Red. masses --      5.1779                 4.7706                 9.2250
 Frc consts  --      0.0302                 0.0383                 0.1063
 IR Inten    --      0.4201                 1.5967                 4.7248

                     10                     11                     12
                      A                      A                      A
 Frequencies --    170.3762               220.1900               234.2794
 Red. masses --      5.2977                 1.4517                 5.7137
 Frc consts  --      0.0906                 0.0415                 0.1848
 IR Inten    --      4.8563                 1.9993                 0.2576

                     13                     14                     15
                      A                      A                      A
 Frequencies --    247.3854               268.3761               271.4783
 Red. masses --      7.1549                 2.8134                 2.1908
 Frc consts  --      0.2580                 0.1194                 0.0951
 IR Inten    --      3.5472                66.8157                69.2530

                     16                     17                     18
                      A                      A                      A
 Frequencies --    286.0232               305.7112               317.0777
 Red. masses --      3.2985                 6.0661                 3.5791
 Frc consts  --      0.1590                 0.3340                 0.2120
 IR Inten    --     64.1353                 3.7789                12.4729

                     19                     20                     21
                      A                      A                      A
 Frequencies --    337.2279               374.8588               402.7408
 Red. masses --      3.8543                 4.6905                 3.7807
 Frc consts  --      0.2583                 0.3883                 0.3613
 IR Inten    --     16.3718                10.2960                 7.0855

                     22                     23                     24
                      A                      A                      A
 Frequencies --    431.3301               446.5000               453.1207
 Red. masses --      6.0620                 3.7652                 8.1966
 Frc consts  --      0.6645                 0.4423                 0.9915
 IR Inten    --      1.7278                 1.0986                13.1721

                     25                     26                     27
                      A                      A                      A
 Frequencies --    496.5908               518.2980               546.5483
 Red. masses --      2.8154                 2.6279                 1.9753
 Frc consts  --      0.4091                 0.4159                 0.3476
 IR Inten    --     36.1214                28.6216                 3.5703

                     28                     29                     30
                      A                      A                      A
 Frequencies --    557.0618               571.4122               584.6340
 Red. masses --      4.1831                 3.2009                 3.1066
 Frc consts  --      0.7648                 0.6158                 0.6256
 IR Inten    --     13.3327                12.8863                17.7435

                     31                     32                     33
                      A                      A                      A
 Frequencies --    594.5932               610.8556               622.3679
 Red. masses --      1.3397                 6.0947                 5.1240
 Frc consts  --      0.2791                 1.3399                 1.1694
 IR Inten    --     16.1650                88.6670                49.5214

                     34                     35                     36
                      A                      A                      A
 Frequencies --    649.0562               694.1042               722.4750
 Red. masses --      3.8353                 4.5717                 6.6743
 Frc consts  --      0.9519                 1.2977                 2.0526
 IR Inten    --    180.7486                 6.6694                79.5829

                     37                     38                     39
                      A                      A                      A
 Frequencies --    759.2657               791.0977               818.4166
 Red. masses --      4.7543                 2.3121                 1.4193
 Frc consts  --      1.6148                 0.8525                 0.5601
 IR Inten    --     18.6982                 7.4599                17.2278

                     40                     41                     42
                      A                      A                      A
 Frequencies --    832.3113               849.9991               859.4200
 Red. masses --      1.4979                 8.3815                 3.1546
 Frc consts  --      0.6114                 3.5679                 1.3728
 IR Inten    --      9.8750                29.7867                57.4196

                     43                     44                     45
                      A                      A                      A
 Frequencies --    882.5724               938.0679               946.2776
 Red. masses --      1.4184                 2.3303                 4.8580
 Frc consts  --      0.6510                 1.2082                 2.5630
 IR Inten    --     11.2103                10.0876                 5.1104

                     46                     47                     48
                      A                      A                      A
 Frequencies --    952.9863               978.4093               998.5225
 Red. masses --      3.4168                 1.3004                 3.0069
 Frc consts  --      1.8283                 0.7335                 1.7664
 IR Inten    --      2.0625                 0.6000                49.9660

                     49                     50                     51
                      A                      A                      A
 Frequencies --   1045.8135              1057.3771              1075.1480
 Red. masses --      1.6357                 2.0265                 2.4512
 Frc consts  --      1.0541                 1.3349                 1.6694
 IR Inten    --      7.1073                16.7607                10.9739

                     52                     53                     54
                      A                      A                      A
 Frequencies --   1109.2204              1119.6980              1123.5782
 Red. masses --      3.0138                 2.8091                 2.9304
 Frc consts  --      2.1848                 2.0750                 2.1796
 IR Inten    --     80.9761                33.2856                54.3347

                     55                     56                     57
                      A                      A                      A
 Frequencies --   1134.7451              1151.1161              1187.2725
 Red. masses --      2.8670                 3.6361                 1.2977
 Frc consts  --      2.1750                 2.8387                 1.0778
 IR Inten    --      1.4367               191.8856                 1.5406

                     58                     59                     60
                      A                      A                      A
 Frequencies --   1190.6795              1195.9043              1235.1987
 Red. masses --      1.3873                 2.1334                 1.3532
 Frc consts  --      1.1588                 1.7977                 1.2165
 IR Inten    --     12.7829                45.3348                 1.5784

                     61                     62                     63
                      A                      A                      A
 Frequencies --   1239.6897              1256.9321              1280.1019
 Red. masses --      1.6374                 1.5887                 1.1810
 Frc consts  --      1.4826                 1.4788                 1.1403
 IR Inten    --     28.5339                34.0404                 6.4643

                     64                     65                     66
                      A                      A                      A
 Frequencies --   1292.2582              1307.2074              1311.5187
 Red. masses --      1.7002                 1.6081                 1.8929
 Frc consts  --      1.6728                 1.6190                 1.9184
 IR Inten    --    112.3759                18.3727               107.3760

                     67                     68                     69
                      A                      A                      A
 Frequencies --   1316.0982              1344.0942              1368.8463
 Red. masses --      2.6434                 3.5960                 3.3860
 Frc consts  --      2.6977                 3.8276                 3.7381
 IR Inten    --    103.1561                85.9319               204.0661

                     70                     71                     72
                      A                      A                      A
 Frequencies --   1399.9176              1410.9741              1433.0717
 Red. masses --      1.4841                 5.3737                 1.3768
 Frc consts  --      1.7137                 6.3033                 1.6659
 IR Inten    --    142.4099                40.9124                11.3868

                     73                     74                     75
                      A                      A                      A
 Frequencies --   1440.5382              1483.2898              1495.2396
 Red. masses --      1.2333                 3.8585                 1.0944
 Frc consts  --      1.5079                 5.0017                 1.4416
 IR Inten    --     11.2887                81.1593                 2.6948

                     76                     77                     78
                      A                      A                      A
 Frequencies --   1507.4998              1523.4587              1525.0511
 Red. masses --      1.1685                 1.0873                 2.5404
 Frc consts  --      1.5645                 1.4868                 3.4812
 IR Inten    --      0.2203                 6.9581                31.2388

                     79                     80                     81
                      A                      A                      A
 Frequencies --   1528.2777              1538.1723              1583.2160
 Red. masses --      1.0953                 1.0580                 4.7228
 Frc consts  --      1.5073                 1.4748                 6.9748
 IR Inten    --      6.1308                13.3824               156.8179

                     82                     83                     84
                      A                      A                      A
 Frequencies --   1623.1029              1651.9285              1683.8672
 Red. masses --      6.3048                 1.7154                 6.0933
 Frc consts  --      9.7862                 2.7580                10.1792
 IR Inten    --    140.7420                12.0224               315.7197

                     85                     86                     87
                      A                      A                      A
 Frequencies --   3018.9642              3036.8266              3070.8645
 Red. masses --      1.0360                 1.0847                 1.1018
 Frc consts  --      5.5633                 5.8938                 6.1219
 IR Inten    --     40.2705                20.4901                35.0445

                     88                     89                     90
                      A                      A                      A
 Frequencies --   3088.5090              3091.1283              3109.7978
 Red. masses --      1.0605                 1.0864                 1.0606
 Frc consts  --      5.9602                 6.1162                 6.0430
 IR Inten    --     35.6347                21.9768                14.6027

                     91                     92                     93
                      A                      A                      A
 Frequencies --   3142.9374              3145.8854              3167.5338
 Red. masses --      1.0996                 1.1078                 1.1068
 Frc consts  --      6.3995                 6.4594                 6.5426
 IR Inten    --     37.1481                25.1138                16.6420

                     94                     95                     96
                      A                      A                      A
 Frequencies --   3213.1383              3244.2346              3258.8344
 Red. masses --      1.0904                 1.0890                 1.0938
 Frc consts  --      6.6326                 6.7532                 6.8443
 IR Inten    --      3.4841                 2.3902                 1.6939

                     97                     98                     99
                      A                      A                      A
 Frequencies --   3526.9656              3576.0737              3711.1467
 Red. masses --      1.0753                 1.0458                 1.1040
 Frc consts  --      7.8808                 7.8797                 8.9583
 IR Inten    --     19.7036               113.2333                71.7862

 - Thermochemistry -
 -------------------
 Temperature   298.150 Kelvin.  Pressure   1.00000 Atm.
 Atom     1 has atomic number  6 and mass  12.00000

 Molecular mass:   301.07324 amu.
 Principal axes and moments of inertia in atomic units:
                           1         2         3
     Eigenvalues --  3168.02072********************
           X            0.99991   0.01371   0.00026
           Y           -0.01371   0.99970   0.02040
           Z            0.00002  -0.02040   0.99979
 This molecule is an asymmetric top.
 Rotational symmetry number  1.
 Warning -- assumption of classical behavior for rotation
           may cause significant error
 Rotational temperatures (Kelvin)      0.02734     0.00722     0.00632
 Rotational constants (GHZ):           0.56967     0.15039     0.13161
 Zero-point vibrational energy     716225.9 (Joules/Mol)
                                  171.18211 (Kcal/Mol)
 Warning -- explicit consideration of  32 degrees of freedom as
           vibrations may cause significant error
 Vibrational temperatures:     30.23    36.78    51.27    79.15    94.74
          (Kelvin)             99.95   143.16   168.00   201.24   245.13
                              316.80   337.08   355.93   386.13   390.60
                              411.52   439.85   456.20   485.20   539.34
                              579.45   620.59   642.41   651.94   714.48
                              745.72   786.36   801.49   822.13   841.16
                              855.49   878.88   895.45   933.85   998.66
                             1039.48  1092.41  1138.21  1177.52  1197.51
                             1222.96  1236.51  1269.82  1349.67  1361.48
                             1371.13  1407.71  1436.65  1504.69  1521.33
                             1546.90  1595.92  1611.00  1616.58  1632.65
                             1656.20  1708.22  1713.12  1720.64  1777.18
                             1783.64  1808.45  1841.78  1859.27  1880.78
                             1886.98  1893.57  1933.85  1969.46  2014.17
                             2030.08  2061.87  2072.61  2134.12  2151.32
                             2168.96  2191.92  2194.21  2198.85  2213.09
                             2277.89  2335.28  2376.76  2422.71  4343.62
                             4369.32  4418.29  4443.68  4447.44  4474.31
                             4521.99  4526.23  4557.37  4622.99  4667.73
                             4688.74  5074.52  5145.17  5339.51

 Zero-point correction=                           0.272796 (Hartree/Particle)
 Thermal correction to Energy=                    0.292061
 Thermal correction to Enthalpy=                  0.293005
 Thermal correction to Gibbs Free Energy=         0.222732
 Sum of electronic and zero-point Energies=          -1366.358475
 Sum of electronic and thermal Energies=             -1366.339210
 Sum of electronic and thermal Enthalpies=           -1366.338266
 Sum of electronic and thermal Free Energies=        -1366.408539

                     E (Thermal)             CV                S
                      KCal/Mol        Cal/Mol-Kelvin    Cal/Mol-Kelvin
 Total                  183.271             72.365            147.902
 Electronic               0.000              0.000              0.000
 Translational            0.889              2.981             43.003
 Rotational               0.889              2.981             34.610
 Vibrational            181.494             66.404             70.289
 Vibration     1          0.593              1.986              6.536
 Vibration     2          0.593              1.985              6.147
 Vibration     3          0.594              1.982              5.488
 Vibration     4          0.596              1.976              4.629
 Vibration     5          0.597              1.971              4.274
 Vibration     6          0.598              1.969              4.168
 Vibration     7          0.604              1.949              3.464
 Vibration     8          0.608              1.935              3.153
 Vibration     9          0.615              1.913              2.806
 Vibration    10          0.625              1.879              2.431
 Vibration    11          0.647              1.810              1.958
 Vibration    12          0.654              1.788              1.846
 Vibration    13          0.661              1.767              1.749
 Vibration    14          0.673              1.731              1.607
 Vibration    15          0.675              1.726              1.587
 Vibration    16          0.684              1.700              1.497
 Vibration    17          0.696              1.663              1.385
 Vibration    18          0.704              1.641              1.325
 Vibration    19          0.718              1.601              1.225
 Vibration    20          0.746              1.524              1.060
 Vibration    21          0.768              1.464              0.953
 Vibration    22          0.792              1.402              0.854
 Vibration    23          0.806              1.369              0.806
 Vibration    24          0.812              1.354              0.786
 Vibration    25          0.852              1.258              0.667
 Vibration    26          0.873              1.209              0.614
 Vibration    27          0.902              1.147              0.551
 Vibration    28          0.913              1.124              0.530
 Vibration    29          0.928              1.093              0.502
 Vibration    30          0.942              1.065              0.477
 Vibration    31          0.952              1.043              0.459
 Vibration    32          0.970              1.009              0.431

 Optimization completed.
    -- Stationary point found.
 Normal termination of Gaussian 16 at Mon Dec 14 18:08:00 2020.

 ----------------------------------------------------------------------
 # B3LYP/6-311++G(d,p) empiricaldispersion=gd3bj scf=xqc pop=npa geom=c
 heck
 ----------------------------------------------------------------------

 ----------------------------------------
 CID_105853904_JID_10523_Energie_neutraal
 ----------------------------------------
 Structure from the checkpoint file:  "JID_10523.chk"
 Charge =  0 Multiplicity = 1

 SCF Done:  E(RB3LYP) =  -1366.94345768     A.U. after   17 cycles
 Normal termination of Gaussian 16 at Mon Dec 14 18:15:14 2020.

 ----------------------------------------------------------------------
 # B3LYP/6-311++G(d,p) empiricaldispersion=gd3bj scf=xqc pop=npa geom=c
 heck
 ----------------------------------------------------------------------

 --------------------------------------
 CID_105853904_JID_10523_Energie_kation
 --------------------------------------
 Structure from the checkpoint file:  "JID_10523.chk"
 Charge =  1 Multiplicity = 2

 SCF Done:  E(UB3LYP) =  -1366.62867198     A.U. after   32 cycles
 Normal termination of Gaussian 16 at Mon Dec 14 18:34:14 2020.
 Gaussian 16:  ES64L-G16RevA.03 25-Dec-2016

 ----------------------------------------------------------------------
 # B3LYP/6-311++G(d,p) empiricaldispersion=gd3bj scf=xqc pop=npa geom=c
 heck
 ----------------------------------------------------------------------

 -------------------------------------
 CID_105853904_JID_10523_Energie_anion
 -------------------------------------
 Structure from the checkpoint file:  "JID_10523.chk"
 Charge = -1 Multiplicity = 2

                         Standard orientation:
 ---------------------------------------------------------------------
 Center     Atomic      Atomic             Coordinates (Angstroms)
 Number     Number       Type             X           Y           Z
 ---------------------------------------------------------------------
      1          6           0       -5.908104   -0.787144    0.016328
      2          8           0       -5.072132   -1.909852    0.223059
      3          6           0       -3.701876   -1.654739    0.388456
      4          6           0       -2.903803   -0.770362   -0.606360
      5          6           0       -2.044362   -0.316150    0.596460
      6          6           0       -3.182892   -0.756362    1.547236
      7          7           0       -1.710315    1.106900    0.673588
      8         16           0       -0.688009    1.785863   -0.472677
      9          8           0       -1.274537    1.530294   -1.786141
     10          8           0       -0.400660    3.134819    0.016888
     11          6           0        0.839389    0.836888   -0.389388
     12          6           0        1.862904    1.312552    0.403091
     13          6           0        3.069157    0.582350    0.551130
     14          6           0        3.148142   -0.655136   -0.148028
     15          6           0        2.093814   -1.111881   -0.952793
     16          6           0        0.932163   -0.377604   -1.088887
     17          7           0        4.330039   -1.495060   -0.080350
     18          8           0        4.324327   -2.564444   -0.688264
     19          8           0        5.303703   -1.104528    0.588520
     20          7           0        4.047564    1.074667    1.348911
     21          1           0       -6.927478   -1.175175   -0.044685
     22          1           0       -5.675535   -0.260884   -0.919281
     23          1           0       -5.857595   -0.066972    0.845232
     24          1           0       -3.248107   -2.647738    0.458967
     25          1           0       -2.403889   -1.255393   -1.447437
     26          1           0       -3.483328    0.076352   -0.977839
     27          1           0       -1.156469   -0.950876    0.717589
     28          1           0       -3.851872    0.087825    1.736061
     29          1           0       -2.915313   -1.233470    2.493877
     30          1           0       -1.429542    1.417158    1.601904
     31          1           0        1.752495    2.268168    0.905362
     32          1           0        2.227931   -2.053468   -1.469190
     33          1           0        0.127769   -0.703765   -1.735818
     34          1           0        3.967062    2.016458    1.699921
     35          1           0        4.938197    0.597646    1.367146
 ---------------------------------------------------------------------

 SCF Done:  E(UB3LYP) =  -1366.99946111     A.U. after   23 cycles

 The electronic state is 2-A.
 Alpha  occ. eigenvalues --  -88.95494 -19.06251 -19.01211 -19.01115 -18.96256
 Alpha  occ. eigenvalues --  -18.96097 -14.34272 -14.24785 -14.20251 -10.15456
 Alpha  occ. eigenvalues --  -10.15004 -10.13762 -10.10865 -10.10179 -10.09113
 Alpha  occ. eigenvalues --  -10.07966 -10.07593 -10.05675 -10.05471 -10.04816
 Alpha  occ. eigenvalues --   -8.01638  -5.97943  -5.97910  -5.97684  -1.04160
 Alpha  occ. eigenvalues --   -1.01561  -0.97447  -0.90756  -0.86932  -0.84142
 Alpha  occ. eigenvalues --   -0.81379  -0.76214  -0.73529  -0.66914  -0.64685
 Alpha  occ. eigenvalues --   -0.62192  -0.60030  -0.58848  -0.55869  -0.51487
 Alpha  occ. eigenvalues --   -0.50036  -0.48890  -0.47109  -0.45105  -0.44178
 Alpha  occ. eigenvalues --   -0.42770  -0.41626  -0.39809  -0.39772  -0.38967
 Alpha  occ. eigenvalues --   -0.38232  -0.36694  -0.36576  -0.36147  -0.34793
 Alpha  occ. eigenvalues --   -0.33993  -0.32644  -0.31590  -0.31317  -0.30758
 Alpha  occ. eigenvalues --   -0.30203  -0.29607  -0.28356  -0.27296  -0.26460
 Alpha  occ. eigenvalues --   -0.24882  -0.24696  -0.23099  -0.22297  -0.21809
 Alpha  occ. eigenvalues --   -0.20868  -0.19781  -0.19065  -0.18332  -0.15441
 Alpha  occ. eigenvalues --   -0.14573  -0.14189  -0.11994  -0.09913   0.00758
 Alpha virt. eigenvalues --    0.05438   0.06957   0.07475   0.08413   0.08954
 Alpha virt. eigenvalues --    0.09625   0.10216   0.10455   0.10622   0.11228
 Alpha virt. eigenvalues --    0.11417   0.12170   0.12892   0.13336   0.13563

  Beta  occ. eigenvalues --  -88.95494 -19.06251 -19.01202 -19.01092 -18.95765
  Beta  occ. eigenvalues --  -18.95661 -14.33695 -14.24744 -14.20188 -10.15456
  Beta  occ. eigenvalues --  -10.15004 -10.13763 -10.10795 -10.10178 -10.09113
  Beta  occ. eigenvalues --  -10.07933 -10.07306 -10.05779 -10.05383 -10.04607
  Beta  occ. eigenvalues --   -8.01638  -5.97932  -5.97909  -5.97691  -1.03179
  Beta  occ. eigenvalues --   -1.01509  -0.97447  -0.90722  -0.86072  -0.84078
  Beta  occ. eigenvalues --   -0.81191  -0.76188  -0.73230  -0.66353  -0.64670
  Beta  occ. eigenvalues --   -0.61921  -0.60003  -0.58495  -0.55530  -0.51214
  Beta  occ. eigenvalues --   -0.49888  -0.48838  -0.46737  -0.45094  -0.44037
  Beta  occ. eigenvalues --   -0.42760  -0.41516  -0.39777  -0.39678  -0.38916
  Beta  occ. eigenvalues --   -0.37756  -0.36531  -0.36113  -0.34522  -0.33850
  Beta  occ. eigenvalues --   -0.33705  -0.32637  -0.31477  -0.31254  -0.30432
  Beta  occ. eigenvalues --   -0.30179  -0.29488  -0.28173  -0.26652  -0.26369
  Beta  occ. eigenvalues --   -0.24827  -0.24609  -0.23037  -0.22218  -0.21375
  Beta  occ. eigenvalues --   -0.20789  -0.19436  -0.19056  -0.18120  -0.13745
  Beta  occ. eigenvalues --   -0.13463  -0.12045  -0.11536  -0.09160
  Beta virt. eigenvalues --    0.05435   0.06937   0.07155   0.07480   0.08438
  Beta virt. eigenvalues --    0.08958   0.09670   0.10216   0.10455   0.11388
  Beta virt. eigenvalues --    0.11494   0.12172   0.12885   0.13210   0.13454

 Mulliken charges and spin densities:
               1          2
     1  C   -0.261935   0.000220
     2  O   -0.074347  -0.000075
     3  C   -0.625343   0.000283
     4  C   -0.192890  -0.001208
     5  C   -0.384689  -0.006729
     6  C   -0.195159   0.002648
     7  N   -0.060552   0.009830
     8  S    0.302781   0.012760
     9  O   -0.201724   0.005216
    10  O   -0.181896  -0.001321
    11  C   -0.230393   0.157650
    12  C   -0.008475   0.085726
    13  C   -0.296095   0.068011
    14  C    0.227180  -0.037285
    15  C   -0.492921   0.218462
    16  C   -0.185813  -0.067584
    17  N   -0.385832   0.188885
    18  O   -0.152345   0.170340
    19  O   -0.172362   0.179618
    20  N   -0.346607   0.027898
    21  H    0.149387   0.000086
    22  H    0.129717   0.000072
    23  H    0.120754  -0.000268
    24  H    0.197713   0.000433
    25  H    0.148723   0.000018
    26  H    0.211413   0.000312
    27  H    0.203613   0.000632
    28  H    0.145028   0.001001
    29  H    0.150841   0.000386
    30  H    0.292587  -0.000734
    31  H    0.198877  -0.004879
    32  H    0.239026  -0.011617
    33  H    0.207135   0.006206
    34  H    0.222516  -0.001454
    35  H    0.302085  -0.003540
 Sum of Mulliken charges =  -1.00000   1.00000

 Dipole moment (field-independent basis, Debye):
    X=            -12.0695    Y=              2.5117    Z=              3.7863  Tot=             12.8964
 Quadrupole moment (field-independent basis, Debye-Ang):
   XX=           -207.3410   YY=           -162.7674   ZZ=           -133.7269
   XY=             29.0539   XZ=              0.1336   YZ=              5.9195

 Summary of Natural Population Analysis:

                                       Natural Population
                Natural  -----------------------------------------------
    Atom  No    Charge         Core      Valence    Rydberg      Total
 -----------------------------------------------------------------------
      C    1   -0.10198      0.99961     2.09352    0.00885     3.10198
      O    2   -0.29649      0.99987     3.28591    0.01071     4.29649
      C    3    0.06915      0.99954     1.91796    0.01335     2.93085
      C    4   -0.20318      0.99961     2.19542    0.00816     3.20318
      C    5   -0.02240      0.99959     2.01065    0.01216     3.02240
      C    6   -0.20232      0.99961     2.19544    0.00727     3.20232
      N    7   -0.43644      0.99971     2.92207    0.01467     3.93644
      S    8    1.11325      4.99918     1.78653    0.10104     6.88675
      O    9   -0.46696      0.99990     3.45919    0.00786     4.46696
      O   10   -0.47064      0.99991     3.46525    0.00548     4.47064
      C   11   -0.07800      0.99936     2.06410    0.01454     3.07800
      C   12   -0.11812      0.99948     2.10873    0.00991     3.11812
      C   13    0.10909      0.99950     1.87950    0.01191     2.89091
      C   14    0.02173      0.99940     1.96524    0.01363     2.97827
      C   15   -0.04593      0.99955     2.03661    0.00977     3.04593
      C   16   -0.15831      0.99951     2.14859    0.01020     3.15831
      N   17    0.30137      0.99971     2.17305    0.02587     3.19863
      O   18   -0.19121      0.99990     3.18363    0.00769     4.19121
      O   19   -0.20896      0.99989     3.20100    0.00807     4.20896
      N   20   -0.38446      0.99969     2.87636    0.00842     3.88446
      H   21    0.08852      0.00000     0.41066    0.00082     0.41148
      H   22    0.08141      0.00000     0.41735    0.00123     0.41859
      H   23    0.07797      0.00000     0.42075    0.00128     0.42203
      H   24    0.09155      0.00000     0.40717    0.00128     0.40845
      H   25    0.10556      0.00000     0.39350    0.00095     0.39444
      H   26    0.10906      0.00000     0.38961    0.00133     0.39094
      H   27    0.10104      0.00000     0.39742    0.00154     0.39896
      H   28    0.10096      0.00000     0.39784    0.00119     0.39904
      H   29    0.09891      0.00000     0.40015    0.00094     0.40109
      H   30    0.19535      0.00000     0.30310    0.00155     0.30465
      H   31    0.10475      0.00000     0.39395    0.00131     0.39525
      H   32    0.11552      0.00000     0.38328    0.00120     0.38448
      H   33    0.10599      0.00000     0.39249    0.00152     0.39401
      H   34    0.18102      0.00000     0.31762    0.00136     0.31898
      H   35    0.21319      0.00000     0.28506    0.00175     0.28681
 =======================================================================
   * Total *   -0.00000     23.99252    54.67867    0.32881    79.00000

 Normal termination of Gaussian 16 at Mon Dec 14 18:48:03 2020.
