 Gaussian 16, Revision A.03,

 -----------------------------------------------------------
 # opt freq B3LYP/6-31G(d) empiricaldispersion=gd3bj scf=xqc
 -----------------------------------------------------------

 ------------------------------
 CID_83969284_JID_7675_neutraal
 ------------------------------
 Symbolic Z-matrix:
 Charge =  0 Multiplicity = 1

 SCF Done:  E(RB3LYP) =  -745.164731749     A.U. after   16 cycles
 SCF Done:  E(RB3LYP) =  -745.162608832     A.U. after   13 cycles
 SCF Done:  E(RB3LYP) =  -745.170394714     A.U. after   13 cycles
 SCF Done:  E(RB3LYP) =  -745.171459120     A.U. after   13 cycles
 SCF Done:  E(RB3LYP) =  -745.171195985     A.U. after   12 cycles
 SCF Done:  E(RB3LYP) =  -745.171911687     A.U. after   11 cycles
 SCF Done:  E(RB3LYP) =  -745.172054841     A.U. after   12 cycles
 SCF Done:  E(RB3LYP) =  -745.172218955     A.U. after   12 cycles
 SCF Done:  E(RB3LYP) =  -745.172424847     A.U. after   11 cycles
 SCF Done:  E(RB3LYP) =  -745.172541781     A.U. after   12 cycles
 SCF Done:  E(RB3LYP) =  -745.172672842     A.U. after    9 cycles
 SCF Done:  E(RB3LYP) =  -745.172677704     A.U. after    9 cycles
 SCF Done:  E(RB3LYP) =  -745.172683067     A.U. after    9 cycles
 SCF Done:  E(RB3LYP) =  -745.172684159     A.U. after    9 cycles
 SCF Done:  E(RB3LYP) =  -745.172684241     A.U. after    7 cycles
 Optimization completed.
    -- Stationary point found.
 Normal termination of Gaussian 16 at Thu Dec 17 20:10:55 2020.

 --------------------------------------------------------------------
 #N Geom=AllCheck Guess=TCheck SCRF=Check GenChk RB3LYP/6-31G(d) Freq
 --------------------------------------------------------------------

 Structure from the checkpoint file:  "JID_7675.chk"
 ------------------------------
 CID_83969284_JID_7675_neutraal
 ------------------------------
 Charge =  0 Multiplicity = 1

 SCF Done:  E(RB3LYP) =  -745.172684241     A.U. after    1 cycles

  Exact polarizability: 216.972  19.350 108.505  -8.949  11.616 148.059
 Approx polarizability: 305.119  38.623 162.914 -29.067  20.790 270.386

                      1                      2                      3
                      A                      A                      A
 Frequencies --     21.4933                52.6586                64.6188
 Red. masses --      4.2809                 4.2299                 3.5742
 Frc consts  --      0.0012                 0.0069                 0.0088
 IR Inten    --      0.7749                 0.7997                 0.4158

                      4                      5                      6
                      A                      A                      A
 Frequencies --     76.7204               105.0071               143.2975
 Red. masses --      5.7496                 3.4664                 3.0412
 Frc consts  --      0.0199                 0.0225                 0.0368
 IR Inten    --      3.9678                 3.0895                 1.1380

                      7                      8                      9
                      A                      A                      A
 Frequencies --    162.4461               169.5141               211.7457
 Red. masses --      2.4493                 1.5235                 2.5255
 Frc consts  --      0.0381                 0.0258                 0.0667
 IR Inten    --      4.5350                 0.0697                 0.3841

                     10                     11                     12
                      A                      A                      A
 Frequencies --    218.0481               245.3654               258.4537
 Red. masses --      1.8830                 3.4370                 1.9521
 Frc consts  --      0.0527                 0.1219                 0.0768
 IR Inten    --     17.7556                14.6442                25.4307

                     13                     14                     15
                      A                      A                      A
 Frequencies --    299.0272               303.9245               334.7976
 Red. masses --      3.7296                 3.9398                 3.0066
 Frc consts  --      0.1965                 0.2144                 0.1986
 IR Inten    --      1.7106                 0.8342                10.8021

                     16                     17                     18
                      A                      A                      A
 Frequencies --    382.8533               408.6863               415.5881
 Red. masses --      1.5718                 3.0707                 2.4495
 Frc consts  --      0.1357                 0.3022                 0.2493
 IR Inten    --     65.6035                23.7668                 1.2047

                     19                     20                     21
                      A                      A                      A
 Frequencies --    437.6852               442.5024               505.5738
 Red. masses --      2.9086                 2.2851                 2.7656
 Frc consts  --      0.3283                 0.2636                 0.4165
 IR Inten    --      2.0378                10.8030                 7.5739

                     22                     23                     24
                      A                      A                      A
 Frequencies --    528.3549               587.1543               617.5088
 Red. masses --      3.5352                 6.2786                 2.8301
 Frc consts  --      0.5814                 1.2753                 0.6358
 IR Inten    --      0.7169                 5.7154                 2.1050

                     25                     26                     27
                      A                      A                      A
 Frequencies --    628.4997               645.2705               719.5295
 Red. masses --      5.5673                 3.8664                 3.7399
 Frc consts  --      1.2957                 0.9485                 1.1408
 IR Inten    --      3.8561                10.8092                 8.7255

                     28                     29                     30
                      A                      A                      A
 Frequencies --    732.3517               758.2435               788.1024
 Red. masses --      1.4660                 4.1197                 3.1329
 Frc consts  --      0.4632                 1.3955                 1.1465
 IR Inten    --     35.2032                18.5938                14.8824

                     31                     32                     33
                      A                      A                      A
 Frequencies --    804.7702               813.8727               841.2490
 Red. masses --      3.6254                 1.9227                 2.4527
 Frc consts  --      1.3834                 0.7504                 1.0227
 IR Inten    --      6.2158                 2.5133                 2.5929

                     34                     35                     36
                      A                      A                      A
 Frequencies --    842.9297               860.1308               891.4928
 Red. masses --      1.5868                 1.4236                 1.5281
 Frc consts  --      0.6643                 0.6205                 0.7156
 IR Inten    --     19.4214                14.0178                18.7814

                     37                     38                     39
                      A                      A                      A
 Frequencies --    898.2732               909.3155               917.2695
 Red. masses --      1.4814                 2.7642                 4.0181
 Frc consts  --      0.7043                 1.3466                 1.9919
 IR Inten    --     82.2280                 5.1273                11.5476

                     40                     41                     42
                      A                      A                      A
 Frequencies --    958.4465               972.4252               982.2263
 Red. masses --      1.2947                 2.9466                 1.6441
 Frc consts  --      0.7007                 1.6417                 0.9345
 IR Inten    --      0.0113                10.3446                 7.7760

                     43                     44                     45
                      A                      A                      A
 Frequencies --   1033.2130              1077.6647              1093.2296
 Red. masses --      1.8398                 2.1264                 1.9675
 Frc consts  --      1.1571                 1.4550                 1.3854
 IR Inten    --     12.7228                 0.6881                32.3840

                     46                     47                     48
                      A                      A                      A
 Frequencies --   1101.1972              1121.1527              1135.0445
 Red. masses --      1.5184                 1.5183                 2.0202
 Frc consts  --      1.0848                 1.1244                 1.5335
 IR Inten    --      8.4754                28.4675                13.0387

                     49                     50                     51
                      A                      A                      A
 Frequencies --   1149.8451              1159.7320              1169.1475
 Red. masses --      1.4677                 1.4845                 1.5108
 Frc consts  --      1.1433                 1.1764                 1.2167
 IR Inten    --     13.5355                17.4539                 4.7947

                     52                     53                     54
                      A                      A                      A
 Frequencies --   1196.5076              1227.5681              1247.8211
 Red. masses --      1.3619                 1.6053                 1.7987
 Frc consts  --      1.1488                 1.4253                 1.6501
 IR Inten    --      8.1462                44.4635                43.1636

                     55                     56                     57
                      A                      A                      A
 Frequencies --   1283.7247              1290.3024              1308.5645
 Red. masses --      1.5099                 3.0697                 1.6368
 Frc consts  --      1.4661                 3.0111                 1.6514
 IR Inten    --      2.1581                17.2616                15.8838

                     58                     59                     60
                      A                      A                      A
 Frequencies --   1333.6790              1363.2484              1373.1457
 Red. masses --      2.7373                 2.3449                 1.1729
 Frc consts  --      2.8686                 2.5676                 1.3030
 IR Inten    --     79.5952                 7.3093                 3.5225

                     61                     62                     63
                      A                      A                      A
 Frequencies --   1391.3424              1396.5058              1408.4001
 Red. masses --      3.1289                 1.4915                 1.3650
 Frc consts  --      3.5687                 1.7137                 1.5953
 IR Inten    --     30.0572                52.3337                29.7988

                     64                     65                     66
                      A                      A                      A
 Frequencies --   1439.7916              1447.4589              1448.5452
 Red. masses --      1.9850                 2.7146                 1.5262
 Frc consts  --      2.4244                 3.3509                 1.8868
 IR Inten    --    175.4372                18.5863                 1.2765

                     67                     68                     69
                      A                      A                      A
 Frequencies --   1479.6124              1498.9359              1500.7781
 Red. masses --      1.2712                 3.1080                 1.0966
 Frc consts  --      1.6396                 4.1143                 1.4553
 IR Inten    --     41.4583                28.8205                 4.2454

                     70                     71                     72
                      A                      A                      A
 Frequencies --   1511.4589              1527.8818              1537.0675
 Red. masses --      1.0773                 1.0980                 1.0852
 Frc consts  --      1.4501                 1.5102                 1.5106
 IR Inten    --      6.0896                 1.6632                 4.3727

                     73                     74                     75
                      A                      A                      A
 Frequencies --   1543.2187              1546.8377              1563.5502
 Red. masses --      1.8314                 1.6554                 3.3854
 Frc consts  --      2.5698                 2.3337                 4.8762
 IR Inten    --      1.8402                38.3231                20.5967

                     76                     77                     78
                      A                      A                      A
 Frequencies --   1620.3382              1679.6132              1710.9478
 Red. masses --      6.0006                 6.1186                 1.0970
 Frc consts  --      9.2823                10.1699                 1.8920
 IR Inten    --      0.8617                 2.2635                11.1462

                     79                     80                     81
                      A                      A                      A
 Frequencies --   1731.6135              2971.5267              3043.1076
 Red. masses --     10.3177                 1.0728                 1.0471
 Frc consts  --     18.2278                 5.5813                 5.7129
 IR Inten    --    250.1474                50.3879                20.6161

                     82                     83                     84
                      A                      A                      A
 Frequencies --   3045.9066              3057.6542              3078.8532
 Red. masses --      1.0658                 1.0661                 1.0881
 Frc consts  --      5.8260                 5.8724                 6.0769
 IR Inten    --     19.1385                73.3603                65.1723

                     85                     86                     87
                      A                      A                      A
 Frequencies --   3094.1287              3112.0503              3171.1281
 Red. masses --      1.1030                 1.0956                 1.0984
 Frc consts  --      6.2214                 6.2514                 6.5076
 IR Inten    --     31.1092                28.8837                12.1066

                     88                     89                     90
                      A                      A                      A
 Frequencies --   3171.7384              3194.9944              3199.2971
 Red. masses --      1.0928                 1.0890                 1.0907
 Frc consts  --      6.4775                 6.5496                 6.5773
 IR Inten    --     10.8979                13.2007                 3.5546

                     91                     92                     93
                      A                      A                      A
 Frequencies --   3222.4888              3262.6739              3281.8428
 Red. masses --      1.0929                 1.0900                 1.1037
 Frc consts  --      6.6865                 6.8364                 7.0036
 IR Inten    --      5.5872                 1.8829                 5.2008

                     94                     95                     96
                      A                      A                      A
 Frequencies --   3478.8923              3556.6481              3672.6457
 Red. masses --      1.0504                 1.0913                 1.0802
 Frc consts  --      7.4900                 8.1334                 8.5844
 IR Inten    --      9.6055                12.0629                60.3631

 - Thermochemistry -
 -------------------
 Temperature   298.150 Kelvin.  Pressure   1.00000 Atm.
 Atom     1 has atomic number  6 and mass  12.00000

 Molecular mass:   231.13716 amu.
 Principal axes and moments of inertia in atomic units:
                           1         2         3
     Eigenvalues --  2156.081986160.058106451.88967
           X            0.99997  -0.00442   0.00705
           Y            0.00350   0.99214   0.12510
           Z           -0.00754  -0.12507   0.99212
 This molecule is an asymmetric top.
 Rotational symmetry number  1.
 Warning -- assumption of classical behavior for rotation
           may cause significant error
 Rotational temperatures (Kelvin)      0.04017     0.01406     0.01342
 Rotational constants (GHZ):           0.83705     0.29297     0.27972
 Zero-point vibrational energy     760954.7 (Joules/Mol)
                                  181.87253 (Kcal/Mol)
 Warning -- explicit consideration of  24 degrees of freedom as
           vibrations may cause significant error
 Vibrational temperatures:     30.92    75.76    92.97   110.38   151.08
          (Kelvin)            206.17   233.72   243.89   304.65   313.72
                              353.03   371.86   430.23   437.28   481.70
                              550.84   588.01   597.94   629.73   636.66
                              727.41   760.18   844.78   888.46   904.27
                              928.40  1035.24  1053.69  1090.94  1133.90
                             1157.88  1170.98  1210.37  1212.79  1237.54
                             1282.66  1292.41  1308.30  1319.75  1378.99
                             1399.10  1413.20  1486.56  1550.52  1572.91
                             1584.38  1613.09  1633.08  1654.37  1668.60
                             1682.14  1721.51  1766.20  1795.34  1846.99
                             1856.46  1882.73  1918.87  1961.41  1975.65
                             2001.83  2009.26  2026.37  2071.54  2082.57
                             2084.13  2128.83  2156.63  2159.28  2174.65
                             2198.28  2211.50  2220.35  2225.55  2249.60
                             2331.31  2416.59  2461.67  2491.41  4275.36
                             4378.35  4382.38  4399.28  4429.78  4451.76
                             4477.55  4562.55  4563.42  4596.88  4603.07
                             4636.44  4694.26  4721.84  5005.35  5117.22
                             5284.12

 Zero-point correction=                           0.289832 (Hartree/Particle)
 Thermal correction to Energy=                    0.305810
 Thermal correction to Enthalpy=                  0.306754
 Thermal correction to Gibbs Free Energy=         0.245780
 Sum of electronic and zero-point Energies=           -744.882852
 Sum of electronic and thermal Energies=              -744.866874
 Sum of electronic and thermal Enthalpies=            -744.865930
 Sum of electronic and thermal Free Energies=         -744.926904

                     E (Thermal)             CV                S
                      KCal/Mol        Cal/Mol-Kelvin    Cal/Mol-Kelvin
 Total                  191.899             61.475            128.332
 Electronic               0.000              0.000              0.000
 Translational            0.889              2.981             42.215
 Rotational               0.889              2.981             32.816
 Vibrational            190.121             55.514             53.301
 Vibration     1          0.593              1.985              6.491
 Vibration     2          0.596              1.977              4.715
 Vibration     3          0.597              1.971              4.311
 Vibration     4          0.599              1.965              3.973
 Vibration     5          0.605              1.945              3.359
 Vibration     6          0.616              1.910              2.759
 Vibration     7          0.623              1.888              2.521
 Vibration     8          0.625              1.880              2.441
 Vibration     9          0.643              1.823              2.029
 Vibration    10          0.646              1.814              1.975
 Vibration    11          0.660              1.770              1.764
 Vibration    12          0.667              1.748              1.672
 Vibration    13          0.692              1.676              1.422
 Vibration    14          0.695              1.666              1.395
 Vibration    15          0.716              1.606              1.237
 Vibration    16          0.752              1.507              1.028
 Vibration    17          0.773              1.451              0.931
 Vibration    18          0.779              1.436              0.907
 Vibration    19          0.798              1.388              0.834
 Vibration    20          0.802              1.377              0.819
 Vibration    21          0.861              1.238              0.644
 Vibration    22          0.883              1.187              0.591
 Vibration    23          0.944              1.059              0.472
 Vibration    24          0.977              0.995              0.421

                           ! Non-Optimized Parameters !
 Normal termination of Gaussian 16 at Thu Dec 17 20:22:58 2020.

 ----------------------------------------------------------------------
 # B3LYP/6-311++G(d,p) empiricaldispersion=gd3bj scf=xqc pop=npa geom=c
 heck
 ----------------------------------------------------------------------

 --------------------------------------
 CID_83969284_JID_7675_Energie_neutraal
 --------------------------------------
 Structure from the checkpoint file:  "JID_7675.chk"
 Charge =  0 Multiplicity = 1

 SCF Done:  E(RB3LYP) =  -745.384291044     A.U. after   16 cycles
 Normal termination of Gaussian 16 at Thu Dec 17 20:28:18 2020.

 ----------------------------------------------------------------------
 # B3LYP/6-311++G(d,p) empiricaldispersion=gd3bj scf=xqc pop=npa geom=c
 heck
 ----------------------------------------------------------------------

 ------------------------------------
 CID_83969284_JID_7675_Energie_kation
 ------------------------------------
 Structure from the checkpoint file:  "JID_7675.chk"
 Charge =  1 Multiplicity = 2

 SCF Done:  E(UB3LYP) =  -745.100501756     A.U. after   31 cycles
 Normal termination of Gaussian 16 at Thu Dec 17 20:42:06 2020.
 Gaussian 16:  ES64L-G16RevA.03 25-Dec-2016

 ----------------------------------------------------------------------
 # B3LYP/6-311++G(d,p) empiricaldispersion=gd3bj scf=xqc pop=npa geom=c
 heck
 ----------------------------------------------------------------------

 -----------------------------------
 CID_83969284_JID_7675_Energie_anion
 -----------------------------------
 Structure from the checkpoint file:  "JID_7675.chk"
 Charge = -1 Multiplicity = 2

                         Standard orientation:
 ---------------------------------------------------------------------
 Center     Atomic      Atomic             Coordinates (Angstroms)
 Number     Number       Type             X           Y           Z
 ---------------------------------------------------------------------
      1          6           0       -3.491584   -1.573900   -0.388677
      2          7           0       -2.166907   -0.970858   -0.494038
      3          6           0       -2.052552    0.157281   -1.425338
      4          6           0       -2.904947    1.372818   -1.031760
      5          6           0       -2.486221    2.015818    0.292962
      6          7           0       -1.134601    2.582536    0.197712
      7          6           0       -1.345416   -1.154520    0.599228
      8          8           0       -1.741001   -1.743702    1.604168
      9          6           0        0.071047   -0.667709    0.522155
     10          6           0        0.860309   -0.860371   -0.611975
     11          6           0        2.188539   -0.437161   -0.559724
     12          6           0        2.749012    0.183912    0.594117
     13          6           0        1.934880    0.353583    1.728037
     14          6           0        0.620436   -0.082926    1.688242
     15          6           0        4.116346    0.487595    0.282202
     16          6           0        4.343060    0.056769   -0.999625
     17          7           0        3.186819   -0.503267   -1.510600
     18          1           0       -4.154677   -1.011050    0.280738
     19          1           0       -3.395838   -2.583516    0.011588
     20          1           0       -3.939672   -1.610549   -1.386065
     21          1           0       -1.008923    0.460285   -1.491130
     22          1           0       -2.349827   -0.196526   -2.420543
     23          1           0       -2.808386    2.121450   -1.827256
     24          1           0       -3.962674    1.085680   -0.979618
     25          1           0       -3.178104    2.838310    0.507849
     26          1           0       -2.607386    1.283832    1.110968
     27          1           0       -0.973691    3.204098    0.987955
     28          1           0       -0.441335    1.842843    0.296005
     29          1           0        0.452580   -1.342936   -1.495215
     30          1           0        2.335875    0.810895    2.628172
     31          1           0       -0.019902    0.006766    2.559085
     32          1           0        4.839268    0.962257    0.930406
     33          1           0        5.240092    0.100903   -1.600886
     34          1           0        3.085983   -0.889143   -2.435975
 ---------------------------------------------------------------------

 SCF Done:  E(UB3LYP) =  -745.375183203     A.U. after   33 cycles
 SCF Done:  E(UB3LYP) =  -745.375183735     a.u. after    3 cycles

 The electronic state is 2-A.
 Alpha  occ. eigenvalues --  -18.95295 -14.24038 -14.21587 -14.18387 -10.13286
 Alpha  occ. eigenvalues --  -10.09051 -10.08825 -10.08440 -10.08346 -10.08217
 Alpha  occ. eigenvalues --  -10.06093 -10.04593 -10.04546 -10.04409 -10.04306
 Alpha  occ. eigenvalues --  -10.04179 -10.04083  -0.90722  -0.86432  -0.81161
 Alpha  occ. eigenvalues --   -0.77493  -0.72131  -0.66780  -0.65751  -0.61939
 Alpha  occ. eigenvalues --   -0.61527  -0.58517  -0.56452  -0.51191  -0.49059
 Alpha  occ. eigenvalues --   -0.48040  -0.46810  -0.43559  -0.41148  -0.39320
 Alpha  occ. eigenvalues --   -0.39180  -0.36770  -0.35831  -0.34801  -0.34007
 Alpha  occ. eigenvalues --   -0.32545  -0.31836  -0.31095  -0.30943  -0.30346
 Alpha  occ. eigenvalues --   -0.30179  -0.29340  -0.28068  -0.27560  -0.25588
 Alpha  occ. eigenvalues --   -0.25154  -0.24575  -0.23960  -0.23926  -0.21874
 Alpha  occ. eigenvalues --   -0.21345  -0.16615  -0.14072  -0.13664  -0.12169
 Alpha  occ. eigenvalues --   -0.10788  -0.09652   0.04992
 Alpha virt. eigenvalues --    0.06300   0.06794   0.07841   0.08741   0.09007
 Alpha virt. eigenvalues --    0.09215   0.10378   0.11032   0.11417   0.11513
 Alpha virt. eigenvalues --    0.11832   0.12251   0.13211   0.13696   0.14123

  Beta  occ. eigenvalues --  -18.95159 -14.23972 -14.21568 -14.18382 -10.13196
  Beta  occ. eigenvalues --  -10.09038 -10.08823 -10.08503 -10.08197 -10.08151
  Beta  occ. eigenvalues --  -10.06082 -10.04622 -10.04455 -10.04437 -10.04188
  Beta  occ. eigenvalues --  -10.04016 -10.03839  -0.90489  -0.86276  -0.81058
  Beta  occ. eigenvalues --   -0.77482  -0.71871  -0.66524  -0.65721  -0.61700
  Beta  occ. eigenvalues --   -0.61292  -0.58393  -0.56346  -0.50870  -0.48913
  Beta  occ. eigenvalues --   -0.47937  -0.46736  -0.43401  -0.41040  -0.39254
  Beta  occ. eigenvalues --   -0.39018  -0.36696  -0.35696  -0.34740  -0.33921
  Beta  occ. eigenvalues --   -0.32440  -0.31721  -0.30974  -0.30643  -0.30218
  Beta  occ. eigenvalues --   -0.30015  -0.29249  -0.27949  -0.27457  -0.25388
  Beta  occ. eigenvalues --   -0.24898  -0.24513  -0.23880  -0.23757  -0.21735
  Beta  occ. eigenvalues --   -0.20751  -0.15859  -0.14003  -0.13469  -0.11849
  Beta  occ. eigenvalues --   -0.10193  -0.08677
  Beta virt. eigenvalues --    0.06684   0.07108   0.08073   0.08807   0.08974
  Beta virt. eigenvalues --    0.09219   0.09437   0.10544   0.11028   0.11503
  Beta virt. eigenvalues --    0.11734   0.12120   0.12305   0.13285   0.13730

 Mulliken charges and spin densities:
               1          2
     1  C    0.246628  -0.562349
     2  N   -0.015011   0.073355
     3  C   -0.108556  -0.077218
     4  C    0.150631  -0.491406
     5  C   -0.338491  -0.100992
     6  N   -0.430865   0.013409
     7  C   -0.900473   0.153532
     8  O   -0.307404   0.054104
     9  C    1.014535  -0.075704
    10  C   -0.809848   0.284615
    11  C   -0.371867  -0.286227
    12  C    0.484256   0.057338
    13  C   -0.560906   0.174704
    14  C   -0.152388  -0.013481
    15  C    0.260812  -0.113401
    16  C   -0.190282   0.098351
    17  N   -0.094418   0.030456
    18  H    0.097361   0.054525
    19  H    0.133271   0.034848
    20  H   -0.345709   0.489683
    21  H    0.211252  -0.052195
    22  H   -0.248675   0.420181
    23  H   -0.073442   0.231805
    24  H   -0.001072   0.134416
    25  H    0.069118   0.090416
    26  H    0.143189   0.024288
    27  H    0.201612   0.021317
    28  H    0.328402  -0.014194
    29  H    0.170415  -0.025898
    30  H    0.120883  -0.005251
    31  H    0.171246   0.011779
    32  H    0.114778   0.009038
    33  H   -0.217166   0.339685
    34  H    0.248186   0.016472
 Sum of Mulliken charges =  -1.00000   1.00000

 Dipole moment (field-independent basis, Debye):
    X=              1.5173    Y=              2.0357    Z=             -0.1894  Tot=              2.5460
 Quadrupole moment (field-independent basis, Debye-Ang):
   XX=           -166.3112   YY=           -130.7192   ZZ=           -125.4863
   XY=             -3.8432   XZ=             -8.1806   YZ=             11.6681

 Summary of Natural Population Analysis:

                                       Natural Population
                Natural  -----------------------------------------------
    Atom  No    Charge         Core      Valence    Rydberg      Total
 -----------------------------------------------------------------------
      C    1   -0.17942      0.99965     2.17081    0.00897     3.17942
      N    2   -0.26198      0.99965     2.75168    0.01064     3.76198
      C    3   -0.08738      0.99960     2.07542    0.01236     3.08738
      C    4   -0.20072      0.99962     2.19164    0.00946     3.20072
      C    5   -0.09528      0.99963     2.08457    0.01108     3.09528
      N    6   -0.42692      0.99977     2.91852    0.00863     3.92692
      C    7    0.34953      0.99959     1.62649    0.02439     2.65047
      O    8   -0.31664      0.99988     3.31190    0.00486     4.31664
      C    9   -0.04773      0.99943     2.03729    0.01101     3.04773
      C   10   -0.07064      0.99949     2.06283    0.00831     3.07064
      C   11    0.06635      0.99948     1.92268    0.01149     2.93365
      C   12   -0.02936      0.99950     2.02052    0.00933     3.02936
      C   13   -0.08098      0.99953     2.07381    0.00764     3.08098
      C   14   -0.11567      0.99955     2.10568    0.01043     3.11567
      C   15   -0.16101      0.99953     2.15180    0.00968     3.16101
      C   16    0.02932      0.99959     1.95824    0.01285     2.97068
      N   17   -0.27013      0.99966     2.76203    0.00845     3.77013
      H   18    0.08925      0.00000     0.40966    0.00108     0.41075
      H   19    0.10651      0.00000     0.39261    0.00088     0.39349
      H   20    0.09299      0.00000     0.40572    0.00130     0.40701
      H   21    0.11093      0.00000     0.38762    0.00144     0.38907
      H   22    0.09333      0.00000     0.40548    0.00119     0.40667
      H   23    0.10048      0.00000     0.39807    0.00145     0.39952
      H   24    0.09558      0.00000     0.40332    0.00110     0.40442
      H   25    0.08674      0.00000     0.41239    0.00087     0.41326
      H   26    0.08464      0.00000     0.41387    0.00149     0.41536
      H   27    0.17098      0.00000     0.32737    0.00165     0.32902
      H   28    0.18621      0.00000     0.31173    0.00206     0.31379
      H   29    0.09751      0.00000     0.40137    0.00112     0.40249
      H   30    0.09231      0.00000     0.40653    0.00116     0.40769
      H   31    0.10458      0.00000     0.39459    0.00083     0.39542
      H   32    0.10033      0.00000     0.39889    0.00078     0.39967
      H   33    0.09252      0.00000     0.40653    0.00095     0.40748
      H   34    0.19376      0.00000     0.30457    0.00168     0.30624
 =======================================================================
   * Total *    0.00001     16.99316    44.80625    0.20059    61.99999

 Normal termination of Gaussian 16 at Thu Dec 17 21:24:30 2020.
