 Gaussian 16, Revision A.03,

 -----------------------------------------------------------
 # opt freq B3LYP/6-31G(d) empiricaldispersion=gd3bj scf=xqc
 -----------------------------------------------------------

 ------------------------------
 CID_64066052_JID_7884_neutraal
 ------------------------------
 Symbolic Z-matrix:
 Charge =  0 Multiplicity = 1

 SCF Done:  E(RB3LYP) =  -841.688567174     A.U. after   14 cycles
 SCF Done:  E(RB3LYP) =  -841.695204627     A.U. after   12 cycles
 SCF Done:  E(RB3LYP) =  -841.693452832     A.U. after   12 cycles
 SCF Done:  E(RB3LYP) =  -841.695566628     A.U. after   13 cycles
 SCF Done:  E(RB3LYP) =  -841.696924293     A.U. after   12 cycles
 SCF Done:  E(RB3LYP) =  -841.697118248     A.U. after   11 cycles
 SCF Done:  E(RB3LYP) =  -841.697252988     A.U. after   12 cycles
 SCF Done:  E(RB3LYP) =  -841.697329161     A.U. after   11 cycles
 SCF Done:  E(RB3LYP) =  -841.697408539     A.U. after   10 cycles
 SCF Done:  E(RB3LYP) =  -841.697479113     A.U. after   11 cycles
 SCF Done:  E(RB3LYP) =  -841.705824227     A.U. after   10 cycles
 SCF Done:  E(RB3LYP) =  -841.705842902     A.U. after   10 cycles
 SCF Done:  E(RB3LYP) =  -841.705846989     A.U. after   10 cycles
 SCF Done:  E(RB3LYP) =  -841.705847708     A.U. after    8 cycles
 SCF Done:  E(RB3LYP) =  -841.705847837     A.U. after    7 cycles
 Optimization completed.
    -- Stationary point found.
 Normal termination of Gaussian 16 at Sun Dec 13 20:39:32 2020.

 --------------------------------------------------------------------
 #N Geom=AllCheck Guess=TCheck SCRF=Check GenChk RB3LYP/6-31G(d) Freq
 --------------------------------------------------------------------

 Structure from the checkpoint file:  "JID_7884.chk"
 ------------------------------
 CID_64066052_JID_7884_neutraal
 ------------------------------
 Charge =  0 Multiplicity = 1

 SCF Done:  E(RB3LYP) =  -841.705847837     A.U. after    1 cycles

  Exact polarizability: 155.542  -2.023 131.352  -0.943  -5.889 123.120
 Approx polarizability: 192.240  -4.862 195.528  -3.092 -18.119 194.993

                      1                      2                      3
                      A                      A                      A
 Frequencies --     27.6056                35.4069                45.4161
 Red. masses --      5.1786                 7.2198                 3.6755
 Frc consts  --      0.0023                 0.0053                 0.0045
 IR Inten    --      0.1707                 1.4188                 0.1884

                      4                      5                      6
                      A                      A                      A
 Frequencies --     49.3272                80.9675                84.5499
 Red. masses --      5.5172                 8.1734                 5.5215
 Frc consts  --      0.0079                 0.0316                 0.0233
 IR Inten    --      3.0206                 3.6530                 3.1691

                      7                      8                      9
                      A                      A                      A
 Frequencies --    107.4494               172.4360               196.8282
 Red. masses --      3.9433                 4.1847                 1.5381
 Frc consts  --      0.0268                 0.0733                 0.0351
 IR Inten    --      0.3989                 2.1584                 0.6937

                     10                     11                     12
                      A                      A                      A
 Frequencies --    208.9642               229.5578               247.1602
 Red. masses --      3.8027                 1.5471                 2.6690
 Frc consts  --      0.0978                 0.0480                 0.0961
 IR Inten    --      0.3188                 0.3898                 3.1481

                     13                     14                     15
                      A                      A                      A
 Frequencies --    261.3089               271.0069               309.4664
 Red. masses --      1.1963                 3.2794                 2.5877
 Frc consts  --      0.0481                 0.1419                 0.1460
 IR Inten    --      1.0367                 0.4763                 9.0154

                     16                     17                     18
                      A                      A                      A
 Frequencies --    319.7962               331.6530               370.3771
 Red. masses --      2.9662                 2.3874                 2.9638
 Frc consts  --      0.1787                 0.1547                 0.2395
 IR Inten    --      2.5945                 2.7541                 7.6752

                     19                     20                     21
                      A                      A                      A
 Frequencies --    388.3478               425.8950               435.9969
 Red. masses --      2.3853                 2.3231                 1.8440
 Frc consts  --      0.2119                 0.2483                 0.2065
 IR Inten    --     12.4720                 3.3171                 9.8853

                     22                     23                     24
                      A                      A                      A
 Frequencies --    441.3407               467.2006               482.3554
 Red. masses --      1.4625                 5.3800                 2.5630
 Frc consts  --      0.1678                 0.6919                 0.3514
 IR Inten    --    137.5776                 5.5110                19.1946

                     25                     26                     27
                      A                      A                      A
 Frequencies --    509.2545               533.3320               572.1218
 Red. masses --      2.9935                 2.3783                 3.4025
 Frc consts  --      0.4574                 0.3986                 0.6562
 IR Inten    --     14.2634                 6.8103                71.8203

                     28                     29                     30
                      A                      A                      A
 Frequencies --    603.2020               627.1075               684.8431
 Red. masses --      2.8037                 2.5884                 2.0166
 Frc consts  --      0.6010                 0.5998                 0.5573
 IR Inten    --      6.4790                62.3130                75.1843

                     31                     32                     33
                      A                      A                      A
 Frequencies --    734.2066               741.3650               769.6122
 Red. masses --      2.7741                 3.2882                 4.3711
 Frc consts  --      0.8811                 1.0648                 1.5254
 IR Inten    --      1.0808                12.5219                 5.4093

                     34                     35                     36
                      A                      A                      A
 Frequencies --    805.2279               850.2128               864.9484
 Red. masses --      3.3714                 2.5148                 2.0675
 Frc consts  --      1.2880                 1.0711                 0.9114
 IR Inten    --      5.8054                59.5894                39.1994

                     37                     38                     39
                      A                      A                      A
 Frequencies --    879.8440               887.2877               916.8020
 Red. masses --      1.7357                 1.9028                 2.2023
 Frc consts  --      0.7917                 0.8826                 1.0906
 IR Inten    --      0.1953                 3.6759                 7.5166

                     40                     41                     42
                      A                      A                      A
 Frequencies --    934.0543               942.7231               959.9948
 Red. masses --      2.4713                 2.0135                 1.5931
 Frc consts  --      1.2704                 1.0543                 0.8650
 IR Inten    --      8.0340                 2.0377                 0.8756

                     43                     44                     45
                      A                      A                      A
 Frequencies --    968.2391              1010.2074              1041.3544
 Red. masses --      1.6736                 1.4998                 1.8946
 Frc consts  --      0.9244                 0.9018                 1.2105
 IR Inten    --      1.2177                 6.7277                22.1273

                     46                     47                     48
                      A                      A                      A
 Frequencies --   1046.1290              1063.1749              1079.6649
 Red. masses --      1.7244                 1.6237                 1.7260
 Frc consts  --      1.1119                 1.0814                 1.1854
 IR Inten    --     37.5630                 0.4149                 9.6071

                     49                     50                     51
                      A                      A                      A
 Frequencies --   1094.1405              1115.1874              1163.4336
 Red. masses --      3.9923                 1.9075                 2.9911
 Frc consts  --      2.8159                 1.3977                 2.3854
 IR Inten    --    123.8956                 1.2463                44.2698

                     52                     53                     54
                      A                      A                      A
 Frequencies --   1177.5041              1188.1700              1199.9699
 Red. masses --      1.8376                 2.2687                 1.9402
 Frc consts  --      1.5012                 1.8871                 1.6461
 IR Inten    --     39.4573               273.4898                10.6925

                     55                     56                     57
                      A                      A                      A
 Frequencies --   1227.4336              1239.0893              1250.3891
 Red. masses --      2.2804                 1.2146                 1.6177
 Frc consts  --      2.0242                 1.0987                 1.4902
 IR Inten    --      6.1434                22.9668                21.2591

                     58                     59                     60
                      A                      A                      A
 Frequencies --   1278.7515              1289.0111              1295.7455
 Red. masses --      2.9083                 1.6905                 1.5941
 Frc consts  --      2.8019                 1.6549                 1.5769
 IR Inten    --      6.0619                39.5955                54.0036

                     61                     62                     63
                      A                      A                      A
 Frequencies --   1319.9197              1344.0972              1344.7671
 Red. masses --      1.7439                 1.5552                 1.2869
 Frc consts  --      1.7900                 1.6554                 1.3711
 IR Inten    --    138.5948                14.5915                 8.8050

                     64                     65                     66
                      A                      A                      A
 Frequencies --   1371.4240              1384.4289              1397.9111
 Red. masses --      1.3341                 2.1502                 1.4357
 Frc consts  --      1.4784                 2.4281                 1.6530
 IR Inten    --      1.0305                45.1050                 5.8415

                     67                     68                     69
                      A                      A                      A
 Frequencies --   1403.2846              1412.8096              1419.4156
 Red. masses --      1.4777                 1.3676                 1.4178
 Frc consts  --      1.7145                 1.6083                 1.6830
 IR Inten    --      1.1427                 5.6556                19.9731

                     70                     71                     72
                      A                      A                      A
 Frequencies --   1428.1099              1429.3770              1451.9197
 Red. masses --      1.2932                 1.2678                 1.2419
 Frc consts  --      1.5540                 1.5261                 1.5425
 IR Inten    --     62.5769                62.5081                 5.9894

                     73                     74                     75
                      A                      A                      A
 Frequencies --   1461.1735              1496.9177              1507.0733
 Red. masses --      2.6017                 1.4747                 1.0766
 Frc consts  --      3.2728                 1.9470                 1.4406
 IR Inten    --    285.6204                 9.2540                 0.2231

                     76                     77                     78
                      A                      A                      A
 Frequencies --   1514.7078              1516.3920              1522.9294
 Red. masses --      1.0642                 1.0754                 1.0724
 Frc consts  --      1.4385                 1.4569                 1.4654
 IR Inten    --      2.1170                 4.0093                 8.1336

                     79                     80                     81
                      A                      A                      A
 Frequencies --   1527.9939              1530.9129              1533.2920
 Red. masses --      1.0812                 1.0819                 1.0586
 Frc consts  --      1.4873                 1.4939                 1.4663
 IR Inten    --      3.5417                 4.0568                 6.4114

                     82                     83                     84
                      A                      A                      A
 Frequencies --   1543.4681              1546.0592              1788.6181
 Red. masses --      1.0872                 1.0691                 7.6444
 Frc consts  --      1.5260                 1.5056                14.4088
 IR Inten    --     11.5218                 7.6244               369.4848

                     85                     86                     87
                      A                      A                      A
 Frequencies --   1848.8635              2983.3131              2994.6345
 Red. masses --     10.1761                 1.0756                 1.0732
 Frc consts  --     20.4948                 5.6400                 5.6706
 IR Inten    --    236.5634                35.5620                54.4575

                     88                     89                     90
                      A                      A                      A
 Frequencies --   3019.3639              3024.5639              3040.7782
 Red. masses --      1.0709                 1.0641                 1.0357
 Frc consts  --      5.7520                 5.7354                 5.6421
 IR Inten    --     65.8669                31.7504                36.0208

                     91                     92                     93
                      A                      A                      A
 Frequencies --   3048.6930              3051.7232              3074.5905
 Red. masses --      1.0534                 1.0465                 1.0951
 Frc consts  --      5.7688                 5.7422                 6.0994
 IR Inten    --     24.9934                13.8608                37.0215

                     94                     95                     96
                      A                      A                      A
 Frequencies --   3091.0079              3107.6046              3108.9014
 Red. masses --      1.1046                 1.1024                 1.1024
 Frc consts  --      6.2181                 6.2723                 6.2776
 IR Inten    --     50.0598                25.5140                13.4250

                     97                     98                     99
                      A                      A                      A
 Frequencies --   3113.8256              3123.1118              3130.8231
 Red. masses --      1.1019                 1.0840                 1.0995
 Frc consts  --      6.2948                 6.2295                 6.3497
 IR Inten    --     53.0356                 3.7529                35.8128

                    100                    101                    102
                      A                      A                      A
 Frequencies --   3141.4523              3152.6482              3173.9631
 Red. masses --      1.0943                 1.0898                 1.0870
 Frc consts  --      6.3628                 6.3821                 6.4519
 IR Inten    --     16.9487                 7.0862                15.2007

                    103                    104                    105
                      A                      A                      A
 Frequencies --   3564.7448              3690.6047              3716.3359
 Red. masses --      1.0736                 1.0642                 1.0654
 Frc consts  --      8.0382                 8.5402                 8.6691
 IR Inten    --     40.9803                68.0737                18.6008

 - Thermochemistry -
 -------------------
 Temperature   298.150 Kelvin.  Pressure   1.00000 Atm.
 Atom     1 has atomic number  6 and mass  12.00000

 Molecular mass:   244.14231 amu.
 Principal axes and moments of inertia in atomic units:
                           1         2         3
     Eigenvalues --  2319.543436639.472326831.00713
           X            0.99991   0.00563   0.01202
           Y           -0.00635   0.99814   0.06060
           Z           -0.01166  -0.06068   0.99809
 This molecule is an asymmetric top.
 Rotational symmetry number  1.
 Warning -- assumption of classical behavior for rotation
           may cause significant error
 Rotational temperatures (Kelvin)      0.03734     0.01305     0.01268
 Rotational constants (GHZ):           0.77806     0.27182     0.26420
 Zero-point vibrational energy     842964.7 (Joules/Mol)
                                  201.47341 (Kcal/Mol)
 Warning -- explicit consideration of  28 degrees of freedom as
           vibrations may cause significant error
 Vibrational temperatures:     39.72    50.94    65.34    70.97   116.49
          (Kelvin)            121.65   154.60   248.10   283.19   300.65
                              330.28   355.61   375.97   389.92   445.25
                              460.12   477.17   532.89   558.75   612.77
                              627.30   634.99   672.20   694.00   732.70
                              767.35   823.16   867.87   902.27   985.34
                             1056.36  1066.66  1107.30  1158.54  1223.27
                             1244.47  1265.90  1276.61  1319.07  1343.90
                             1356.37  1381.22  1393.08  1453.46  1498.28
                             1505.15  1529.67  1553.40  1574.22  1604.51
                             1673.92  1694.17  1709.51  1726.49  1766.00
                             1782.77  1799.03  1839.84  1854.60  1864.29
                             1899.07  1933.86  1934.82  1973.17  1991.88
                             2011.28  2019.01  2032.72  2042.22  2054.73
                             2056.55  2088.99  2102.30  2153.73  2168.34
                             2179.33  2181.75  2191.16  2198.44  2202.64
                             2206.07  2220.71  2224.43  2573.42  2660.10
                             4292.32  4308.61  4344.19  4351.67  4375.00
                             4386.39  4390.75  4423.65  4447.27  4471.15
                             4473.02  4480.10  4493.46  4504.56  4519.85
                             4535.96  4566.62  5128.87  5309.96  5346.98

 Zero-point correction=                           0.321068 (Hartree/Particle)
 Thermal correction to Energy=                    0.338753
 Thermal correction to Enthalpy=                  0.339697
 Thermal correction to Gibbs Free Energy=         0.274363
 Sum of electronic and zero-point Energies=           -841.384780
 Sum of electronic and thermal Energies=              -841.367095
 Sum of electronic and thermal Enthalpies=            -841.366151
 Sum of electronic and thermal Free Energies=         -841.431485

                     E (Thermal)             CV                S
                      KCal/Mol        Cal/Mol-Kelvin    Cal/Mol-Kelvin
 Total                  212.570             66.864            137.507
 Electronic               0.000              0.000              0.000
 Translational            0.889              2.981             42.379
 Rotational               0.889              2.981             33.020
 Vibrational            210.793             60.902             62.109
 Vibration     1          0.593              1.984              5.994
 Vibration     2          0.594              1.982              5.501
 Vibration     3          0.595              1.979              5.008
 Vibration     4          0.595              1.978              4.844
 Vibration     5          0.600              1.962              3.867
 Vibration     6          0.601              1.960              3.782
 Vibration     7          0.606              1.943              3.314
 Vibration     8          0.626              1.876              2.409
 Vibration     9          0.636              1.844              2.163
 Vibration    10          0.642              1.827              2.053
 Vibration    11          0.652              1.796              1.882
 Vibration    12          0.661              1.767              1.751
 Vibration    13          0.669              1.744              1.653
 Vibration    14          0.675              1.727              1.590
 Vibration    15          0.699              1.656              1.365
 Vibration    16          0.706              1.636              1.311
 Vibration    17          0.714              1.612              1.252
 Vibration    18          0.742              1.533              1.078
 Vibration    19          0.757              1.495              1.006
 Vibration    20          0.788              1.414              0.872
 Vibration    21          0.796              1.392              0.839
 Vibration    22          0.801              1.380              0.822
 Vibration    23          0.824              1.323              0.745
 Vibration    24          0.839              1.289              0.704
 Vibration    25          0.864              1.229              0.635
 Vibration    26          0.888              1.176              0.580
 Vibration    27          0.928              1.092              0.500
 Vibration    28          0.962              1.025              0.444

 Optimization completed.
    -- Stationary point found.
 Normal termination of Gaussian 16 at Sun Dec 13 20:56:02 2020.

 ----------------------------------------------------------------------
 # B3LYP/6-311++G(d,p) empiricaldispersion=gd3bj scf=xqc pop=npa geom=c
 heck
 ----------------------------------------------------------------------

 --------------------------------------
 CID_64066052_JID_7884_Energie_neutraal
 --------------------------------------
 Structure from the checkpoint file:  "JID_7884.chk"
 Charge =  0 Multiplicity = 1

 SCF Done:  E(RB3LYP) =  -841.970561143     A.U. after   14 cycles
 Normal termination of Gaussian 16 at Sun Dec 13 21:04:04 2020.

 ----------------------------------------------------------------------
 # B3LYP/6-311++G(d,p) empiricaldispersion=gd3bj scf=xqc pop=npa geom=c
 heck
 ----------------------------------------------------------------------

 ------------------------------------
 CID_64066052_JID_7884_Energie_kation
 ------------------------------------
 Structure from the checkpoint file:  "JID_7884.chk"
 Charge =  1 Multiplicity = 2

 SCF Done:  E(UB3LYP) =  -841.653205009     A.U. after   24 cycles
 Normal termination of Gaussian 16 at Sun Dec 13 21:23:08 2020.
 Gaussian 16:  ES64L-G16RevA.03 25-Dec-2016

 ----------------------------------------------------------------------
 # B3LYP/6-311++G(d,p) empiricaldispersion=gd3bj scf=xqc pop=npa geom=c
 heck
 ----------------------------------------------------------------------

 -----------------------------------
 CID_64066052_JID_7884_Energie_anion
 -----------------------------------
 Structure from the checkpoint file:  "JID_7884.chk"
 Charge = -1 Multiplicity = 2

                         Standard orientation:
 ---------------------------------------------------------------------
 Center     Atomic      Atomic             Coordinates (Angstroms)
 Number     Number       Type             X           Y           Z
 ---------------------------------------------------------------------
      1          6           0       -2.358157   -0.959767   -1.581113
      2          6           0       -3.002024   -0.245306   -0.381669
      3          6           0       -3.036451    1.285012   -0.602103
      4          6           0       -1.644110    1.930798   -0.567636
      5          6           0       -0.902196    1.522651    0.705803
      6          7           0       -0.866385    0.065131    0.823459
      7          6           0       -2.192419   -0.541255    0.897820
      8          6           0        0.198098   -0.640829    1.343372
      9          8           0        0.074135   -1.680646    1.977241
     10          7           0        1.475773   -0.093358    1.097952
     11          6           0        1.872014    0.296616   -0.258428
     12          6           0        2.740261    1.569331   -0.213122
     13          8           0        3.816533    1.416165    0.690869
     14          6           0        2.634490   -0.787359   -1.018642
     15          8           0        2.938589   -0.687131   -2.185402
     16          8           0        2.956367   -1.852171   -0.254557
     17          6           0       -4.432598   -0.765247   -0.187543
     18          1           0       -1.310976   -0.672685   -1.713062
     19          1           0       -2.386096   -2.046656   -1.441681
     20          1           0       -2.894657   -0.724773   -2.507758
     21          1           0       -3.539402    1.511535   -1.550489
     22          1           0       -3.648090    1.736091    0.192785
     23          1           0       -1.058888    1.627194   -1.444490
     24          1           0       -1.732641    3.023193   -0.604551
     25          1           0        0.110513    1.920675    0.736157
     26          1           0       -1.433076    1.932224    1.581980
     27          1           0       -2.730710   -0.147443    1.775526
     28          1           0       -2.064104   -1.613799    1.047637
     29          1           0        2.144675   -0.741344    1.502142
     30          1           0        0.978487    0.497914   -0.854150
     31          1           0        3.170804    1.755895   -1.199321
     32          1           0        2.104580    2.425004    0.059057
     33          1           0        3.416445    1.314855    1.570700
     34          1           0        3.460338   -2.461945   -0.825561
     35          1           0       -4.438514   -1.848275   -0.016692
     36          1           0       -4.917277   -0.285220    0.671075
     37          1           0       -5.043561   -0.562458   -1.074827
 ---------------------------------------------------------------------

 SCF Done:  E(UB3LYP) =  -841.961641120     A.U. after   33 cycles
 SCF Done:  E(UB3LYP) =  -841.961641120     a.u. after    1 cycles

 The electronic state is 2-A.
 Alpha  occ. eigenvalues --  -19.09307 -19.04560 -19.03368 -18.99639 -14.24575
 Alpha  occ. eigenvalues --  -14.24298 -10.22447 -10.20510 -10.14401 -10.13979
 Alpha  occ. eigenvalues --  -10.11407 -10.10584 -10.09476 -10.07676 -10.07360
 Alpha  occ. eigenvalues --  -10.07194 -10.06651  -1.03314  -0.96253  -0.95023
 Alpha  occ. eigenvalues --   -0.94280  -0.85578  -0.83200  -0.73460  -0.68759
 Alpha  occ. eigenvalues --   -0.68071  -0.60851  -0.59930  -0.59167  -0.58417
 Alpha  occ. eigenvalues --   -0.52874  -0.52349  -0.49143  -0.45772  -0.44575
 Alpha  occ. eigenvalues --   -0.43452  -0.42516  -0.40945  -0.39151  -0.38308
 Alpha  occ. eigenvalues --   -0.37082  -0.36880  -0.36244  -0.35392  -0.34966
 Alpha  occ. eigenvalues --   -0.33730  -0.33362  -0.32663  -0.31992  -0.31680
 Alpha  occ. eigenvalues --   -0.30494  -0.29452  -0.28805  -0.28516  -0.27048
 Alpha  occ. eigenvalues --   -0.25891  -0.25576  -0.24773  -0.24097  -0.23055
 Alpha  occ. eigenvalues --   -0.22449  -0.22316  -0.20671  -0.18919  -0.16524
 Alpha  occ. eigenvalues --   -0.15132   0.03947
 Alpha virt. eigenvalues --    0.05589   0.06312   0.07091   0.07475   0.07681
 Alpha virt. eigenvalues --    0.08726   0.09003   0.09733   0.10047   0.10720
 Alpha virt. eigenvalues --    0.11115   0.11710   0.11808   0.12223   0.12461

  Beta  occ. eigenvalues --  -19.09263 -19.04547 -19.03338 -18.99635 -14.24572
  Beta  occ. eigenvalues --  -14.24279 -10.22407 -10.20506 -10.14396 -10.13953
  Beta  occ. eigenvalues --  -10.11381 -10.10574 -10.09477 -10.07646 -10.07336
  Beta  occ. eigenvalues --  -10.07175 -10.06629  -1.03234  -0.96242  -0.94996
  Beta  occ. eigenvalues --   -0.94216  -0.85564  -0.83177  -0.73439  -0.68717
  Beta  occ. eigenvalues --   -0.68016  -0.60818  -0.59890  -0.59114  -0.58328
  Beta  occ. eigenvalues --   -0.52804  -0.52283  -0.49107  -0.45718  -0.44519
  Beta  occ. eigenvalues --   -0.43405  -0.42476  -0.40882  -0.39071  -0.38276
  Beta  occ. eigenvalues --   -0.37051  -0.36823  -0.36217  -0.35361  -0.34920
  Beta  occ. eigenvalues --   -0.33688  -0.33334  -0.32617  -0.31937  -0.31629
  Beta  occ. eigenvalues --   -0.30463  -0.29429  -0.28779  -0.28490  -0.27010
  Beta  occ. eigenvalues --   -0.25865  -0.25540  -0.24659  -0.24068  -0.23013
  Beta  occ. eigenvalues --   -0.22407  -0.22279  -0.20644  -0.18885  -0.16479
  Beta  occ. eigenvalues --   -0.15108
  Beta virt. eigenvalues --    0.06117   0.06566   0.06999   0.07496   0.08081
  Beta virt. eigenvalues --    0.08182   0.09073   0.09186   0.10111   0.10473
  Beta virt. eigenvalues --    0.10943   0.11240   0.11840   0.12118   0.12461

 Mulliken charges and spin densities:
               1          2
     1  C    0.434651  -0.984220
     2  C   -0.971741   1.661855
     3  C    0.622944  -1.160551
     4  C    0.082613  -0.276933
     5  C    0.047095  -0.457983
     6  N    0.058895  -0.011225
     7  C   -0.031552  -0.691421
     8  C    0.084658   0.052419
     9  O   -0.312695  -0.009542
    10  N   -0.003128  -0.091186
    11  C   -0.684347   0.468506
    12  C    0.380868  -0.801697
    13  O   -0.199967   0.019876
    14  C    0.210021  -0.253140
    15  O   -0.216782  -0.005990
    16  O   -0.137066   0.007172
    17  C    0.350662  -0.845678
    18  H    0.045082   0.104218
    19  H    0.108838   0.032085
    20  H   -0.180546   0.342675
    21  H   -0.200215   0.367347
    22  H   -0.022770   0.182295
    23  H   -0.034745   0.158198
    24  H   -0.867503   1.081935
    25  H    0.113202   0.044676
    26  H   -0.426839   0.607947
    27  H    0.102292   0.082146
    28  H    0.158363   0.053319
    29  H    0.346662   0.010611
    30  H    0.467504  -0.341358
    31  H    0.160245   0.052852
    32  H   -0.316730   0.477749
    33  H    0.095455   0.153489
    34  H   -0.129912   0.416393
    35  H    0.054164   0.079493
    36  H   -0.114452   0.250237
    37  H   -0.073224   0.223434
 Sum of Mulliken charges =  -1.00000   1.00000

 Dipole moment (field-independent basis, Debye):
    X=              0.9734    Y=             -2.6709    Z=              0.8701  Tot=              2.9729
 Quadrupole moment (field-independent basis, Debye-Ang):
   XX=           -176.3108   YY=           -159.3563   ZZ=           -144.6210
   XY=              9.5933   XZ=              0.9570   YZ=              1.5334

 Summary of Natural Population Analysis:

                                       Natural Population
                Natural  -----------------------------------------------
    Atom  No    Charge         Core      Valence    Rydberg      Total
 -----------------------------------------------------------------------
      C    1   -0.28614      0.99962     2.27924    0.00728     3.28614
      C    2   -0.05113      0.99957     2.03957    0.01199     3.05113
      C    3   -0.18810      0.99959     2.17765    0.01086     3.18810
      C    4   -0.19448      0.99962     2.18533    0.00953     3.19448
      C    5   -0.08409      0.99960     2.07334    0.01115     3.08409
      N    6   -0.27209      0.99963     2.76254    0.00991     3.77209
      C    7   -0.08125      0.99956     2.07077    0.01092     3.08125
      C    8    0.41818      0.99966     1.55915    0.02301     2.58182
      O    9   -0.32904      0.99987     3.32416    0.00501     4.32904
      N   10   -0.35173      0.99968     2.84048    0.01157     3.85173
      C   11   -0.07626      0.99953     2.06453    0.01220     3.07626
      C   12   -0.00673      0.99958     1.99440    0.01274     3.00673
      O   13   -0.36694      0.99990     3.36064    0.00640     4.36694
      C   14    0.41135      0.99969     1.56260    0.02636     2.58865
      O   15   -0.30405      0.99987     3.29817    0.00601     4.30405
      O   16   -0.34276      0.99987     3.33613    0.00676     4.34276
      C   17   -0.28152      0.99962     2.27591    0.00598     3.28152
      H   18    0.10214      0.00000     0.39646    0.00140     0.39786
      H   19    0.09949      0.00000     0.39970    0.00081     0.40051
      H   20    0.10066      0.00000     0.39850    0.00084     0.39934
      H   21    0.10299      0.00000     0.39566    0.00136     0.39701
      H   22    0.09879      0.00000     0.39952    0.00170     0.40121
      H   23    0.09486      0.00000     0.40336    0.00177     0.40514
      H   24    0.10643      0.00000     0.39129    0.00228     0.39357
      H   25    0.10486      0.00000     0.39279    0.00236     0.39514
      H   26    0.09192      0.00000     0.40646    0.00162     0.40808
      H   27    0.09241      0.00000     0.40645    0.00114     0.40759
      H   28    0.11469      0.00000     0.38422    0.00109     0.38531
      H   29    0.20109      0.00000     0.29604    0.00287     0.29891
      H   30    0.12127      0.00000     0.37601    0.00271     0.37873
      H   31    0.09614      0.00000     0.40266    0.00120     0.40386
      H   32    0.08299      0.00000     0.41533    0.00168     0.41701
      H   33    0.23055      0.00000     0.26631    0.00314     0.26945
      H   34    0.24480      0.00000     0.24846    0.00674     0.25520
      H   35    0.09843      0.00000     0.40073    0.00084     0.40157
      H   36    0.10037      0.00000     0.39869    0.00094     0.39963
      H   37    0.10190      0.00000     0.39716    0.00094     0.39810
 =======================================================================
   * Total *   -0.00000     16.99447    48.78040    0.22513    66.00000

 Normal termination of Gaussian 16 at Sun Dec 13 21:49:12 2020.
