 Gaussian 16, Revision A.03,

 -----------------------------------------------------------
 # opt freq B3LYP/6-31G(d) empiricaldispersion=gd3bj scf=xqc
 -----------------------------------------------------------

 -------------------------------
 CID_144628418_JID_4098_neutraal
 -------------------------------
 Symbolic Z-matrix:
 Charge =  0 Multiplicity = 1

 SCF Done:  E(RB3LYP) =  -592.412589398     A.U. after   14 cycles
 SCF Done:  E(RB3LYP) =  -592.428700614     A.U. after   12 cycles
 SCF Done:  E(RB3LYP) =  -592.430328675     A.U. after   12 cycles
 SCF Done:  E(RB3LYP) =  -592.430622654     A.U. after   12 cycles
 SCF Done:  E(RB3LYP) =  -592.430462273     A.U. after   12 cycles
 SCF Done:  E(RB3LYP) =  -592.430889068     A.U. after   11 cycles
 SCF Done:  E(RB3LYP) =  -592.430945150     A.U. after   11 cycles
 SCF Done:  E(RB3LYP) =  -592.430961668     A.U. after   10 cycles
 SCF Done:  E(RB3LYP) =  -592.430970152     A.U. after    9 cycles
 SCF Done:  E(RB3LYP) =  -592.430974651     A.U. after    9 cycles
 SCF Done:  E(RB3LYP) =  -592.430977754     A.U. after    9 cycles
 SCF Done:  E(RB3LYP) =  -592.430978044     A.U. after    8 cycles
 SCF Done:  E(RB3LYP) =  -592.430978346     A.U. after    9 cycles
 SCF Done:  E(RB3LYP) =  -592.430978427     A.U. after    7 cycles
 SCF Done:  E(RB3LYP) =  -592.430978451     A.U. after    6 cycles
 Optimization completed.
    -- Stationary point found.
 Normal termination of Gaussian 16 at Thu Dec 10 09:21:35 2020.

 --------------------------------------------------------------------
 #N Geom=AllCheck Guess=TCheck SCRF=Check GenChk RB3LYP/6-31G(d) Freq
 --------------------------------------------------------------------

 Structure from the checkpoint file:  "JID_4098.chk"
 -------------------------------
 CID_144628418_JID_4098_neutraal
 -------------------------------
 Charge =  0 Multiplicity = 1

 SCF Done:  E(RB3LYP) =  -592.430978451     A.U. after    1 cycles

  Exact polarizability: 197.438   4.478 125.680   3.221   5.522  91.824
 Approx polarizability: 270.663   6.113 203.051   3.514  15.771 137.776

                      1                      2                      3
                      A                      A                      A
 Frequencies --     13.0365                58.3186                68.0494
 Red. masses --      3.4574                 3.0442                 3.3755
 Frc consts  --      0.0003                 0.0061                 0.0092
 IR Inten    --      0.3358                 1.4961                 5.5761

                      4                      5                      6
                      A                      A                      A
 Frequencies --    108.3908               113.4026               142.9418
 Red. masses --      2.6022                 3.0072                 2.7380
 Frc consts  --      0.0180                 0.0228                 0.0330
 IR Inten    --      2.4759                 0.3763                 4.4354

                      7                      8                      9
                      A                      A                      A
 Frequencies --    174.3269               178.8931               199.7416
 Red. masses --      3.5477                 1.7130                 1.7478
 Frc consts  --      0.0635                 0.0323                 0.0411
 IR Inten    --      1.4611                 0.3007                 3.5634

                     10                     11                     12
                      A                      A                      A
 Frequencies --    242.6009               260.5211               274.7087
 Red. masses --      2.3018                 2.8706                 3.5721
 Frc consts  --      0.0798                 0.1148                 0.1588
 IR Inten    --      3.4952                 8.9086                 2.3022

                     13                     14                     15
                      A                      A                      A
 Frequencies --    372.9028               400.3995               453.4065
 Red. masses --      3.7405                 4.0260                 3.8500
 Frc consts  --      0.3065                 0.3803                 0.4663
 IR Inten    --      1.2114                 2.8874                 1.6821

                     16                     17                     18
                      A                      A                      A
 Frequencies --    483.1973               532.7338               557.9012
 Red. masses --      2.7988                 1.2568                 3.0928
 Frc consts  --      0.3850                 0.2102                 0.5672
 IR Inten    --      0.4231                68.4143                 3.8214

                     19                     20                     21
                      A                      A                      A
 Frequencies --    602.6510               646.1486               690.1421
 Red. masses --      2.4624                 2.1299                 2.8735
 Frc consts  --      0.5269                 0.5239                 0.8064
 IR Inten    --      2.6367                 9.7499                13.8955

                     22                     23                     24
                      A                      A                      A
 Frequencies --    721.1360               751.2260               764.5892
 Red. masses --      3.7016                 2.0610                 3.6188
 Frc consts  --      1.1342                 0.6853                 1.2465
 IR Inten    --     11.5613                11.3756                 6.4811

                     25                     26                     27
                      A                      A                      A
 Frequencies --    805.6263               825.7337               862.6149
 Red. masses --      3.8380                 2.6161                 1.6993
 Frc consts  --      1.4676                 1.0509                 0.7450
 IR Inten    --      2.0671                96.6965                34.3311

                     28                     29                     30
                      A                      A                      A
 Frequencies --    863.9327               909.4579               922.4679
 Red. masses --      1.2158                 2.0995                 1.3903
 Frc consts  --      0.5346                 1.0231                 0.6970
 IR Inten    --      2.0713                 0.4019                25.5860

                     31                     32                     33
                      A                      A                      A
 Frequencies --    951.9531               983.5797               994.5863
 Red. masses --      2.1251                 1.2032                 3.3499
 Frc consts  --      1.1346                 0.6858                 1.9524
 IR Inten    --     14.3339                 2.8782                 0.7241

                     34                     35                     36
                      A                      A                      A
 Frequencies --   1000.9653              1014.6096              1044.1210
 Red. masses --      3.6649                 5.7052                 1.4210
 Frc consts  --      2.1635                 3.4603                 0.9127
 IR Inten    --     12.5144                17.7156                12.2135

                     37                     38                     39
                      A                      A                      A
 Frequencies --   1048.4902              1074.5726              1085.9227
 Red. masses --      1.2298                 1.4977                 3.4692
 Frc consts  --      0.7965                 1.0189                 2.4103
 IR Inten    --     14.8575                 5.9659                 1.0211

                     40                     41                     42
                      A                      A                      A
 Frequencies --   1094.3262              1107.4020              1137.9379
 Red. masses --      1.1905                 1.7109                 2.0033
 Frc consts  --      0.8400                 1.2362                 1.5284
 IR Inten    --      2.2783                 5.1286                14.9092

                     43                     44                     45
                      A                      A                      A
 Frequencies --   1192.0940              1227.4630              1251.0417
 Red. masses --      1.6988                 3.0992                 3.0998
 Frc consts  --      1.4224                 2.7512                 2.8584
 IR Inten    --      1.7699                 2.8856                16.0667

                     46                     47                     48
                      A                      A                      A
 Frequencies --   1257.2016              1267.6772              1296.2876
 Red. masses --      1.2483                 1.3141                 1.3975
 Frc consts  --      1.1624                 1.2442                 1.3835
 IR Inten    --      0.5356                 3.0064                 1.0089

                     49                     50                     51
                      A                      A                      A
 Frequencies --   1301.6877              1311.7902              1345.3106
 Red. masses --      1.2417                 1.7966                 1.3979
 Frc consts  --      1.2396                 1.8215                 1.4906
 IR Inten    --      0.1270                38.6441                13.6473

                     52                     53                     54
                      A                      A                      A
 Frequencies --   1357.8614              1411.9130              1413.4094
 Red. masses --      1.6978                 1.7366                 1.1658
 Frc consts  --      1.8444                 2.0397                 1.3722
 IR Inten    --      3.1405                23.4108                11.2521

                     55                     56                     57
                      A                      A                      A
 Frequencies --   1431.5087              1462.6728              1480.0850
 Red. masses --      1.3591                 1.3954                 3.1026
 Frc consts  --      1.6409                 1.7589                 4.0045
 IR Inten    --      5.4187                 3.1522                 3.3050

                     58                     59                     60
                      A                      A                      A
 Frequencies --   1489.8548              1504.3324              1512.0443
 Red. masses --      1.5931                 1.0996                 1.0997
 Frc consts  --      2.0834                 1.4661                 1.4814
 IR Inten    --     22.4952                 5.2292                 8.0557

                     61                     62                     63
                      A                      A                      A
 Frequencies --   1522.4801              1544.8822              1568.5791
 Red. masses --      1.0780                 1.1394                 6.1198
 Frc consts  --      1.4722                 1.6022                 8.8716
 IR Inten    --      0.2046                 0.9184                13.7844

                     64                     65                     66
                      A                      A                      A
 Frequencies --   1609.0539              1707.6171              1723.3741
 Red. masses --      5.1014                 5.1666                 5.5789
 Frc consts  --      7.7818                 8.8764                 9.7623
 IR Inten    --      9.3425                12.5223                10.0273

                     67                     68                     69
                      A                      A                      A
 Frequencies --   3033.5581              3058.0001              3060.9573
 Red. masses --      1.0426                 1.0813                 1.0588
 Frc consts  --      5.6529                 5.9579                 5.8447
 IR Inten    --     21.8046                15.1747                91.3844

                     70                     71                     72
                      A                      A                      A
 Frequencies --   3068.7103              3085.5749              3118.7603
 Red. masses --      1.0643                 1.0947                 1.1099
 Frc consts  --      5.9053                 6.1405                 6.3604
 IR Inten    --     19.6755                23.4062                22.7135

                     73                     74                     75
                      A                      A                      A
 Frequencies --   3125.2389              3127.7750              3139.3847
 Red. masses --      1.1088                 1.0850                 1.0980
 Frc consts  --      6.3808                 6.2542                 6.3757
 IR Inten    --     32.8369                16.4356                 2.9618

                     76                     77                     78
                      A                      A                      A
 Frequencies --   3165.4507              3170.6985              3179.8733
 Red. masses --      1.0928                 1.0696                 1.0784
 Frc consts  --      6.4518                 6.3356                 6.4248
 IR Inten    --     44.7623                 6.3458                 9.0552

                     79                     80                     81
                      A                      A                      A
 Frequencies --   3258.2653              3486.3155              3633.9359
 Red. masses --      1.1162                 1.0755                 1.0801
 Frc consts  --      6.9818                 7.7018                 8.4036
 IR Inten    --     12.1276                 2.8352                37.9854

 - Thermochemistry -
 -------------------
 Temperature   298.150 Kelvin.  Pressure   1.00000 Atm.
 Atom     1 has atomic number  6 and mass  12.00000

 Molecular mass:   189.12660 amu.
 Principal axes and moments of inertia in atomic units:
                           1         2         3
     Eigenvalues --  1145.606995146.187875679.93363
           X            0.99997   0.00577   0.00603
           Y           -0.00578   0.99998   0.00038
           Z           -0.00603  -0.00042   0.99998
 This molecule is an asymmetric top.
 Rotational symmetry number  1.
 Warning -- assumption of classical behavior for rotation
           may cause significant error
 Rotational temperatures (Kelvin)      0.07561     0.01683     0.01525
 Rotational constants (GHZ):           1.57536     0.35069     0.31774
 Zero-point vibrational energy     648629.5 (Joules/Mol)
                                  155.02617 (Kcal/Mol)
 Warning -- explicit consideration of  19 degrees of freedom as
           vibrations may cause significant error
 Vibrational temperatures:     18.76    83.91    97.91   155.95   163.16
          (Kelvin)            205.66   250.82   257.39   287.38   349.05
                              374.83   395.24   536.52   576.09   652.35
                              695.21   766.49   802.70   867.08   929.66
                              992.96  1037.55  1080.85  1100.07  1159.12
                             1188.05  1241.11  1243.01  1308.51  1327.23
                             1369.65  1415.15  1430.99  1440.17  1459.80
                             1502.26  1508.54  1546.07  1562.40  1574.49
                             1593.30  1637.24  1715.16  1766.05  1799.97
                             1808.83  1823.90  1865.07  1872.84  1887.37
                             1935.60  1953.66  2031.43  2033.58  2059.62
                             2104.46  2129.51  2143.57  2164.40  2175.49
                             2190.51  2222.74  2256.84  2315.07  2456.88
                             2479.55  4364.61  4399.78  4404.03  4415.19
                             4439.45  4487.20  4496.52  4500.17  4516.87
                             4554.38  4561.93  4575.13  4687.92  5016.03
                             5228.42

 Zero-point correction=                           0.247050 (Hartree/Particle)
 Thermal correction to Energy=                    0.260846
 Thermal correction to Enthalpy=                  0.261790
 Thermal correction to Gibbs Free Energy=         0.204879
 Sum of electronic and zero-point Energies=           -592.183929
 Sum of electronic and thermal Energies=              -592.170133
 Sum of electronic and thermal Enthalpies=            -592.169189
 Sum of electronic and thermal Free Energies=         -592.226100

                     E (Thermal)             CV                S
                      KCal/Mol        Cal/Mol-Kelvin    Cal/Mol-Kelvin
 Total                  163.683             51.406            119.779
 Electronic               0.000              0.000              0.000
 Translational            0.889              2.981             41.618
 Rotational               0.889              2.981             31.882
 Vibrational            161.906             45.444             46.279
 Vibration     1          0.593              1.987              7.484
 Vibration     2          0.596              1.974              4.513
 Vibration     3          0.598              1.969              4.209
 Vibration     4          0.606              1.943              3.298
 Vibration     5          0.607              1.938              3.210
 Vibration     6          0.616              1.910              2.764
 Vibration     7          0.627              1.874              2.388
 Vibration     8          0.629              1.868              2.340
 Vibration     9          0.638              1.840              2.135
 Vibration    10          0.659              1.775              1.784
 Vibration    11          0.669              1.745              1.658
 Vibration    12          0.677              1.720              1.566
 Vibration    13          0.744              1.528              1.068
 Vibration    14          0.766              1.469              0.961
 Vibration    15          0.812              1.353              0.786
 Vibration    16          0.839              1.287              0.701
 Vibration    17          0.888              1.178              0.581
 Vibration    18          0.913              1.122              0.528
 Vibration    19          0.961              1.026              0.445

 Optimization completed.
    -- Stationary point found.
 Normal termination of Gaussian 16 at Thu Dec 10 09:29:08 2020.

 ----------------------------------------------------------------------
 # B3LYP/6-311++G(d,p) empiricaldispersion=gd3bj scf=xqc pop=npa geom=c
 heck
 ----------------------------------------------------------------------

 ---------------------------------------
 CID_144628418_JID_4098_Energie_neutraal
 ---------------------------------------
 Structure from the checkpoint file:  "JID_4098.chk"
 Charge =  0 Multiplicity = 1

 SCF Done:  E(RB3LYP) =  -592.595731511     A.U. after   15 cycles
 Normal termination of Gaussian 16 at Thu Dec 10 09:32:21 2020.

 ----------------------------------------------------------------------
 # B3LYP/6-311++G(d,p) empiricaldispersion=gd3bj scf=xqc pop=npa geom=c
 heck
 ----------------------------------------------------------------------

 -------------------------------------
 CID_144628418_JID_4098_Energie_kation
 -------------------------------------
 Structure from the checkpoint file:  "JID_4098.chk"
 Charge =  1 Multiplicity = 2

 SCF Done:  E(UB3LYP) =  -592.326094660     A.U. after   32 cycles
 Normal termination of Gaussian 16 at Thu Dec 10 09:43:05 2020.
 Gaussian 16:  ES64L-G16RevA.03 25-Dec-2016

 ----------------------------------------------------------------------
 # B3LYP/6-311++G(d,p) empiricaldispersion=gd3bj scf=xqc pop=npa geom=c
 heck
 ----------------------------------------------------------------------

 ------------------------------------
 CID_144628418_JID_4098_Energie_anion
 ------------------------------------
 Structure from the checkpoint file:  "JID_4098.chk"
 Charge = -1 Multiplicity = 2

                         Standard orientation:
 ---------------------------------------------------------------------
 Center     Atomic      Atomic             Coordinates (Angstroms)
 Number     Number       Type             X           Y           Z
 ---------------------------------------------------------------------
      1          6           0        3.679887   -0.561414    1.290716
      2          6           0        3.453815   -1.310310    0.016363
      3          6           0        2.327896   -1.315405   -0.718617
      4          6           0        1.105178   -0.571633   -0.442685
      5          6           0        0.795413    0.746328   -0.100104
      6          7           0       -0.575627    0.882613    0.054867
      7          6           0       -1.106858   -0.294102   -0.204694
      8          7           0       -0.130378   -1.198455   -0.529467
      9          6           0       -2.554768   -0.625128   -0.143367
     10          6           0       -3.329209   -0.330996    1.176335
     11          7           0       -4.413722    0.380001    0.433716
     12          6           0       -3.563933    0.362757   -0.796699
     13          6           0        1.625275    1.938449    0.014807
     14          6           0        2.883099    2.110983   -0.413517
     15          1           0        2.736761   -0.230826    1.733704
     16          1           0        4.285880    0.340090    1.122813
     17          1           0        4.218553   -1.185628    2.013736
     18          1           0        4.285361   -1.914133   -0.345141
     19          1           0        2.295044   -1.962900   -1.596238
     20          1           0       -0.264660   -2.184654   -0.703687
     21          1           0       -2.721470   -1.653774   -0.483600
     22          1           0       -3.646399   -1.199821    1.763808
     23          1           0       -2.782194    0.360951    1.823872
     24          1           0       -5.206909   -0.246650    0.308302
     25          1           0       -3.113807    1.343819   -0.973156
     26          1           0       -4.060618    0.022479   -1.711961
     27          1           0        1.096717    2.774291    0.469307
     28          1           0        3.383049    3.067174   -0.294208
     29          1           0        3.438017    1.323301   -0.912605
 ---------------------------------------------------------------------

 SCF Done:  E(UB3LYP) =  -592.591636912     A.U. after   33 cycles
 SCF Done:  E(UB3LYP) =  -592.591636912     a.u. after    1 cycles

 The electronic state is 2-A.
 Alpha  occ. eigenvalues --  -14.24929 -14.19468 -14.18021 -10.11800 -10.09471
 Alpha  occ. eigenvalues --  -10.09204 -10.09196 -10.08056 -10.08011 -10.06792
 Alpha  occ. eigenvalues --  -10.06596 -10.06594 -10.06130 -10.05084  -0.90412
 Alpha  occ. eigenvalues --   -0.82532  -0.76323  -0.70563  -0.67197  -0.64861
 Alpha  occ. eigenvalues --   -0.61044  -0.57314  -0.57127  -0.52364  -0.50214
 Alpha  occ. eigenvalues --   -0.48176  -0.44476  -0.42275  -0.41212  -0.40091
 Alpha  occ. eigenvalues --   -0.37333  -0.35769  -0.33616  -0.33541  -0.32699
 Alpha  occ. eigenvalues --   -0.31184  -0.30548  -0.29577  -0.29181  -0.27756
 Alpha  occ. eigenvalues --   -0.27251  -0.25148  -0.24885  -0.24214  -0.22577
 Alpha  occ. eigenvalues --   -0.20240  -0.18034  -0.16406  -0.14681  -0.12715
 Alpha  occ. eigenvalues --   -0.09644   0.04065
 Alpha virt. eigenvalues --    0.06267   0.07310   0.07724   0.08597   0.08643
 Alpha virt. eigenvalues --    0.09181   0.10053   0.10690   0.10876   0.11291
 Alpha virt. eigenvalues --    0.11981   0.12140   0.12538   0.13124   0.13435

  Beta  occ. eigenvalues --  -14.24832 -14.19457 -14.18023 -10.11796 -10.09420
  Beta  occ. eigenvalues --  -10.09196 -10.09181 -10.08027 -10.07983 -10.06788
  Beta  occ. eigenvalues --  -10.06579 -10.06461 -10.06127 -10.05010  -0.90329
  Beta  occ. eigenvalues --   -0.82501  -0.76214  -0.70421  -0.67062  -0.64778
  Beta  occ. eigenvalues --   -0.60950  -0.57280  -0.57059  -0.52188  -0.50127
  Beta  occ. eigenvalues --   -0.48034  -0.44375  -0.42194  -0.41127  -0.40011
  Beta  occ. eigenvalues --   -0.37234  -0.35724  -0.33536  -0.33428  -0.32632
  Beta  occ. eigenvalues --   -0.31051  -0.30485  -0.29527  -0.29132  -0.27694
  Beta  occ. eigenvalues --   -0.27192  -0.25087  -0.24817  -0.24170  -0.22509
  Beta  occ. eigenvalues --   -0.19966  -0.17857  -0.16325  -0.14366  -0.12690
  Beta  occ. eigenvalues --   -0.09264
  Beta virt. eigenvalues --    0.06779   0.07170   0.07733   0.08451   0.08875
  Beta virt. eigenvalues --    0.09073   0.09403   0.10252   0.11054   0.11202
  Beta virt. eigenvalues --    0.11355   0.12137   0.12592   0.12655   0.13081

 Mulliken charges and spin densities:
               1          2
     1  C   -0.587862  -0.078953
     2  C    0.319058  -0.137398
     3  C   -0.890227   0.461291
     4  C    1.913892  -1.504730
     5  C   -0.568809   0.025286
     6  N   -0.006182  -0.044957
     7  C   -0.632448   0.867509
     8  N   -0.131942   0.016748
     9  C    0.075391  -0.167230
    10  C    0.713116  -1.272395
    11  N   -0.164485  -0.001898
    12  C    0.412227  -0.961079
    13  C    0.123727   0.267065
    14  C   -0.657611  -0.012375
    15  H    0.092231   0.058906
    16  H    0.106114   0.042850
    17  H    0.007066   0.119919
    18  H   -0.064459   0.215115
    19  H   -0.420142   0.616830
    20  H   -0.165032   0.488674
    21  H   -1.083820   1.313597
    22  H   -0.206825   0.345174
    23  H    0.176841   0.011067
    24  H    0.102135   0.123312
    25  H    0.182979   0.004861
    26  H   -0.079164   0.208792
    27  H    0.167470   0.007239
    28  H    0.098198   0.009122
    29  H    0.168562  -0.022342
 Sum of Mulliken charges =  -1.00000   1.00000

 Dipole moment (field-independent basis, Debye):
    X=              2.8946    Y=              4.0348    Z=              1.3608  Tot=              5.1488
 Quadrupole moment (field-independent basis, Debye-Ang):
   XX=           -148.1112   YY=           -128.3749   ZZ=           -108.2369
   XY=             -2.1993   XZ=              2.7853   YZ=             -6.4606

 Summary of Natural Population Analysis:

                                       Natural Population
                Natural  -----------------------------------------------
    Atom  No    Charge         Core      Valence    Rydberg      Total
 -----------------------------------------------------------------------
      C    1   -0.30874      0.99965     2.30397    0.00512     3.30874
      C    2   -0.05257      0.99956     2.04335    0.00966     3.05257
      C    3   -0.12870      0.99951     2.11757    0.01162     3.12870
      C    4    0.05969      0.99948     1.92724    0.01359     2.94031
      C    5    0.03704      0.99947     1.94903    0.01446     2.96296
      N    6   -0.25926      0.99968     2.75179    0.00778     3.75926
      C    7    0.19026      0.99960     1.79261    0.01753     2.80974
      N    8   -0.25428      0.99963     2.74478    0.00987     3.75428
      C    9   -0.14541      0.99957     2.13208    0.01376     3.14541
      C   10   -0.07563      0.99965     2.06485    0.01113     3.07563
      N   11   -0.34459      0.99977     2.83256    0.01225     3.84459
      C   12   -0.07616      0.99965     2.06534    0.01117     3.07616
      C   13   -0.09594      0.99956     2.08673    0.00965     3.09594
      C   14   -0.18810      0.99959     2.18183    0.00667     3.18810
      H   15    0.10800      0.00000     0.39092    0.00108     0.39200
      H   16    0.10620      0.00000     0.39233    0.00147     0.39380
      H   17    0.09899      0.00000     0.40001    0.00100     0.40101
      H   18    0.08867      0.00000     0.41031    0.00102     0.41133
      H   19    0.10339      0.00000     0.39500    0.00161     0.39661
      H   20    0.20939      0.00000     0.28215    0.00846     0.29061
      H   21    0.10985      0.00000     0.38351    0.00665     0.39015
      H   22    0.09050      0.00000     0.40806    0.00144     0.40950
      H   23    0.09450      0.00000     0.40403    0.00147     0.40550
      H   24    0.16918      0.00000     0.32824    0.00258     0.33082
      H   25    0.09657      0.00000     0.40193    0.00150     0.40343
      H   26    0.08892      0.00000     0.40995    0.00113     0.41108
      H   27    0.09740      0.00000     0.40124    0.00136     0.40260
      H   28    0.08675      0.00000     0.41231    0.00094     0.41325
      H   29    0.09408      0.00000     0.40474    0.00117     0.40592
 =======================================================================
   * Total *    0.00000     13.99437    36.81849    0.18715    51.00000

 Normal termination of Gaussian 16 at Thu Dec 10 09:52:57 2020.
