 Gaussian 16, Revision A.03,

 -----------------------------------------------------------
 # opt freq B3LYP/6-31G(d) empiricaldispersion=gd3bj scf=xqc
 -----------------------------------------------------------

 ------------------------------
 CID_64752363_JID_6928_neutraal
 ------------------------------
 Symbolic Z-matrix:
 Charge =  0 Multiplicity = 1

 SCF Done:  E(RB3LYP) =  -673.542708690     A.U. after   14 cycles
 SCF Done:  E(RB3LYP) =  -673.547456234     A.U. after   12 cycles
 SCF Done:  E(RB3LYP) =  -673.548584290     A.U. after   12 cycles
 SCF Done:  E(RB3LYP) =  -673.548306886     A.U. after   12 cycles
 SCF Done:  E(RB3LYP) =  -673.549560002     A.U. after   11 cycles
 SCF Done:  E(RB3LYP) =  -673.550034363     A.U. after   11 cycles
 SCF Done:  E(RB3LYP) =  -673.550066605     A.U. after   10 cycles
 SCF Done:  E(RB3LYP) =  -673.550098790     A.U. after   10 cycles
 SCF Done:  E(RB3LYP) =  -673.550104344     A.U. after   10 cycles
 SCF Done:  E(RB3LYP) =  -673.550113339     A.U. after    9 cycles
 SCF Done:  E(RB3LYP) =  -673.550115193     A.U. after    8 cycles
 SCF Done:  E(RB3LYP) =  -673.550115389     A.U. after    7 cycles
 SCF Done:  E(RB3LYP) =  -673.550115442     A.U. after    6 cycles
 Optimization completed.
    -- Stationary point found.
 Normal termination of Gaussian 16 at Fri Dec 11 01:14:09 2020.

 --------------------------------------------------------------------
 #N Geom=AllCheck Guess=TCheck SCRF=Check GenChk RB3LYP/6-31G(d) Freq
 --------------------------------------------------------------------

 Structure from the checkpoint file:  "JID_6928.chk"
 ------------------------------
 CID_64752363_JID_6928_neutraal
 ------------------------------
 Charge =  0 Multiplicity = 1

 SCF Done:  E(RB3LYP) =  -673.550115443     A.U. after    1 cycles

  Exact polarizability: 174.305  -4.703 131.906   0.186  -7.693 134.061
 Approx polarizability: 236.758  -3.798 186.511  -4.213 -17.666 215.061

                      1                      2                      3
                      A                      A                      A
 Frequencies --     53.8611                61.6315                82.4081
 Red. masses --      4.2426                 3.0724                 3.7503
 Frc consts  --      0.0073                 0.0069                 0.0150
 IR Inten    --      1.7264                 0.2878                 0.5029

                      4                      5                      6
                      A                      A                      A
 Frequencies --     97.7399               118.8474               132.1066
 Red. masses --      1.6696                 2.7443                 2.0076
 Frc consts  --      0.0094                 0.0228                 0.0206
 IR Inten    --      0.7908                 0.1080                 0.9192

                      7                      8                      9
                      A                      A                      A
 Frequencies --    155.3610               189.7653               208.6829
 Red. masses --      1.6631                 2.2557                 2.3397
 Frc consts  --      0.0237                 0.0479                 0.0600
 IR Inten    --      0.2472                 0.6940                 0.4187

                     10                     11                     12
                      A                      A                      A
 Frequencies --    242.0773               245.1112               270.8790
 Red. masses --      3.8432                 1.5557                 2.1096
 Frc consts  --      0.1327                 0.0551                 0.0912
 IR Inten    --      1.0211                 1.5546                 0.5832

                     13                     14                     15
                      A                      A                      A
 Frequencies --    282.9516               288.2045               301.2551
 Red. masses --      2.1065                 2.2741                 2.4692
 Frc consts  --      0.0994                 0.1113                 0.1320
 IR Inten    --      0.7604                 1.1854                 0.8968

                     16                     17                     18
                      A                      A                      A
 Frequencies --    312.3458               384.7693               397.0950
 Red. masses --      2.6549                 2.1453                 2.7494
 Frc consts  --      0.1526                 0.1871                 0.2554
 IR Inten    --      0.1666                 0.1055                 0.0040

                     19                     20                     21
                      A                      A                      A
 Frequencies --    420.6777               436.1943               461.8742
 Red. masses --      2.0688                 2.6015                 3.0700
 Frc consts  --      0.2157                 0.2916                 0.3859
 IR Inten    --      0.1380                 0.9801                 2.5008

                     22                     23                     24
                      A                      A                      A
 Frequencies --    585.3175               619.2934               634.9344
 Red. masses --      3.5184                 3.1491                 3.8348
 Frc consts  --      0.7102                 0.7116                 0.9108
 IR Inten    --      1.0932                17.7478                 1.0076

                     25                     26                     27
                      A                      A                      A
 Frequencies --    678.1202               716.4014               735.6488
 Red. masses --      4.4019                 1.2488                 2.0231
 Frc consts  --      1.1926                 0.3776                 0.6451
 IR Inten    --     13.6640                17.9523                39.1744

                     28                     29                     30
                      A                      A                      A
 Frequencies --    743.3022               791.6889               806.8576
 Red. masses --      2.8525                 3.0330                 1.2839
 Frc consts  --      0.9286                 1.1200                 0.4925
 IR Inten    --     10.3046                 2.3168                21.8364

                     31                     32                     33
                      A                      A                      A
 Frequencies --    820.9520               837.0093               846.1681
 Red. masses --      1.4150                 2.1240                 1.7794
 Frc consts  --      0.5619                 0.8767                 0.7506
 IR Inten    --     13.0401                 1.6481                 2.4462

                     34                     35                     36
                      A                      A                      A
 Frequencies --    849.4003               865.9957               908.9594
 Red. masses --      1.4284                 1.8148                 1.5776
 Frc consts  --      0.6072                 0.8019                 0.7679
 IR Inten    --      2.6791                 8.8938                 8.4250

                     37                     38                     39
                      A                      A                      A
 Frequencies --    925.0437               933.2604               945.1910
 Red. masses --      6.0486                 1.9344                 2.1292
 Frc consts  --      3.0495                 0.9927                 1.1208
 IR Inten    --     11.2265                 3.6856                 1.7631

                     40                     41                     42
                      A                      A                      A
 Frequencies --    968.0617               995.2656              1022.0101
 Red. masses --      1.7868                 2.6012                 1.9322
 Frc consts  --      0.9866                 1.5181                 1.1891
 IR Inten    --      3.2584                 1.9596                 1.0073

                     43                     44                     45
                      A                      A                      A
 Frequencies --   1051.4464              1062.0149              1064.2400
 Red. masses --      2.3260                 2.3937                 1.4657
 Frc consts  --      1.5151                 1.5906                 0.9781
 IR Inten    --     13.2860                17.5929                 1.0378

                     46                     47                     48
                      A                      A                      A
 Frequencies --   1092.3381              1096.1849              1114.8635
 Red. masses --      2.0288                 1.6981                 1.8441
 Frc consts  --      1.4263                 1.2022                 1.3505
 IR Inten    --      1.9823                 9.4441                11.2006

                     49                     50                     51
                      A                      A                      A
 Frequencies --   1122.0253              1145.2479              1158.7680
 Red. masses --      1.5604                 1.5468                 2.1241
 Frc consts  --      1.1574                 1.1953                 1.6804
 IR Inten    --     21.3443                 4.2544                 7.7573

                     52                     53                     54
                      A                      A                      A
 Frequencies --   1164.9782              1172.0116              1194.4915
 Red. masses --      1.7675                 1.3500                 2.4061
 Frc consts  --      1.4133                 1.0926                 2.0227
 IR Inten    --      5.4667                12.1783                29.4003

                     55                     56                     57
                      A                      A                      A
 Frequencies --   1204.8358              1247.8244              1269.4211
 Red. masses --      1.9282                 2.1594                 2.4090
 Frc consts  --      1.6491                 1.9810                 2.2872
 IR Inten    --      2.6226                 7.1582                71.2250

                     58                     59                     60
                      A                      A                      A
 Frequencies --   1290.8170              1308.9743              1311.5557
 Red. masses --      1.6209                 1.3194                 1.2454
 Frc consts  --      1.5912                 1.3320                 1.2622
 IR Inten    --      5.4863                 5.9179                 3.6267

                     61                     62                     63
                      A                      A                      A
 Frequencies --   1317.1675              1327.3445              1336.4894
 Red. masses --      1.3305                 1.3710                 1.5834
 Frc consts  --      1.3600                 1.4232                 1.6664
 IR Inten    --     13.7041                16.0018                 1.5277

                     64                     65                     66
                      A                      A                      A
 Frequencies --   1359.6928              1385.8520              1395.0413
 Red. masses --      1.9939                 1.5044                 4.3370
 Frc consts  --      2.1719                 1.7024                 4.9730
 IR Inten    --      6.7814                 6.6317                 1.0404

                     67                     68                     69
                      A                      A                      A
 Frequencies --   1396.4818              1398.6051              1405.7474
 Red. masses --      1.3800                 1.3265                 1.5230
 Frc consts  --      1.5856                 1.5288                 1.7733
 IR Inten    --      5.3069                 5.2765                 2.3684

                     70                     71                     72
                      A                      A                      A
 Frequencies --   1407.6134              1420.4406              1430.1865
 Red. masses --      1.3377                 1.3537                 1.2973
 Frc consts  --      1.5617                 1.6092                 1.5634
 IR Inten    --      1.6959                 0.6693                19.7852

                     73                     74                     75
                      A                      A                      A
 Frequencies --   1432.9054              1442.4534              1447.3855
 Red. masses --      1.4500                 1.2928                 1.3317
 Frc consts  --      1.7541                 1.5848                 1.6437
 IR Inten    --     20.6144                 8.0693                 3.3385

                     76                     77                     78
                      A                      A                      A
 Frequencies --   1455.4061              1505.4562              1513.3953
 Red. masses --      1.3199                 1.1148                 1.0796
 Frc consts  --      1.6472                 1.4887                 1.4569
 IR Inten    --     15.5678                 4.8116                11.4611

                     79                     80                     81
                      A                      A                      A
 Frequencies --   1517.3098              1520.6423              1526.9059
 Red. masses --      1.0628                 1.0573                 1.0467
 Frc consts  --      1.4416                 1.4404                 1.4378
 IR Inten    --      6.4343                 9.7679                 2.2143

                     82                     83                     84
                      A                      A                      A
 Frequencies --   1532.1608              1537.6711              1541.9111
 Red. masses --      1.0717                 2.4367                 1.0871
 Frc consts  --      1.4823                 3.3945                 1.5227
 IR Inten    --      7.0195                35.7935                 0.5236

                     85                     86                     87
                      A                      A                      A
 Frequencies --   1543.7961              1553.8632              1556.4286
 Red. masses --      1.2010                 1.2272                 2.9849
 Frc consts  --      1.6864                 1.7458                 4.2602
 IR Inten    --     10.6682                 6.3601                 8.3396

                     88                     89                     90
                      A                      A                      A
 Frequencies --   1569.9799              2923.2452              2955.8151
 Red. masses --      1.0568                 1.0810                 1.0746
 Frc consts  --      1.5348                 5.4426                 5.5314
 IR Inten    --     11.4944                66.7850                79.0012

                     91                     92                     93
                      A                      A                      A
 Frequencies --   3008.0204              3010.3581              3019.5329
 Red. masses --      1.0819                 1.0793                 1.0813
 Frc consts  --      5.7677                 5.7627                 5.8084
 IR Inten    --     31.5007                 1.5857                16.6017

                     94                     95                     96
                      A                      A                      A
 Frequencies --   3031.8673              3038.8231              3043.1042
 Red. masses --      1.0666                 1.0640                 1.0402
 Frc consts  --      5.7766                 5.7892                 5.6755
 IR Inten    --     57.8586                68.9717                24.1854

                     97                     98                     99
                      A                      A                      A
 Frequencies --   3048.4586              3064.7118              3069.1534
 Red. masses --      1.0485                 1.0521                 1.1013
 Frc consts  --      5.7409                 5.8222                 6.1120
 IR Inten    --     56.0199                19.5497                38.3759

                    100                    101                    102
                      A                      A                      A
 Frequencies --   3075.9149              3100.5444              3102.5526
 Red. masses --      1.0955                 1.1006                 1.0922
 Frc consts  --      6.1067                 6.2340                 6.1945
 IR Inten    --     48.8157                40.5099                10.2982

                    103                    104                    105
                      A                      A                      A
 Frequencies --   3126.1197              3132.3600              3132.4477
 Red. masses --      1.0913                 1.1022                 1.0950
 Frc consts  --      6.2838                 6.3717                 6.3302
 IR Inten    --     29.8758                41.6615                21.4379

                    106                    107                    108
                      A                      A                      A
 Frequencies --   3173.0732              3205.8012              3257.1397
 Red. masses --      1.0960                 1.0936                 1.0935
 Frc consts  --      6.5015                 6.6219                 6.8351
 IR Inten    --     13.6671                 4.5293                11.2637

                    109                    110                    111
                      A                      A                      A
 Frequencies --   3301.4231              3305.3456              3476.7643
 Red. masses --      1.0962                 1.0999                 1.0738
 Frc consts  --      7.0398                 7.0798                 7.6477
 IR Inten    --      3.6899                 0.0403                 1.3853

 - Thermochemistry -
 -------------------
 Temperature   298.150 Kelvin.  Pressure   1.00000 Atm.
 Atom     1 has atomic number  6 and mass  12.00000

 Molecular mass:   221.18920 amu.
 Principal axes and moments of inertia in atomic units:
                           1         2         3
     Eigenvalues --  2355.757444316.371365209.93577
           X            0.99974  -0.02198   0.00601
           Y            0.02194   0.99974   0.00586
           Z           -0.00614  -0.00572   0.99996
 This molecule is an asymmetric top.
 Rotational symmetry number  1.
 Warning -- assumption of classical behavior for rotation
           may cause significant error
 Rotational temperatures (Kelvin)      0.03677     0.02007     0.01662
 Rotational constants (GHZ):           0.76610     0.41812     0.34640
 Zero-point vibrational energy     932044.5 (Joules/Mol)
                                  222.76398 (Kcal/Mol)
 Warning -- explicit consideration of  23 degrees of freedom as
           vibrations may cause significant error
 Vibrational temperatures:     77.49    88.67   118.57   140.63   170.99
          (Kelvin)            190.07   223.53   273.03   300.25   348.30
                              352.66   389.73   407.10   414.66   433.44
                              449.40   553.60   571.33   605.26   627.59
                              664.53   842.14   891.03   913.53   975.66
                             1030.74  1058.43  1069.45  1139.06  1160.89
                             1181.17  1204.27  1217.45  1222.10  1245.97
                             1307.79  1330.93  1342.75  1359.92  1392.82
                             1431.97  1470.44  1512.80  1528.00  1531.20
                             1571.63  1577.17  1604.04  1614.34  1647.76
                             1667.21  1676.14  1686.26  1718.61  1733.49
                             1795.34  1826.41  1857.20  1883.32  1887.04
                             1895.11  1909.75  1922.91  1956.29  1993.93
                             2007.15  2009.23  2012.28  2022.56  2025.24
                             2043.70  2057.72  2061.63  2075.37  2082.46
                             2094.00  2166.02  2177.44  2183.07  2187.87
                             2196.88  2204.44  2212.37  2218.47  2221.18
                             2235.66  2239.35  2258.85  4205.90  4252.76
                             4327.87  4331.23  4344.43  4362.18  4372.19
                             4378.35  4386.05  4409.44  4415.83  4425.56
                             4460.99  4463.88  4497.79  4506.77  4506.89
                             4565.34  4612.43  4686.30  4750.01  4755.66
                             5002.29

 Zero-point correction=                           0.354997 (Hartree/Particle)
 Thermal correction to Energy=                    0.370924
 Thermal correction to Enthalpy=                  0.371869
 Thermal correction to Gibbs Free Energy=         0.312499
 Sum of electronic and zero-point Energies=           -673.195118
 Sum of electronic and thermal Energies=              -673.179191
 Sum of electronic and thermal Enthalpies=            -673.178247
 Sum of electronic and thermal Free Energies=         -673.237616

                     E (Thermal)             CV                S
                      KCal/Mol        Cal/Mol-Kelvin    Cal/Mol-Kelvin
 Total                  232.759             62.479            124.954
 Electronic               0.000              0.000              0.000
 Translational            0.889              2.981             42.084
 Rotational               0.889              2.981             32.338
 Vibrational            230.981             56.518             50.531
 Vibration     1          0.596              1.976              4.670
 Vibration     2          0.597              1.973              4.404
 Vibration     3          0.600              1.961              3.833
 Vibration     4          0.603              1.951              3.499
 Vibration     5          0.609              1.934              3.119
 Vibration     6          0.612              1.921              2.915
 Vibration     7          0.620              1.897              2.606
 Vibration     8          0.633              1.854              2.230
 Vibration     9          0.642              1.827              2.055
 Vibration    10          0.658              1.776              1.788
 Vibration    11          0.660              1.771              1.765
 Vibration    12          0.675              1.727              1.591
 Vibration    13          0.682              1.705              1.516
 Vibration    14          0.685              1.696              1.484
 Vibration    15          0.693              1.671              1.410
 Vibration    16          0.701              1.650              1.350
 Vibration    17          0.754              1.503              1.020
 Vibration    18          0.764              1.476              0.973
 Vibration    19          0.783              1.425              0.890
 Vibration    20          0.797              1.391              0.839
 Vibration    21          0.820              1.335              0.761
 Vibration    22          0.942              1.063              0.476
 Vibration    23          0.979              0.991              0.418

 Optimization completed.
    -- Stationary point found.
 Normal termination of Gaussian 16 at Fri Dec 11 01:30:50 2020.

 ----------------------------------------------------------------------
 # B3LYP/6-311++G(d,p) empiricaldispersion=gd3bj scf=xqc pop=npa geom=c
 heck
 ----------------------------------------------------------------------

 --------------------------------------
 CID_64752363_JID_6928_Energie_neutraal
 --------------------------------------
 Structure from the checkpoint file:  "JID_6928.chk"
 Charge =  0 Multiplicity = 1

 SCF Done:  E(RB3LYP) =  -673.733919179     A.U. after   14 cycles
 Normal termination of Gaussian 16 at Fri Dec 11 01:37:47 2020.

 ----------------------------------------------------------------------
 # B3LYP/6-311++G(d,p) empiricaldispersion=gd3bj scf=xqc pop=npa geom=c
 heck
 ----------------------------------------------------------------------

 ------------------------------------
 CID_64752363_JID_6928_Energie_kation
 ------------------------------------
 Structure from the checkpoint file:  "JID_6928.chk"
 Charge =  1 Multiplicity = 2

 SCF Done:  E(UB3LYP) =  -673.442832056     A.U. after   21 cycles
 Normal termination of Gaussian 16 at Fri Dec 11 01:51:58 2020.
 Gaussian 16:  ES64L-G16RevA.03 25-Dec-2016

 ----------------------------------------------------------------------
 # B3LYP/6-311++G(d,p) empiricaldispersion=gd3bj scf=xqc pop=npa geom=c
 heck
 ----------------------------------------------------------------------

 -----------------------------------
 CID_64752363_JID_6928_Energie_anion
 -----------------------------------
 Structure from the checkpoint file:  "JID_6928.chk"
 Charge = -1 Multiplicity = 2

                         Standard orientation:
 ---------------------------------------------------------------------
 Center     Atomic      Atomic             Coordinates (Angstroms)
 Number     Number       Type             X           Y           Z
 ---------------------------------------------------------------------
      1          6           0       -0.226243    3.513221    0.830574
      2          6           0       -0.557648    2.232184    0.072890
      3          7           0        0.672694    1.495049   -0.223381
      4          6           0        0.553606    0.347366   -1.122198
      5          6           0        1.949317   -0.098639   -1.601012
      6          6           0        2.830531   -0.768397   -0.525100
      7          6           0        2.035456   -1.867671    0.213648
      8          6           0        0.622116   -1.478867    0.707416
      9          6           0       -0.138232   -0.892989   -0.502906
     10          7           0       -1.579406   -0.703389   -0.265509
     11          6           0       -2.473999   -0.170678   -1.180083
     12          6           0       -3.715914   -0.292596   -0.610313
     13          7           0       -3.624931   -0.901611    0.620902
     14          6           0       -2.340197   -1.143597    0.788998
     15          6           0        0.645842   -0.629075    1.989208
     16          6           0        3.529690    0.240335    0.398940
     17          1           0        0.307687    3.284111    1.758885
     18          1           0       -1.139322    4.062547    1.081289
     19          1           0        0.408820    4.177708    0.229979
     20          1           0       -1.205678    1.601181    0.686004
     21          1           0       -1.130552    2.471023   -0.841900
     22          1           0        1.337802    2.143111   -0.642528
     23          1           0       -0.022732    0.618551   -2.027351
     24          1           0        1.798705   -0.806809   -2.426123
     25          1           0        2.474262    0.763921   -2.033563
     26          1           0        3.633188   -1.289731   -1.065667
     27          1           0        2.622075   -2.239629    1.062494
     28          1           0        1.921403   -2.715948   -0.475719
     29          1           0        0.122146   -2.425825    0.954768
     30          1           0       -0.073916   -1.658831   -1.289229
     31          1           0       -2.150992    0.237434   -2.123954
     32          1           0       -4.668364    0.022332   -1.015174
     33          1           0       -1.914184   -1.641779    1.644646
     34          1           0       -0.357751   -0.458294    2.386656
     35          1           0        1.221711   -1.154825    2.759715
     36          1           0        1.091776    0.346987    1.813857
     37          1           0        4.134087   -0.279746    1.151379
     38          1           0        4.205137    0.878656   -0.184543
     39          1           0        2.820252    0.889930    0.911618
 ---------------------------------------------------------------------

 SCF Done:  E(UB3LYP) =  -673.725908501     A.U. after   30 cycles

 The electronic state is 2-A.
 Alpha  occ. eigenvalues --  -14.27441 -14.19929 -14.19916 -10.12570 -10.12353
 Alpha  occ. eigenvalues --  -10.10720 -10.09992 -10.09494 -10.08920 -10.08662
 Alpha  occ. eigenvalues --  -10.07247 -10.07043 -10.06659 -10.06558 -10.05769
 Alpha  occ. eigenvalues --  -10.05143  -0.92191  -0.82086  -0.78897  -0.73287
 Alpha  occ. eigenvalues --   -0.67938  -0.66758  -0.64545  -0.62741  -0.59041
 Alpha  occ. eigenvalues --   -0.58482  -0.52461  -0.51894  -0.50487  -0.48663
 Alpha  occ. eigenvalues --   -0.47568  -0.44793  -0.42780  -0.40004  -0.37919
 Alpha  occ. eigenvalues --   -0.36696  -0.35826  -0.35267  -0.34717  -0.34208
 Alpha  occ. eigenvalues --   -0.32866  -0.32410  -0.31552  -0.31322  -0.31097
 Alpha  occ. eigenvalues --   -0.30602  -0.28926  -0.28099  -0.27408  -0.26522
 Alpha  occ. eigenvalues --   -0.25504  -0.25250  -0.24767  -0.24322  -0.22140
 Alpha  occ. eigenvalues --   -0.20713  -0.20481  -0.18047  -0.17420  -0.14083
 Alpha  occ. eigenvalues --   -0.12920   0.03993
 Alpha virt. eigenvalues --    0.06401   0.07056   0.07319   0.08407   0.08602
 Alpha virt. eigenvalues --    0.09207   0.09303   0.09546   0.10593   0.10967
 Alpha virt. eigenvalues --    0.11230   0.11620   0.11883   0.12061   0.12672

  Beta  occ. eigenvalues --  -14.27436 -14.19930 -14.19894 -10.12560 -10.12341
  Beta  occ. eigenvalues --  -10.10708 -10.09979 -10.09485 -10.08917 -10.08655
  Beta  occ. eigenvalues --  -10.07239 -10.07025 -10.06632 -10.06520 -10.05759
  Beta  occ. eigenvalues --  -10.05123  -0.92182  -0.82058  -0.78883  -0.73253
  Beta  occ. eigenvalues --   -0.67906  -0.66726  -0.64526  -0.62703  -0.58998
  Beta  occ. eigenvalues --   -0.58439  -0.52415  -0.51855  -0.50449  -0.48627
  Beta  occ. eigenvalues --   -0.47539  -0.44744  -0.42743  -0.39956  -0.37869
  Beta  occ. eigenvalues --   -0.36658  -0.35792  -0.35243  -0.34691  -0.34173
  Beta  occ. eigenvalues --   -0.32843  -0.32379  -0.31524  -0.31294  -0.31062
  Beta  occ. eigenvalues --   -0.30577  -0.28903  -0.28073  -0.27373  -0.26490
  Beta  occ. eigenvalues --   -0.25474  -0.25218  -0.24735  -0.24288  -0.22097
  Beta  occ. eigenvalues --   -0.20675  -0.20438  -0.18041  -0.17396  -0.14057
  Beta  occ. eigenvalues --   -0.12876
  Beta virt. eigenvalues --    0.06293   0.07031   0.07562   0.07877   0.08627
  Beta virt. eigenvalues --    0.09169   0.09414   0.09766   0.09883   0.10828
  Beta virt. eigenvalues --    0.11243   0.11560   0.11963   0.12217   0.12242

 Mulliken charges and spin densities:
               1          2
     1  C   -0.065903  -0.634825
     2  C   -0.201303   0.052558
     3  N   -0.169705   0.064405
     4  C    0.590006  -0.052595
     5  C    0.454728  -1.680393
     6  C   -0.888533   1.370486
     7  C    1.040965  -1.966024
     8  C   -0.495101   0.625174
     9  C   -0.121883  -0.041064
    10  N    0.064580  -0.004079
    11  C    0.374009  -0.148130
    12  C   -0.207737  -0.191701
    13  N   -0.123729   0.004833
    14  C   -0.102200  -0.120250
    15  C   -0.373058  -0.268368
    16  C    0.676354  -1.351188
    17  H    0.061878   0.080757
    18  H    0.056292   0.079031
    19  H   -0.265187   0.406649
    20  H    0.291212  -0.086358
    21  H   -0.056015   0.201451
    22  H    0.357743  -0.113898
    23  H   -0.144975   0.369439
    24  H   -0.229396   0.379926
    25  H   -0.717879   0.905383
    26  H   -0.365718   0.581935
    27  H   -0.117021   0.284674
    28  H   -0.346270   0.497659
    29  H    0.100258   0.103073
    30  H   -0.133943   0.437475
    31  H   -0.249087   0.367433
    32  H    0.091775   0.050131
    33  H    0.064204   0.105977
    34  H    0.066078   0.031949
    35  H   -0.005578   0.146476
    36  H    0.245876  -0.062653
    37  H    0.003136   0.122419
    38  H   -0.170011   0.306710
    39  H    0.011140   0.145522
 Sum of Mulliken charges =  -1.00000   1.00000

 Dipole moment (field-independent basis, Debye):
    X=             -2.9378    Y=              0.9861    Z=              3.7890  Tot=              4.8949
 Quadrupole moment (field-independent basis, Debye-Ang):
   XX=           -169.9548   YY=           -150.8324   ZZ=           -143.0899
   XY=             -2.5061   XZ=             12.2933   YZ=              0.9160

 Summary of Natural Population Analysis:

                                       Natural Population
                Natural  -----------------------------------------------
    Atom  No    Charge         Core      Valence    Rydberg      Total
 -----------------------------------------------------------------------
      C    1   -0.28680      0.99966     2.28205    0.00508     3.28680
      C    2   -0.08579      0.99963     2.07691    0.00924     3.08579
      N    3   -0.34921      0.99972     2.83673    0.01276     3.84921
      C    4   -0.00898      0.99956     1.99346    0.01597     3.00898
      C    5   -0.18682      0.99959     2.17610    0.01113     3.18682
      C    6   -0.11244      0.99959     2.10088    0.01197     3.11244
      C    7   -0.18190      0.99960     2.17185    0.01045     3.18190
      C    8   -0.11467      0.99958     2.10394    0.01115     3.11467
      C    9    0.00037      0.99951     1.98554    0.01458     2.99963
      N   10   -0.20719      0.99964     2.69625    0.01130     3.70719
      C   11   -0.03518      0.99955     2.02417    0.01147     3.03518
      C   12   -0.03833      0.99958     2.02576    0.01299     3.03833
      N   13   -0.26062      0.99973     2.75026    0.01062     3.76062
      C   14    0.10299      0.99963     1.88153    0.01585     2.89701
      C   15   -0.29236      0.99963     2.28684    0.00589     3.29236
      C   16   -0.28628      0.99964     2.28045    0.00620     3.28628
      H   17    0.09857      0.00000     0.40046    0.00097     0.40143
      H   18    0.09846      0.00000     0.40095    0.00059     0.40154
      H   19    0.09648      0.00000     0.40251    0.00101     0.40352
      H   20    0.09324      0.00000     0.40450    0.00226     0.40676
      H   21    0.08024      0.00000     0.41821    0.00155     0.41976
      H   22    0.17517      0.00000     0.32151    0.00332     0.32483
      H   23    0.08658      0.00000     0.41030    0.00312     0.41342
      H   24    0.10599      0.00000     0.39158    0.00243     0.39401
      H   25    0.10315      0.00000     0.39469    0.00216     0.39685
      H   26    0.09877      0.00000     0.39919    0.00204     0.40123
      H   27    0.09991      0.00000     0.39904    0.00104     0.40009
      H   28    0.10220      0.00000     0.39618    0.00162     0.39780
      H   29    0.09804      0.00000     0.40010    0.00186     0.40196
      H   30    0.10582      0.00000     0.39232    0.00185     0.39418
      H   31    0.10771      0.00000     0.39088    0.00141     0.39229
      H   32    0.09464      0.00000     0.40445    0.00091     0.40536
      H   33    0.09554      0.00000     0.40270    0.00176     0.40446
      H   34    0.09599      0.00000     0.40295    0.00106     0.40401
      H   35    0.09669      0.00000     0.40259    0.00072     0.40331
      H   36    0.11349      0.00000     0.38524    0.00127     0.38651
      H   37    0.09493      0.00000     0.40418    0.00089     0.40507
      H   38    0.09807      0.00000     0.40094    0.00099     0.40193
      H   39    0.10350      0.00000     0.39498    0.00152     0.39650
 =======================================================================
   * Total *    0.00000     15.99383    44.79316    0.21301    61.00000

 Normal termination of Gaussian 16 at Fri Dec 11 02:11:27 2020.
