 Gaussian 16, Revision A.03,

 -----------------------------------------------------------
 # opt freq B3LYP/6-31G(d) empiricaldispersion=gd3bj scf=xqc
 -----------------------------------------------------------

 ------------------------------
 CID_21091636_JID_7060_neutraal
 ------------------------------
 Symbolic Z-matrix:
 Charge =  0 Multiplicity = 1

 SCF Done:  E(RB3LYP) =  -746.602170285     A.U. after   14 cycles
 SCF Done:  E(RB3LYP) =  -746.605222753     A.U. after   12 cycles
 SCF Done:  E(RB3LYP) =  -746.605521111     A.U. after   12 cycles
 SCF Done:  E(RB3LYP) =  -746.605284525     A.U. after   12 cycles
 SCF Done:  E(RB3LYP) =  -746.605845931     A.U. after   11 cycles
 SCF Done:  E(RB3LYP) =  -746.605866914     A.U. after   10 cycles
 SCF Done:  E(RB3LYP) =  -746.605875441     A.U. after   10 cycles
 SCF Done:  E(RB3LYP) =  -746.605883386     A.U. after   10 cycles
 SCF Done:  E(RB3LYP) =  -746.605889669     A.U. after   10 cycles
 SCF Done:  E(RB3LYP) =  -746.605893122     A.U. after   10 cycles
 SCF Done:  E(RB3LYP) =  -746.606080399     A.U. after   10 cycles
 SCF Done:  E(RB3LYP) =  -746.606102225     A.U. after   11 cycles
 SCF Done:  E(RB3LYP) =  -746.606106782     A.U. after   10 cycles
 SCF Done:  E(RB3LYP) =  -746.606111434     A.U. after   10 cycles
 SCF Done:  E(RB3LYP) =  -746.606111641     A.U. after    9 cycles
 SCF Done:  E(RB3LYP) =  -746.606111659     A.U. after    6 cycles
 Optimization completed.
    -- Stationary point found.
 Normal termination of Gaussian 16 at Fri Dec 11 12:03:11 2020.

 --------------------------------------------------------------------
 #N Geom=AllCheck Guess=TCheck SCRF=Check GenChk RB3LYP/6-31G(d) Freq
 --------------------------------------------------------------------

 Structure from the checkpoint file:  "JID_7060.chk"
 ------------------------------
 CID_21091636_JID_7060_neutraal
 ------------------------------
 Charge =  0 Multiplicity = 1

 SCF Done:  E(RB3LYP) =  -746.606111659     A.U. after    1 cycles

  Exact polarizability: 258.330   2.757 142.332  -8.332   7.742  85.139
 Approx polarizability: 335.964   3.557 264.856 -16.650  22.131 135.534

                      1                      2                      3
                      A                      A                      A
 Frequencies --     22.7281                30.2692                43.4970
 Red. masses --      4.9683                 7.6863                 5.0379
 Frc consts  --      0.0015                 0.0041                 0.0056
 IR Inten    --      0.5003                 1.8072                 0.5565

                      4                      5                      6
                      A                      A                      A
 Frequencies --     51.3591                69.4938                73.8597
 Red. masses --      1.1454                 4.0246                 3.7344
 Frc consts  --      0.0018                 0.0115                 0.0120
 IR Inten    --      0.3418                 0.3589                 0.8271

                      7                      8                      9
                      A                      A                      A
 Frequencies --    114.2741               157.4583               231.4430
 Red. masses --      5.7125                 4.4011                 5.2859
 Frc consts  --      0.0440                 0.0643                 0.1668
 IR Inten    --      1.0545                 0.3104                 0.1248

                     10                     11                     12
                      A                      A                      A
 Frequencies --    281.1309               289.2319               347.9449
 Red. masses --      5.0612                 4.5066                 3.3365
 Frc consts  --      0.2357                 0.2221                 0.2380
 IR Inten    --      0.1522                 0.9634                 0.8851

                     13                     14                     15
                      A                      A                      A
 Frequencies --    381.9316               417.8682               425.5173
 Red. masses --      4.1619                 3.0422                 3.2904
 Frc consts  --      0.3577                 0.3130                 0.3510
 IR Inten    --      0.7047                 1.7113                 3.8188

                     16                     17                     18
                      A                      A                      A
 Frequencies --    426.2141               438.6892               517.5876
 Red. masses --      2.4128                 3.3947                 3.8992
 Frc consts  --      0.2582                 0.3849                 0.6155
 IR Inten    --      1.5840                 1.0337                11.1109

                     19                     20                     21
                      A                      A                      A
 Frequencies --    520.2816               568.7525               586.5277
 Red. masses --      3.2142                 2.9028                 3.7292
 Frc consts  --      0.5126                 0.5532                 0.7559
 IR Inten    --      8.9513                 0.8000                47.7053

                     22                     23                     24
                      A                      A                      A
 Frequencies --    638.3092               652.5396               665.1423
 Red. masses --      2.1747                 7.0804                 6.7429
 Frc consts  --      0.5221                 1.7763                 1.7576
 IR Inten    --     53.4889                 2.0995                 1.4022

                     25                     26                     27
                      A                      A                      A
 Frequencies --    686.7039               736.8729               752.7846
 Red. masses --      2.2587                 3.6644                 3.1617
 Frc consts  --      0.6275                 1.1723                 1.0556
 IR Inten    --     51.6347                20.2716                 5.4590

                     28                     29                     30
                      A                      A                      A
 Frequencies --    771.8411               825.3232               843.3162
 Red. masses --      4.5435                 1.7287                 3.6241
 Frc consts  --      1.5948                 0.6938                 1.5186
 IR Inten    --     35.5370                32.3290                 6.3021

                     31                     32                     33
                      A                      A                      A
 Frequencies --    856.3081               858.0581               867.8334
 Red. masses --      1.3256                 1.8545                 2.7719
 Frc consts  --      0.5727                 0.8045                 1.2300
 IR Inten    --      1.7186                 2.8970                 1.9179

                     34                     35                     36
                      A                      A                      A
 Frequencies --    911.7398               958.3497               958.4766
 Red. masses --      3.5348                 1.5196                 1.5167
 Frc consts  --      1.7313                 0.8223                 0.8210
 IR Inten    --      4.0363                 6.0929                 5.9310

                     37                     38                     39
                      A                      A                      A
 Frequencies --    966.0682               980.2546               984.9606
 Red. masses --      1.4863                 1.3510                 1.3378
 Frc consts  --      0.8173                 0.7649                 0.7647
 IR Inten    --     11.7480                 0.9463                 0.0596

                     40                     41                     42
                      A                      A                      A
 Frequencies --   1015.9346              1028.1775              1047.3575
 Red. masses --      2.2408                 2.6018                 2.8911
 Frc consts  --      1.3627                 1.6205                 1.8685
 IR Inten    --      3.1799                16.8074                 3.9643

                     43                     44                     45
                      A                      A                      A
 Frequencies --   1074.5349              1075.6738              1134.7546
 Red. masses --      1.5861                 2.5350                 1.5696
 Frc consts  --      1.0790                 1.7282                 1.1908
 IR Inten    --      5.9923                 2.2510                90.1923

                     46                     47                     48
                      A                      A                      A
 Frequencies --   1159.9811              1173.6469              1222.4095
 Red. masses --      1.3656                 1.2586                 1.3601
 Frc consts  --      1.0826                 1.0215                 1.1975
 IR Inten    --     68.9461                 4.5323                 1.9704

                     49                     50                     51
                      A                      A                      A
 Frequencies --   1231.8783              1249.8993              1266.1753
 Red. masses --      1.9783                 1.4871                 3.6827
 Frc consts  --      1.7688                 1.3688                 3.4786
 IR Inten    --      5.6000               118.3876                 7.1302

                     52                     53                     54
                      A                      A                      A
 Frequencies --   1303.9243              1321.5588              1328.9810
 Red. masses --      3.8821                 1.5692                 2.9270
 Frc consts  --      3.8888                 1.6147                 3.0458
 IR Inten    --     11.2357                 1.1490                 1.8083

                     55                     56                     57
                      A                      A                      A
 Frequencies --   1339.5512              1347.7861              1361.5098
 Red. masses --      3.1831                 1.4291                 1.7639
 Frc consts  --      3.3652                 1.5296                 1.9265
 IR Inten    --      1.5162                 7.6707                 9.0581

                     58                     59                     60
                      A                      A                      A
 Frequencies --   1401.6616              1418.1018              1439.0025
 Red. masses --      2.3663                 2.9981                 1.2733
 Frc consts  --      2.7391                 3.5523                 1.5535
 IR Inten    --     84.9617                17.6771                 0.0604

                     61                     62                     63
                      A                      A                      A
 Frequencies --   1468.5877              1505.0426              1506.1014
 Red. masses --      2.6825                 1.1062                 1.0453
 Frc consts  --      3.4087                 1.4763                 1.3970
 IR Inten    --     18.8463                 7.4649                 5.3350

                     64                     65                     66
                      A                      A                      A
 Frequencies --   1516.6416              1533.6865              1568.9525
 Red. masses --      1.1600                 2.3315                 2.6921
 Frc consts  --      1.5720                 3.2312                 3.9044
 IR Inten    --     16.4606                71.9539                 5.1939

                     67                     68                     69
                      A                      A                      A
 Frequencies --   1610.5858              1631.5063              1657.0321
 Red. masses --      4.8378                 6.4483                 5.9446
 Frc consts  --      7.3938                10.1128                 9.6168
 IR Inten    --      8.9210                 4.7313                31.5648

                     70                     71                     72
                      A                      A                      A
 Frequencies --   1674.5048              1845.3904              3055.9738
 Red. masses --      5.7744                 9.5612                 1.0359
 Frc consts  --      9.5396                19.1840                 5.7001
 IR Inten    --      1.0912               259.4640                24.7420

                     73                     74                     75
                      A                      A                      A
 Frequencies --   3084.1763              3115.1309              3137.3650
 Red. masses --      1.0596                 1.1008                 1.1031
 Frc consts  --      5.9387                 6.2937                 6.3972
 IR Inten    --     13.0204                12.8811                17.9930

                     76                     77                     78
                      A                      A                      A
 Frequencies --   3140.1763              3168.5445              3184.4021
 Red. masses --      1.1054                 1.0898                 1.0873
 Frc consts  --      6.4223                 6.4466                 6.4964
 IR Inten    --      6.2736                22.6922                19.7782

                     79                     80                     81
                      A                      A                      A
 Frequencies --   3190.6686              3195.9794              3202.7805
 Red. masses --      1.0878                 1.0874                 1.0939
 Frc consts  --      6.5249                 6.5440                 6.6111
 IR Inten    --      7.8117                 5.3952                10.2267

                     82                     83                     84
                      A                      A                      A
 Frequencies --   3208.0131              3211.5976              3680.6459
 Red. masses --      1.0948                 1.0946                 1.0639
 Frc consts  --      6.6383                 6.6522                 8.4915
 IR Inten    --     24.1786                 3.2194                48.9307

 - Thermochemistry -
 -------------------
 Temperature   298.150 Kelvin.  Pressure   1.00000 Atm.
 Atom     1 has atomic number  6 and mass  12.00000

 Molecular mass:   227.09463 amu.
 Principal axes and moments of inertia in atomic units:
                           1         2         3
     Eigenvalues --  1072.38223********************
           X            0.99999   0.00287  -0.00199
           Y           -0.00286   0.99997   0.00689
           Z            0.00201  -0.00689   0.99997
 This molecule is an asymmetric top.
 Rotational symmetry number  1.
 Warning -- assumption of classical behavior for rotation
           may cause significant error
 Rotational temperatures (Kelvin)      0.08077     0.00822     0.00785
 Rotational constants (GHZ):           1.68293     0.17129     0.16350
 Zero-point vibrational energy     633703.4 (Joules/Mol)
                                  151.45874 (Kcal/Mol)
 Warning -- explicit consideration of  21 degrees of freedom as
           vibrations may cause significant error
 Vibrational temperatures:     32.70    43.55    62.58    73.89    99.99
          (Kelvin)            106.27   164.42   226.55   332.99   404.48
                              416.14   500.62   549.51   601.22   612.22
                              613.23   631.18   744.69   748.57   818.31
                              843.88   918.38   938.86   956.99   988.01
                             1060.20  1083.09  1110.51  1187.46  1213.34
                             1232.04  1234.55  1248.62  1311.79  1378.85
                             1379.03  1389.96  1410.37  1417.14  1461.70
                             1479.32  1506.91  1546.02  1547.65  1632.66
                             1668.95  1688.62  1758.77  1772.40  1798.33
                             1821.74  1876.06  1901.43  1912.11  1927.32
                             1939.16  1958.91  2016.68  2040.33  2070.40
                             2112.97  2165.42  2166.94  2182.11  2206.63
                             2257.37  2317.27  2347.37  2384.10  2409.24
                             2655.11  4396.86  4437.44  4481.98  4513.97
                             4518.01  4558.83  4581.64  4590.66  4598.30
                             4608.09  4615.62  4620.77  5295.63

 Zero-point correction=                           0.241365 (Hartree/Particle)
 Thermal correction to Energy=                    0.256323
 Thermal correction to Enthalpy=                  0.257267
 Thermal correction to Gibbs Free Energy=         0.196070
 Sum of electronic and zero-point Energies=           -746.364747
 Sum of electronic and thermal Energies=              -746.349789
 Sum of electronic and thermal Enthalpies=            -746.348844
 Sum of electronic and thermal Free Energies=         -746.410042

                     E (Thermal)             CV                S
                      KCal/Mol        Cal/Mol-Kelvin    Cal/Mol-Kelvin
 Total                  160.845             56.162            128.801
 Electronic               0.000              0.000              0.000
 Translational            0.889              2.981             42.163
 Rotational               0.889              2.981             33.189
 Vibrational            159.068             50.201             53.450
 Vibration     1          0.593              1.985              6.380
 Vibration     2          0.594              1.984              5.812
 Vibration     3          0.595              1.980              5.093
 Vibration     4          0.596              1.977              4.764
 Vibration     5          0.598              1.969              4.168
 Vibration     6          0.599              1.966              4.048
 Vibration     7          0.607              1.938              3.195
 Vibration     8          0.621              1.894              2.580
 Vibration     9          0.653              1.793              1.868
 Vibration    10          0.681              1.709              1.527
 Vibration    11          0.686              1.694              1.478
 Vibration    12          0.726              1.579              1.175
 Vibration    13          0.751              1.509              1.032
 Vibration    14          0.781              1.431              0.899
 Vibration    15          0.787              1.415              0.873
 Vibration    16          0.788              1.413              0.871
 Vibration    17          0.799              1.386              0.831
 Vibration    18          0.873              1.211              0.616
 Vibration    19          0.875              1.205              0.609
 Vibration    20          0.925              1.099              0.507
 Vibration    21          0.944              1.061              0.473

 Optimization completed.
    -- Stationary point found.
 Normal termination of Gaussian 16 at Fri Dec 11 12:13:05 2020.

 ----------------------------------------------------------------------
 # B3LYP/6-311++G(d,p) empiricaldispersion=gd3bj scf=xqc pop=npa geom=c
 heck
 ----------------------------------------------------------------------

 --------------------------------------
 CID_21091636_JID_7060_Energie_neutraal
 --------------------------------------
 Structure from the checkpoint file:  "JID_7060.chk"
 Charge =  0 Multiplicity = 1

 SCF Done:  E(RB3LYP) =  -746.812254683     A.U. after   16 cycles
 Normal termination of Gaussian 16 at Fri Dec 11 12:17:01 2020.

 ----------------------------------------------------------------------
 # B3LYP/6-311++G(d,p) empiricaldispersion=gd3bj scf=xqc pop=npa geom=c
 heck
 ----------------------------------------------------------------------

 ------------------------------------
 CID_21091636_JID_7060_Energie_kation
 ------------------------------------
 Structure from the checkpoint file:  "JID_7060.chk"
 Charge =  1 Multiplicity = 2

 SCF Done:  E(UB3LYP) =  -746.517222725     A.U. after   25 cycles
 Normal termination of Gaussian 16 at Fri Dec 11 12:26:28 2020.
 Gaussian 16:  ES64L-G16RevA.03 25-Dec-2016

 ----------------------------------------------------------------------
 # B3LYP/6-311++G(d,p) empiricaldispersion=gd3bj scf=xqc pop=npa geom=c
 heck
 ----------------------------------------------------------------------

 -----------------------------------
 CID_21091636_JID_7060_Energie_anion
 -----------------------------------
 Structure from the checkpoint file:  "JID_7060.chk"
 Charge = -1 Multiplicity = 2

                         Standard orientation:
 ---------------------------------------------------------------------
 Center     Atomic      Atomic             Coordinates (Angstroms)
 Number     Number       Type             X           Y           Z
 ---------------------------------------------------------------------
      1          6           0       -6.046606   -0.527434    0.337793
      2          6           0       -4.572451   -0.256457    0.189085
      3          7           0       -3.750550   -1.307847    0.353031
      4          6           0       -2.438805   -1.111898    0.223205
      5          6           0       -1.841184    0.122361   -0.082342
      6          6           0       -2.709640    1.208751   -0.243802
      7          6           0       -4.080305    1.020207   -0.104660
      8          6           0       -0.375381    0.257489   -0.214537
      9          6           0        0.395888   -0.762729   -0.795845
     10          6           0        1.775174   -0.635603   -0.919177
     11          6           0        2.427785    0.519210   -0.470983
     12          6           0        1.667748    1.535518    0.113060
     13          6           0        0.286629    1.407969    0.238799
     14          6           0        3.934632    0.648049   -0.605835
     15          6           0        4.623891   -0.413524    0.228401
     16          8           0        4.852846   -1.546296   -0.133345
     17          8           0        4.920184    0.035610    1.471138
     18          1           0       -6.372294   -1.276192   -0.392967
     19          1           0       -6.260332   -0.936844    1.331325
     20          1           0       -6.641378    0.379839    0.197286
     21          1           0       -1.810484   -1.985090    0.391314
     22          1           0       -2.313873    2.187742   -0.499256
     23          1           0       -4.767107    1.851330   -0.234388
     24          1           0       -0.095092   -1.653033   -1.176908
     25          1           0        2.357433   -1.436989   -1.364716
     26          1           0        2.161067    2.431487    0.480634
     27          1           0       -0.282236    2.198881    0.718889
     28          1           0        4.240723    0.490539   -1.644520
     29          1           0        4.261727    1.640486   -0.286925
     30          1           0        5.307213   -0.723185    1.947700
 ---------------------------------------------------------------------

 SCF Done:  E(UB3LYP) =  -746.814619918     A.U. after   32 cycles

 The electronic state is 2-A.
 Alpha  occ. eigenvalues --  -19.07044 -19.00508 -14.17069 -10.19112 -10.07311
 Alpha  occ. eigenvalues --  -10.07050 -10.06832 -10.05467 -10.04957 -10.04550
 Alpha  occ. eigenvalues --  -10.04485 -10.04479 -10.04163 -10.04002 -10.03948
 Alpha  occ. eigenvalues --  -10.03922 -10.03867  -1.00685  -0.91514  -0.80919
 Alpha  occ. eigenvalues --   -0.73406  -0.68660  -0.66106  -0.65175  -0.61719
 Alpha  occ. eigenvalues --   -0.60349  -0.56476  -0.51313  -0.50355  -0.48302
 Alpha  occ. eigenvalues --   -0.47229  -0.44922  -0.39757  -0.38906  -0.37760
 Alpha  occ. eigenvalues --   -0.36759  -0.36165  -0.34655  -0.33146  -0.32518
 Alpha  occ. eigenvalues --   -0.31548  -0.31407  -0.29720  -0.29561  -0.28687
 Alpha  occ. eigenvalues --   -0.28058  -0.27876  -0.26015  -0.25567  -0.24296
 Alpha  occ. eigenvalues --   -0.23357  -0.22445  -0.21847  -0.21266  -0.17791
 Alpha  occ. eigenvalues --   -0.16209  -0.14529  -0.12959  -0.12699  -0.09969
 Alpha  occ. eigenvalues --    0.04650
 Alpha virt. eigenvalues --    0.07158   0.07722   0.08498   0.09157   0.09664
 Alpha virt. eigenvalues --    0.10049   0.10273   0.10378   0.11054   0.11537
 Alpha virt. eigenvalues --    0.11780   0.11938   0.12863   0.13556   0.13848

  Beta  occ. eigenvalues --  -19.07018 -19.00451 -14.17030 -10.18968 -10.07343
  Beta  occ. eigenvalues --  -10.07043 -10.06528 -10.05492 -10.05042 -10.04525
  Beta  occ. eigenvalues --  -10.04264 -10.04256 -10.04034 -10.03990 -10.03902
  Beta  occ. eigenvalues --  -10.03842 -10.03692  -1.00575  -0.91416  -0.80684
  Beta  occ. eigenvalues --   -0.73101  -0.68261  -0.65857  -0.64920  -0.61532
  Beta  occ. eigenvalues --   -0.60095  -0.56306  -0.51138  -0.50233  -0.48036
  Beta  occ. eigenvalues --   -0.46995  -0.44611  -0.39622  -0.38780  -0.37646
  Beta  occ. eigenvalues --   -0.36539  -0.35942  -0.34394  -0.32951  -0.32296
  Beta  occ. eigenvalues --   -0.31455  -0.31007  -0.29506  -0.29495  -0.28627
  Beta  occ. eigenvalues --   -0.27921  -0.27712  -0.25870  -0.25047  -0.24152
  Beta  occ. eigenvalues --   -0.22772  -0.22165  -0.21659  -0.21152  -0.17616
  Beta  occ. eigenvalues --   -0.15319  -0.13658  -0.12606  -0.12394  -0.08829
  Beta virt. eigenvalues --    0.07146   0.07648   0.08433   0.09090   0.09531
  Beta virt. eigenvalues --    0.09947   0.10166   0.10303   0.10992   0.11199
  Beta virt. eigenvalues --    0.11721   0.11876   0.12086   0.12919   0.13515

 Mulliken charges and spin densities:
               1          2
     1  C   -0.536218  -0.029239
     2  C   -0.201513   0.171193
     3  N   -0.029324   0.022723
     4  C   -0.550642   0.012578
     5  C    0.851551   0.011268
     6  C   -0.631818   0.219055
     7  C   -0.069863  -0.073261
     8  C    0.568867   0.030819
     9  C   -0.363449   0.139447
    10  C   -0.651820   0.240065
    11  C    0.932825   0.335997
    12  C   -0.597545  -0.087328
    13  C   -0.475029  -0.073652
    14  C   -0.225254  -0.423928
    15  C   -0.003444  -0.005595
    16  O   -0.314902   0.029949
    17  O   -0.176936   0.006659
    18  H    0.120339   0.023833
    19  H    0.119418   0.024110
    20  H    0.112531   0.000603
    21  H    0.155411   0.000929
    22  H    0.085417   0.031378
    23  H    0.130052   0.004161
    24  H    0.103177   0.020552
    25  H    0.173430   0.006647
    26  H    0.068024   0.052407
    27  H    0.128043  -0.017085
    28  H   -0.080723   0.264021
    29  H    0.091083   0.062179
    30  H    0.268313  -0.000485
 Sum of Mulliken charges =  -1.00000   1.00000

 Dipole moment (field-independent basis, Debye):
    X=              0.8862    Y=              2.2447    Z=              1.4473  Tot=              2.8141
 Quadrupole moment (field-independent basis, Debye-Ang):
   XX=           -169.4673   YY=           -115.8911   ZZ=           -111.7053
   XY=             -3.6385   XZ=             10.3928   YZ=             -0.2346

 Summary of Natural Population Analysis:

                                       Natural Population
                Natural  -----------------------------------------------
    Atom  No    Charge         Core      Valence    Rydberg      Total
 -----------------------------------------------------------------------
      C    1   -0.29735      0.99965     2.29289    0.00481     3.29735
      C    2    0.14479      0.99956     1.84317    0.01248     2.85521
      N    3   -0.24625      0.99968     2.73423    0.01234     3.74625
      C    4    0.03785      0.99955     1.94848    0.01412     2.96215
      C    5   -0.04742      0.99953     2.03174    0.01615     3.04742
      C    6   -0.03890      0.99954     2.02994    0.00943     3.03890
      C    7   -0.14428      0.99952     2.13697    0.00779     3.14428
      C    8    0.06075      0.99950     1.92970    0.01006     2.93925
      C    9   -0.10169      0.99959     2.08753    0.01456     3.10169
      C   10   -0.10397      0.99952     2.09476    0.00969     3.10397
      C   11    0.01700      0.99949     1.97275    0.01076     2.98300
      C   12   -0.10954      0.99952     2.09965    0.01037     3.10954
      C   13   -0.10021      0.99959     2.08603    0.01459     3.10021
      C   14   -0.24260      0.99956     2.23377    0.00927     3.24260
      C   15    0.42341      0.99973     1.54755    0.02931     2.57659
      O   16   -0.31209      0.99987     3.30574    0.00648     4.31209
      O   17   -0.34616      0.99988     3.34059    0.00570     4.34616
      H   18    0.10286      0.00000     0.39609    0.00105     0.39714
      H   19    0.10300      0.00000     0.39592    0.00108     0.39700
      H   20    0.09170      0.00000     0.40751    0.00079     0.40830
      H   21    0.08489      0.00000     0.41346    0.00165     0.41511
      H   22    0.09374      0.00000     0.40468    0.00158     0.40626
      H   23    0.09302      0.00000     0.40587    0.00112     0.40698
      H   24    0.09509      0.00000     0.40349    0.00142     0.40491
      H   25    0.10119      0.00000     0.39782    0.00099     0.39881
      H   26    0.09262      0.00000     0.40643    0.00095     0.40738
      H   27    0.09413      0.00000     0.40447    0.00141     0.40587
      H   28    0.11440      0.00000     0.38391    0.00169     0.38560
      H   29    0.10673      0.00000     0.39211    0.00116     0.39327
      H   30    0.23486      0.00000     0.26271    0.00243     0.26514
 =======================================================================
   * Total *    0.00157     16.99327    42.78996    0.21521    59.99843

 Normal termination of Gaussian 16 at Fri Dec 11 12:41:03 2020.
