 Gaussian 16, Revision A.03,

 -----------------------------------------------------------
 # opt freq B3LYP/6-31G(d) empiricaldispersion=gd3bj scf=xqc
 -----------------------------------------------------------

 ------------------------------
 CID_21110018_JID_6510_neutraal
 ------------------------------
 Symbolic Z-matrix:
 Charge =  0 Multiplicity = 1

 SCF Done:  E(RB3LYP) =  -832.118908921     A.U. after   16 cycles
 SCF Done:  E(RB3LYP) =  -832.131307635     A.U. after   16 cycles
 SCF Done:  E(RB3LYP) =  -832.132209028     A.U. after   14 cycles
 SCF Done:  E(RB3LYP) =  -832.132133408     A.U. after   16 cycles
 SCF Done:  E(RB3LYP) =  -832.129598415     A.U. after   16 cycles
 SCF Done:  E(RB3LYP) =  -832.128863638     A.U. after   14 cycles
 SCF Done:  E(RB3LYP) =  -832.132941436     A.U. after   12 cycles
 SCF Done:  E(RB3LYP) =  -832.134276027     A.U. after   16 cycles
 SCF Done:  E(RB3LYP) =  -832.134351697     A.U. after   15 cycles
 SCF Done:  E(RB3LYP) =  -832.134931907     A.U. after   13 cycles
 SCF Done:  E(RB3LYP) =  -832.138556351     A.U. after   10 cycles
 SCF Done:  E(RB3LYP) =  -832.138557278     A.U. after   10 cycles
 SCF Done:  E(RB3LYP) =  -832.138558056     A.U. after   10 cycles
 SCF Done:  E(RB3LYP) =  -832.138558643     A.U. after    9 cycles
 SCF Done:  E(RB3LYP) =  -832.138558710     A.U. after    8 cycles
 Optimization completed.
    -- Stationary point found.
 Normal termination of Gaussian 16 at Thu Dec 10 23:31:46 2020.

 --------------------------------------------------------------------
 #N Geom=AllCheck Guess=TCheck SCRF=Check GenChk RB3LYP/6-31G(d) Freq
 --------------------------------------------------------------------

 Structure from the checkpoint file:  "JID_6510.chk"
 ------------------------------
 CID_21110018_JID_6510_neutraal
 ------------------------------
 Charge =  0 Multiplicity = 1

 SCF Done:  E(RB3LYP) =  -832.138558710     A.U. after    1 cycles

  Exact polarizability: 172.083  13.897 135.032   0.002   0.006  48.714
 Approx polarizability: 244.740  27.035 273.239   0.003   0.010  75.113

                      1                      2                      3
                      A                      A                      A
 Frequencies --     18.4642                27.5435                44.6384
 Red. masses --      7.6558                 5.9983                11.6453
 Frc consts  --      0.0015                 0.0027                 0.0137
 IR Inten    --      2.9492                 6.9423                 0.3172

                      4                      5                      6
                      A                      A                      A
 Frequencies --     55.7794                65.6851                70.5497
 Red. masses --      2.7915                 7.3120                12.9169
 Frc consts  --      0.0051                 0.0186                 0.0379
 IR Inten    --      4.4768                 0.0002                 0.3096

                      7                      8                      9
                      A                      A                      A
 Frequencies --    131.7176               138.2466               211.8542
 Red. masses --     10.6435                 7.7850                12.2277
 Frc consts  --      0.1088                 0.0877                 0.3233
 IR Inten    --      1.7260                 5.5281                 1.1396

                     10                     11                     12
                      A                      A                      A
 Frequencies --    248.3305               321.4691               349.3138
 Red. masses --     10.3775                 7.0995                 7.0139
 Frc consts  --      0.3771                 0.4323                 0.5042
 IR Inten    --      3.0189                 0.1966                 1.7966

                     13                     14                     15
                      A                      A                      A
 Frequencies --    403.0987               426.1291               487.6246
 Red. masses --      9.7442                 3.1852                12.5048
 Frc consts  --      0.9329                 0.3408                 1.7519
 IR Inten    --     18.2566                 0.0294                 9.4873

                     16                     17                     18
                      A                      A                      A
 Frequencies --    508.6624               538.9153               560.4001
 Red. masses --      3.0806                 7.2141                 8.8248
 Frc consts  --      0.4696                 1.2344                 1.6329
 IR Inten    --      4.8267                 0.3112                 9.2354

                     19                     20                     21
                      A                      A                      A
 Frequencies --    566.6314               568.1670               640.0631
 Red. masses --      3.7523                 6.0514                 7.6349
 Frc consts  --      0.7098                 1.1510                 1.8429
 IR Inten    --     14.4149                 5.2209                 5.9541

                     22                     23                     24
                      A                      A                      A
 Frequencies --    649.9323               695.0020               720.9342
 Red. masses --     10.6484                 4.2766                 7.0885
 Frc consts  --      2.6502                 1.2171                 2.1707
 IR Inten    --     22.9780                 8.3718                62.7158

                     25                     26                     27
                      A                      A                      A
 Frequencies --    758.5678               822.8597               851.3190
 Red. masses --      5.7472                 9.2923                 1.2379
 Frc consts  --      1.9485                 3.7070                 0.5286
 IR Inten    --     24.7419                 6.6085                 0.0002

                     28                     29                     30
                      A                      A                      A
 Frequencies --    872.3994               887.5078               925.4789
 Red. masses --     10.0821                 1.6652                 7.4054
 Frc consts  --      4.5210                 0.7728                 3.7371
 IR Inten    --     63.3500                47.3055                38.4507

                     31                     32                     33
                      A                      A                      A
 Frequencies --    956.2220               991.1674               996.2660
 Red. masses --      5.0226                 1.3119                 1.3051
 Frc consts  --      2.7058                 0.7594                 0.7632
 IR Inten    --     44.6856                 0.0005                 0.0454

                     34                     35                     36
                      A                      A                      A
 Frequencies --   1000.8251              1037.2908              1137.3772
 Red. masses --      2.0788                 2.7241                 2.2212
 Frc consts  --      1.2268                 1.7269                 1.6930
 IR Inten    --      1.6044                 7.0904                35.4155

                     37                     38                     39
                      A                      A                      A
 Frequencies --   1141.3141              1196.3743              1226.7039
 Red. masses --      1.4390                 1.4018                 4.5973
 Frc consts  --      1.1044                 1.1821                 4.0760
 IR Inten    --     24.4969                47.8737                42.5402

                     40                     41                     42
                      A                      A                      A
 Frequencies --   1269.0719              1285.2526              1329.1320
 Red. masses --      6.1468                 1.0686                 1.3212
 Frc consts  --      5.8327                 1.0400                 1.3752
 IR Inten    --    819.4744                 0.4684                 1.8795

                     43                     44                     45
                      A                      A                      A
 Frequencies --   1378.7246              1383.4295              1401.4613
 Red. masses --      2.1845                 2.5572                13.9663
 Frc consts  --      2.4466                 2.8836                16.1620
 IR Inten    --     62.6156                36.7315               260.4424

                     46                     47                     48
                      A                      A                      A
 Frequencies --   1466.0750              1488.1542              1520.2785
 Red. masses --      3.4877                 1.6844                 2.3311
 Frc consts  --      4.4167                 2.1978                 3.1744
 IR Inten    --      3.0982                 8.1332                 1.8014

                     49                     50                     51
                      A                      A                      A
 Frequencies --   1537.3826              1623.8302              1653.2892
 Red. masses --      2.3768                10.9647                 6.0792
 Frc consts  --      3.3098                17.0345                 9.7902
 IR Inten    --    100.1522               114.4615                75.8264

                     52                     53                     54
                      A                      A                      A
 Frequencies --   1677.3073              1841.6183              2384.2845
 Red. masses --      9.1472                12.5682                12.4578
 Frc consts  --     15.1623                25.1145                41.7262
 IR Inten    --     89.0355               213.1997               764.7299

                     55                     56                     57
                      A                      A                      A
 Frequencies --   3070.1588              3099.2617              3229.9436
 Red. masses --      1.0601                 1.1036                 1.0917
 Frc consts  --      5.8874                 6.2459                 6.7103
 IR Inten    --     15.9692                 2.6734                 0.2091

                     58                     59                     60
                      A                      A                      A
 Frequencies --   3254.7166              3259.4874              3294.1145
 Red. masses --      1.0911                 1.0931                 1.0928
 Frc consts  --      6.8100                 6.8424                 6.9868
 IR Inten    --      1.6999                 2.1082                 5.3406

 - Thermochemistry -
 -------------------
 Temperature   298.150 Kelvin.  Pressure   1.00000 Atm.
 Atom     1 has atomic number  6 and mass  12.00000

 Molecular mass:   222.02767 amu.
 Principal axes and moments of inertia in atomic units:
                           1         2         3
     Eigenvalues --  1442.544947148.616918580.12469
           X            0.99998   0.00624   0.00000
           Y           -0.00624   0.99998   0.00001
           Z           -0.00000  -0.00001   1.00000
 This molecule is an asymmetric top.
 Rotational symmetry number  1.
 Warning -- assumption of classical behavior for rotation
           may cause significant error
 Rotational temperatures (Kelvin)      0.06004     0.01212     0.01009
 Rotational constants (GHZ):           1.25108     0.25246     0.21034
 Zero-point vibrational energy     392960.1 (Joules/Mol)
                                   93.91972 (Kcal/Mol)
 Warning -- explicit consideration of  20 degrees of freedom as
           vibrations may cause significant error
 Vibrational temperatures:     26.57    39.63    64.22    80.25    94.51
          (Kelvin)            101.51   189.51   198.91   304.81   357.29
                              462.52   502.58   579.97   613.10   701.58
                              731.85   775.38   806.29   815.26   817.47
                              920.91   935.11   999.95  1037.26  1091.41
                             1183.91  1224.86  1255.19  1276.93  1331.56
                             1375.79  1426.07  1433.40  1439.96  1492.43
                             1636.43  1642.10  1721.32  1764.95  1825.91
                             1849.19  1912.32  1983.68  1990.45  2016.39
                             2109.35  2141.12  2187.34  2211.95  2336.33
                             2378.71  2413.27  2649.68  3430.45  4417.27
                             4459.15  4647.17  4682.81  4689.68  4739.50

 Zero-point correction=                           0.149671 (Hartree/Particle)
 Thermal correction to Energy=                    0.163695
 Thermal correction to Enthalpy=                  0.164639
 Thermal correction to Gibbs Free Energy=         0.104631
 Sum of electronic and zero-point Energies=           -831.988888
 Sum of electronic and thermal Energies=              -831.974864
 Sum of electronic and thermal Enthalpies=            -831.973919
 Sum of electronic and thermal Free Energies=         -832.033928

                     E (Thermal)             CV                S
                      KCal/Mol        Cal/Mol-Kelvin    Cal/Mol-Kelvin
 Total                  102.720             49.302            126.298
 Electronic               0.000              0.000              0.000
 Translational            0.889              2.981             42.096
 Rotational               0.889              2.981             32.848
 Vibrational            100.943             43.340             51.355
 Vibration     1          0.593              1.986              6.793
 Vibration     2          0.593              1.984              5.999
 Vibration     3          0.595              1.980              5.042
 Vibration     4          0.596              1.975              4.601
 Vibration     5          0.597              1.971              4.279
 Vibration     6          0.598              1.968              4.138
 Vibration     7          0.612              1.922              2.921
 Vibration     8          0.614              1.915              2.828
 Vibration     9          0.643              1.823              2.028
 Vibration    10          0.662              1.766              1.742
 Vibration    11          0.707              1.632              1.303
 Vibration    12          0.727              1.577              1.169
 Vibration    13          0.768              1.463              0.951
 Vibration    14          0.788              1.413              0.871
 Vibration    15          0.844              1.277              0.690
 Vibration    16          0.864              1.231              0.637
 Vibration    17          0.894              1.164              0.568
 Vibration    18          0.916              1.117              0.523
 Vibration    19          0.923              1.103              0.511
 Vibration    20          0.924              1.100              0.508

                           ! Non-Optimized Parameters !
 Normal termination of Gaussian 16 at Thu Dec 10 23:37:34 2020.

 ----------------------------------------------------------------------
 # B3LYP/6-311++G(d,p) empiricaldispersion=gd3bj scf=xqc pop=npa geom=c
 heck
 ----------------------------------------------------------------------

 --------------------------------------
 CID_21110018_JID_6510_Energie_neutraal
 --------------------------------------
 Structure from the checkpoint file:  "JID_6510.chk"
 Charge =  0 Multiplicity = 1

 SCF Done:  E(RB3LYP) =  -832.378873848     A.U. after   16 cycles
 Normal termination of Gaussian 16 at Thu Dec 10 23:40:03 2020.

 ----------------------------------------------------------------------
 # B3LYP/6-311++G(d,p) empiricaldispersion=gd3bj scf=xqc pop=npa geom=c
 heck
 ----------------------------------------------------------------------

 ------------------------------------
 CID_21110018_JID_6510_Energie_kation
 ------------------------------------
 Structure from the checkpoint file:  "JID_6510.chk"
 Charge =  1 Multiplicity = 2

 SCF Done:  E(UB3LYP) =  -832.020893924     A.U. after   33 cycles
 SCF Done:  E(UB3LYP) =  -832.020893924     a.u. after    1 cycles
 Normal termination of Gaussian 16 at Thu Dec 10 23:47:29 2020.
 Gaussian 16:  ES64L-G16RevA.03 25-Dec-2016

 ----------------------------------------------------------------------
 # B3LYP/6-311++G(d,p) empiricaldispersion=gd3bj scf=xqc pop=npa geom=c
 heck
 ----------------------------------------------------------------------

 -----------------------------------
 CID_21110018_JID_6510_Energie_anion
 -----------------------------------
 Structure from the checkpoint file:  "JID_6510.chk"
 Charge = -1 Multiplicity = 2

                         Standard orientation:
 ---------------------------------------------------------------------
 Center     Atomic      Atomic             Coordinates (Angstroms)
 Number     Number       Type             X           Y           Z
 ---------------------------------------------------------------------
      1          6           0       -1.758849   -1.210775   -0.000174
      2          6           0       -0.379191   -1.065730   -0.000068
      3          6           0        0.178414    0.216799    0.000236
      4          6           0       -0.615558    1.366631    0.000500
      5          6           0       -2.000160    1.212955    0.000387
      6          6           0       -2.552120   -0.064118    0.000037
      7          7           0       -4.013093   -0.209405   -0.000095
      8          8           0       -4.689259    0.818722    0.000051
      9          8           0       -4.471741   -1.351380   -0.000342
     10          8           0        1.568313    0.202111    0.000488
     11          6           0        2.380650    1.284392   -0.000185
     12          8           0        2.041472    2.441145   -0.000896
     13          6           0        3.851959    0.868414    0.000146
     14          7           0        4.144867   -0.533490   -0.000142
     15          6           0        3.499386   -1.556595    0.000002
     16          8           0        3.000460   -2.623692    0.000057
     17          1           0       -2.226241   -2.186934   -0.000419
     18          1           0        0.281451   -1.925829   -0.000222
     19          1           0       -0.166762    2.347859    0.000764
     20          1           0       -2.654885    2.075027    0.000561
     21          1           0        4.311683    1.341760   -0.875188
     22          1           0        4.311189    1.341297    0.876003
 ---------------------------------------------------------------------

 SCF Done:  E(UB3LYP) =  -832.427156652     A.U. after   22 cycles

 The electronic state is 2-A.
 Alpha  occ. eigenvalues --  -19.08956 -19.08952 -19.02018 -18.95783 -18.95780
 Alpha  occ. eigenvalues --  -14.33798 -14.26219 -10.23058 -10.21155 -10.16211
 Alpha  occ. eigenvalues --  -10.11515 -10.06963 -10.05687 -10.05487 -10.05038
 Alpha  occ. eigenvalues --  -10.04885  -1.03826  -1.02704  -1.02214  -0.94294
 Alpha  occ. eigenvalues --   -0.88325  -0.86709  -0.74602  -0.69628  -0.65692
 Alpha  occ. eigenvalues --   -0.63413  -0.58361  -0.50899  -0.50562  -0.47667
 Alpha  occ. eigenvalues --   -0.44206  -0.42754  -0.42172  -0.41676  -0.39065
 Alpha  occ. eigenvalues --   -0.37982  -0.37504  -0.36156  -0.35979  -0.34744
 Alpha  occ. eigenvalues --   -0.34440  -0.32610  -0.32347  -0.31129  -0.29715
 Alpha  occ. eigenvalues --   -0.27437  -0.27119  -0.24952  -0.23093  -0.23022
 Alpha  occ. eigenvalues --   -0.20866  -0.18444  -0.15098  -0.13924  -0.13406
 Alpha  occ. eigenvalues --   -0.13042  -0.11440   0.01580
 Alpha virt. eigenvalues --    0.06020   0.07300   0.09078   0.09321   0.09752
 Alpha virt. eigenvalues --    0.10353   0.10360   0.11697   0.12356   0.13672
 Alpha virt. eigenvalues --    0.13758   0.13985   0.14641   0.14838   0.15389

  Beta  occ. eigenvalues --  -19.09026 -19.08957 -19.01876 -18.95351 -18.95348
  Beta  occ. eigenvalues --  -14.33279 -14.26218 -10.23059 -10.20965 -10.16230
  Beta  occ. eigenvalues --  -10.11229 -10.06846 -10.05736 -10.05535 -10.04924
  Beta  occ. eigenvalues --  -10.04760  -1.02917  -1.02673  -1.02127  -0.94107
  Beta  occ. eigenvalues --   -0.88322  -0.85897  -0.74330  -0.69467  -0.65265
  Beta  occ. eigenvalues --   -0.63208  -0.57805  -0.50481  -0.50363  -0.47462
  Beta  occ. eigenvalues --   -0.43980  -0.42742  -0.41946  -0.41630  -0.38719
  Beta  occ. eigenvalues --   -0.37519  -0.37279  -0.36059  -0.34510  -0.34316
  Beta  occ. eigenvalues --   -0.33286  -0.32455  -0.31936  -0.31014  -0.29542
  Beta  occ. eigenvalues --   -0.27039  -0.26631  -0.24900  -0.22940  -0.22548
  Beta  occ. eigenvalues --   -0.20791  -0.18354  -0.13839  -0.12971  -0.11842
  Beta  occ. eigenvalues --   -0.11560  -0.11011
  Beta virt. eigenvalues --    0.06012   0.07122   0.09061   0.09124   0.09322
  Beta virt. eigenvalues --    0.10336   0.10595   0.10830   0.11676   0.12325
  Beta virt. eigenvalues --    0.13708   0.13743   0.14603   0.14698   0.15350

 Mulliken charges and spin densities:
               1          2
     1  C   -0.066109   0.138614
     2  C   -0.176678  -0.022007
     3  C   -0.168634   0.141551
     4  C    0.263005  -0.018018
     5  C   -0.491500   0.143255
     6  C   -0.315405  -0.014583
     7  N   -0.254843   0.174653
     8  O   -0.170009   0.163823
     9  O   -0.172703   0.164906
    10  O   -0.110047  -0.028161
    11  C    0.269608   0.101998
    12  O   -0.295969   0.052270
    13  C   -0.558623  -0.017788
    14  N   -0.208106   0.001969
    15  C    0.463137  -0.000314
    16  O   -0.255734  -0.000359
    17  H    0.228629  -0.007311
    18  H    0.178660   0.001738
    19  H    0.228903   0.001292
    20  H    0.223641  -0.008040
    21  H    0.194427   0.015222
    22  H    0.194350   0.015289
 Sum of Mulliken charges =  -1.00000   1.00000

 Dipole moment (field-independent basis, Debye):
    X=             12.4555    Y=              0.6705    Z=              0.0020  Tot=             12.4736
 Quadrupole moment (field-independent basis, Debye-Ang):
   XX=           -172.4998   YY=           -112.4144   ZZ=            -93.7827
   XY=             -0.8159   XZ=              0.0018   YZ=              0.0053

 Summary of Natural Population Analysis:

                                       Natural Population
                Natural  -----------------------------------------------
    Atom  No    Charge         Core      Valence    Rydberg      Total
 -----------------------------------------------------------------------
      C    1   -0.07128      0.99954     2.06199    0.00975     3.07128
      C    2   -0.13528      0.99954     2.12698    0.00877     3.13528
      C    3    0.18829      0.99936     1.80172    0.01063     2.81171
      C    4   -0.14673      0.99953     2.13894    0.00826     3.14673
      C    5   -0.06670      0.99954     2.05741    0.00975     3.06670
      C    6    0.05544      0.99940     1.93378    0.01138     2.94456
      N    7    0.29344      0.99972     2.17936    0.02748     3.20656
      O    8   -0.19472      0.99990     3.18692    0.00790     4.19472
      O    9   -0.19455      0.99990     3.18673    0.00793     4.19455
      O   10   -0.28180      0.99983     3.27324    0.00873     4.28180
      C   11    0.42492      0.99970     1.55269    0.02269     2.57508
      O   12   -0.28964      0.99987     3.28334    0.00643     4.28964
      C   13   -0.13758      0.99956     2.12692    0.01110     3.13758
      N   14   -0.28368      0.99951     2.77590    0.00827     3.78368
      C   15    0.43020      0.99959     1.55150    0.01871     2.56980
      O   16   -0.25998      0.99987     3.25304    0.00707     4.25998
      H   17    0.11417      0.00000     0.38457    0.00126     0.38583
      H   18    0.10537      0.00000     0.39319    0.00144     0.39463
      H   19    0.11663      0.00000     0.38234    0.00103     0.38337
      H   20    0.11364      0.00000     0.38512    0.00124     0.38636
      H   21    0.10992      0.00000     0.38894    0.00114     0.39008
      H   22    0.10992      0.00000     0.38895    0.00114     0.39008
 =======================================================================
   * Total *   -0.00000     15.99434    40.81355    0.19211    57.00000

 Normal termination of Gaussian 16 at Thu Dec 10 23:52:34 2020.
