 Gaussian 16, Revision A.03,

 -----------------------------------------------------------
 # opt freq B3LYP/6-31G(d) empiricaldispersion=gd3bj scf=xqc
 -----------------------------------------------------------

 -------------------------------
 CID_104392409_JID_4320_neutraal
 -------------------------------
 Symbolic Z-matrix:
 Charge =  0 Multiplicity = 1

 SCF Done:  E(RB3LYP) =  -653.053975521     A.U. after   14 cycles
 SCF Done:  E(RB3LYP) =  -653.058296751     A.U. after   12 cycles
 SCF Done:  E(RB3LYP) =  -653.058642874     A.U. after   12 cycles
 SCF Done:  E(RB3LYP) =  -653.059945170     A.U. after   11 cycles
 SCF Done:  E(RB3LYP) =  -653.060169381     A.U. after   12 cycles
 SCF Done:  E(RB3LYP) =  -653.060549846     A.U. after   11 cycles
 SCF Done:  E(RB3LYP) =  -653.060699523     A.U. after   11 cycles
 SCF Done:  E(RB3LYP) =  -653.060727337     A.U. after   10 cycles
 SCF Done:  E(RB3LYP) =  -653.060755131     A.U. after   10 cycles
 SCF Done:  E(RB3LYP) =  -653.060776809     A.U. after    9 cycles
 SCF Done:  E(RB3LYP) =  -653.060808266     A.U. after    9 cycles
 SCF Done:  E(RB3LYP) =  -653.060809249     A.U. after    8 cycles
 SCF Done:  E(RB3LYP) =  -653.060810228     A.U. after    8 cycles
 SCF Done:  E(RB3LYP) =  -653.060810654     A.U. after    8 cycles
 SCF Done:  E(RB3LYP) =  -653.060810824     A.U. after    7 cycles
 SCF Done:  E(RB3LYP) =  -653.060810806     A.U. after    7 cycles
 Optimization completed.
    -- Stationary point found.
 Normal termination of Gaussian 16 at Thu Dec 10 09:30:41 2020.

 --------------------------------------------------------------------
 #N Geom=AllCheck Guess=TCheck SCRF=Check GenChk RB3LYP/6-31G(d) Freq
 --------------------------------------------------------------------

 Structure from the checkpoint file:  "JID_4320.chk"
 -------------------------------
 CID_104392409_JID_4320_neutraal
 -------------------------------
 Charge =  0 Multiplicity = 1

 SCF Done:  E(RB3LYP) =  -653.060810806     A.U. after    1 cycles

  Exact polarizability: 127.105   0.903 128.757   6.141  -0.765 109.872
 Approx polarizability: 165.381   3.549 181.605   9.903   4.767 159.431

                      1                      2                      3
                      A                      A                      A
 Frequencies --     25.6366                45.2862                47.4691
 Red. masses --      3.7207                 3.9660                 3.6733
 Frc consts  --      0.0014                 0.0048                 0.0049
 IR Inten    --      0.9740                 1.1707                 1.2292

                      4                      5                      6
                      A                      A                      A
 Frequencies --     64.1850                74.4168                97.6945
 Red. masses --      2.0902                 3.7456                 3.2503
 Frc consts  --      0.0051                 0.0122                 0.0183
 IR Inten    --      1.9888                 0.6168                 0.1133

                      7                      8                      9
                      A                      A                      A
 Frequencies --    108.9853               154.3486               171.5138
 Red. masses --      2.7384                 2.3770                 3.1890
 Frc consts  --      0.0192                 0.0334                 0.0553
 IR Inten    --      0.6580                 2.5198                 1.0206

                     10                     11                     12
                      A                      A                      A
 Frequencies --    201.3945               224.9023               237.1214
 Red. masses --      1.3908                 2.3095                 1.2373
 Frc consts  --      0.0332                 0.0688                 0.0410
 IR Inten    --      2.8479                 0.3193                 0.3082

                     13                     14                     15
                      A                      A                      A
 Frequencies --    254.8695               267.7882               303.7660
 Red. masses --      3.0169                 1.3008                 2.9340
 Frc consts  --      0.1155                 0.0550                 0.1595
 IR Inten    --      1.6840                 2.0737                 0.3362

                     16                     17                     18
                      A                      A                      A
 Frequencies --    310.8773               353.5161               386.8611
 Red. masses --      2.0696                 3.8946                 2.7905
 Frc consts  --      0.1178                 0.2868                 0.2461
 IR Inten    --      1.1246                 5.9089                 0.5288

                     19                     20                     21
                      A                      A                      A
 Frequencies --    394.9330               442.7010               463.7249
 Red. masses --      2.9722                 3.1353                 2.7347
 Frc consts  --      0.2731                 0.3620                 0.3465
 IR Inten    --      8.1282                 7.5860                 6.5490

                     22                     23                     24
                      A                      A                      A
 Frequencies --    542.6447               582.4841               610.0683
 Red. masses --      3.3522                 1.2138                 3.4626
 Frc consts  --      0.5816                 0.2426                 0.7593
 IR Inten    --     16.2482                62.8092                 7.0925

                     25                     26                     27
                      A                      A                      A
 Frequencies --    677.6118               735.6841               767.5193
 Red. masses --      2.5309                 4.7637                 2.3008
 Frc consts  --      0.6847                 1.5191                 0.7985
 IR Inten    --      1.0562                27.3988                 3.2921

                     28                     29                     30
                      A                      A                      A
 Frequencies --    792.3469               794.5646               821.6086
 Red. masses --      1.6542                 1.6786                 1.5644
 Frc consts  --      0.6119                 0.6244                 0.6222
 IR Inten    --      6.5855                46.6197                40.6240

                     31                     32                     33
                      A                      A                      A
 Frequencies --    855.0999               877.8114               919.2394
 Red. masses --      1.4253                 2.2307                 1.7670
 Frc consts  --      0.6140                 1.0127                 0.8797
 IR Inten    --      2.9490                10.9780                 3.1057

                     34                     35                     36
                      A                      A                      A
 Frequencies --    929.8702               940.6042               961.1418
 Red. masses --      2.3204                 1.7144                 2.8248
 Frc consts  --      1.1821                 0.8937                 1.5375
 IR Inten    --     12.6991                13.8907                 4.2567

                     37                     38                     39
                      A                      A                      A
 Frequencies --   1030.3135              1044.1389              1053.8310
 Red. masses --      2.0223                 1.6731                 2.2351
 Frc consts  --      1.2649                 1.0747                 1.4625
 IR Inten    --     12.9931                13.8066                43.3805

                     40                     41                     42
                      A                      A                      A
 Frequencies --   1066.0330              1079.3978              1090.3042
 Red. masses --      1.4349                 1.9239                 1.3776
 Frc consts  --      0.9608                 1.3207                 0.9649
 IR Inten    --     13.1343                22.0140                 0.3547

                     43                     44                     45
                      A                      A                      A
 Frequencies --   1094.2798              1136.4789              1144.6816
 Red. masses --      2.0645                 2.2593                 1.2233
 Frc consts  --      1.4565                 1.7193                 0.9444
 IR Inten    --     15.2739                43.2213                 5.4398

                     46                     47                     48
                      A                      A                      A
 Frequencies --   1160.7174              1194.2132              1196.6270
 Red. masses --      2.8658                 1.3386                 2.1308
 Frc consts  --      2.2748                 1.1248                 1.7977
 IR Inten    --     24.0322                 6.6746                72.2095

                     49                     50                     51
                      A                      A                      A
 Frequencies --   1210.7034              1217.1271              1221.5072
 Red. masses --      1.4115                 2.2262                 2.2373
 Frc consts  --      1.2190                 1.9431                 1.9668
 IR Inten    --      3.7118                19.9154                10.2627

                     52                     53                     54
                      A                      A                      A
 Frequencies --   1238.2176              1261.1237              1297.0012
 Red. masses --      1.6787                 1.8357                 1.3411
 Frc consts  --      1.5164                 1.7202                 1.3292
 IR Inten    --     19.1454                14.5293                21.4577

                     55                     56                     57
                      A                      A                      A
 Frequencies --   1336.2948              1365.5015              1378.8502
 Red. masses --      1.3397                 1.2900                 1.4111
 Frc consts  --      1.4095                 1.4171                 1.5807
 IR Inten    --      0.9006                 5.5737                20.1188

                     58                     59                     60
                      A                      A                      A
 Frequencies --   1393.4688              1411.7750              1415.7479
 Red. masses --      1.8490                 1.5028                 1.3480
 Frc consts  --      2.1153                 1.7648                 1.5919
 IR Inten    --    134.2529                17.6531                18.8726

                     61                     62                     63
                      A                      A                      A
 Frequencies --   1422.3555              1426.9989              1436.6614
 Red. masses --      1.2871                 1.3166                 1.3341
 Frc consts  --      1.5342                 1.5796                 1.6224
 IR Inten    --     21.3722                34.2663                10.0380

                     64                     65                     66
                      A                      A                      A
 Frequencies --   1478.8478              1486.6506              1499.5447
 Red. masses --      1.6483                 1.2068                 1.1348
 Frc consts  --      2.1238                 1.5715                 1.5034
 IR Inten    --     43.8111                 7.1328                10.2560

                     67                     68                     69
                      A                      A                      A
 Frequencies --   1509.0220              1513.5108              1521.9173
 Red. masses --      1.0824                 1.1214                 1.0994
 Frc consts  --      1.4522                 1.5134                 1.5003
 IR Inten    --     13.1124                 7.8718                 5.8047

                     70                     71                     72
                      A                      A                      A
 Frequencies --   1523.2342              1526.7445              1530.0323
 Red. masses --      1.0589                 1.2193                 1.1197
 Frc consts  --      1.4476                 1.6745                 1.5444
 IR Inten    --      7.0219                16.8594                 2.8225

                     73                     74                     75
                      A                      A                      A
 Frequencies --   1537.0716              1544.7222              1551.7465
 Red. masses --      1.0989                 1.0610                 1.0715
 Frc consts  --      1.5297                 1.4916                 1.5202
 IR Inten    --     13.4477                14.2959                 6.4022

                     76                     77                     78
                      A                      A                      A
 Frequencies --   1774.5608              2938.7729              3013.0832
 Red. masses --      7.9650                 1.0730                 1.0461
 Frc consts  --     14.7781                 5.4598                 5.5958
 IR Inten    --    318.8115                74.4319                53.1952

                     79                     80                     81
                      A                      A                      A
 Frequencies --   3053.2007              3055.2303              3058.9393
 Red. masses --      1.0364                 1.0420                 1.0803
 Frc consts  --      5.6921                 5.7307                 5.9558
 IR Inten    --     15.1171                20.7358                29.3223

                     82                     83                     84
                      A                      A                      A
 Frequencies --   3084.0337              3089.4458              3094.0159
 Red. masses --      1.0874                 1.0851                 1.0854
 Frc consts  --      6.0936                 6.1022                 6.1220
 IR Inten    --      5.9071                16.1473                50.1384

                     85                     86                     87
                      A                      A                      A
 Frequencies --   3120.6861              3121.5856              3135.1952
 Red. masses --      1.1001                 1.1006                 1.1044
 Frc consts  --      6.3122                 6.3188                 6.3960
 IR Inten    --     23.4005                45.5597                 8.8849

                     88                     89                     90
                      A                      A                      A
 Frequencies --   3136.4374              3141.5588              3148.6590
 Red. masses --      1.1042                 1.1019                 1.0531
 Frc consts  --      6.3997                 6.4076                 6.1514
 IR Inten    --     66.1669                14.2189                13.3573

                     91                     92                     93
                      A                      A                      A
 Frequencies --   3155.3253              3169.5145              3230.5940
 Red. masses --      1.0569                 1.0895                 1.1194
 Frc consts  --      6.1997                 6.4486                 6.8836
 IR Inten    --      7.6186                14.4811                 0.3420

                     94                     95                     96
                      A                      A                      A
 Frequencies --   3243.8338              3530.4206              3575.2402
 Red. masses --      1.1161                 1.0730                 1.0755
 Frc consts  --      6.9192                 7.8797                 8.0995
 IR Inten    --     17.6117                 1.8675                18.1042

 - Thermochemistry -
 -------------------
 Temperature   298.150 Kelvin.  Pressure   1.00000 Atm.
 Atom     1 has atomic number  6 and mass  12.00000

 Molecular mass:   200.15248 amu.
 Principal axes and moments of inertia in atomic units:
                           1         2         3
     Eigenvalues --  2169.011814054.370114762.72668
           X            0.99993  -0.01016  -0.00645
           Y            0.00987   0.99901  -0.04348
           Z            0.00688   0.04341   0.99903
 This molecule is an asymmetric top.
 Rotational symmetry number  1.
 Warning -- assumption of classical behavior for rotation
           may cause significant error
 Rotational temperatures (Kelvin)      0.03993     0.02136     0.01819
 Rotational constants (GHZ):           0.83206     0.44513     0.37893
 Zero-point vibrational energy     794667.4 (Joules/Mol)
                                  189.93007 (Kcal/Mol)
 Warning -- explicit consideration of  24 degrees of freedom as
           vibrations may cause significant error
 Vibrational temperatures:     36.89    65.16    68.30    92.35   107.07
          (Kelvin)            140.56   156.81   222.07   246.77   289.76
                              323.58   341.16   366.70   385.29   437.05
                              447.28   508.63   556.61   568.22   636.95
                              667.20   780.74   838.06   877.75   974.93
                             1058.49  1104.29  1140.01  1143.20  1182.11
                             1230.30  1262.97  1322.58  1337.88  1353.32
                             1382.87  1482.39  1502.28  1516.23  1533.78
                             1553.01  1568.70  1574.42  1635.14  1646.94
                             1670.01  1718.21  1721.68  1741.93  1751.17
                             1757.48  1781.52  1814.48  1866.10  1922.63
                             1964.65  1983.86  2004.89  2031.23  2036.95
                             2046.45  2053.13  2067.04  2127.73  2138.96
                             2157.51  2171.15  2177.60  2189.70  2191.59
                             2196.64  2201.38  2211.50  2222.51  2232.62
                             2553.20  4228.24  4335.15  4392.87  4395.79
                             4401.13  4437.24  4445.02  4451.60  4489.97
                             4491.27  4510.85  4512.63  4520.00  4530.22
                             4539.81  4560.22  4648.10  4667.15  5079.49
                             5143.97

 Zero-point correction=                           0.302673 (Hartree/Particle)
 Thermal correction to Energy=                    0.319112
 Thermal correction to Enthalpy=                  0.320056
 Thermal correction to Gibbs Free Energy=         0.257449
 Sum of electronic and zero-point Energies=           -652.758138
 Sum of electronic and thermal Energies=              -652.741699
 Sum of electronic and thermal Enthalpies=            -652.740755
 Sum of electronic and thermal Free Energies=         -652.803362

                     E (Thermal)             CV                S
                      KCal/Mol        Cal/Mol-Kelvin    Cal/Mol-Kelvin
 Total                  200.245             59.651            131.767
 Electronic               0.000              0.000              0.000
 Translational            0.889              2.981             41.786
 Rotational               0.889              2.981             32.105
 Vibrational            198.468             53.689             57.876
 Vibration     1          0.593              1.985              6.141
 Vibration     2          0.595              1.979              5.013
 Vibration     3          0.595              1.979              4.920
 Vibration     4          0.597              1.971              4.324
 Vibration     5          0.599              1.966              4.033
 Vibration     6          0.603              1.951              3.500
 Vibration     7          0.606              1.942              3.287
 Vibration     8          0.620              1.898              2.618
 Vibration     9          0.626              1.878              2.419
 Vibration    10          0.638              1.838              2.120
 Vibration    11          0.650              1.803              1.919
 Vibration    12          0.656              1.784              1.824
 Vibration    13          0.665              1.755              1.697
 Vibration    14          0.673              1.732              1.610
 Vibration    15          0.695              1.667              1.396
 Vibration    16          0.700              1.653              1.358
 Vibration    17          0.730              1.568              1.150
 Vibration    18          0.755              1.498              1.012
 Vibration    19          0.762              1.481              0.981
 Vibration    20          0.802              1.377              0.818
 Vibration    21          0.821              1.331              0.755
 Vibration    22          0.898              1.156              0.560
 Vibration    23          0.939              1.069              0.481
 Vibration    24          0.969              1.011              0.433

 Optimization completed.
    -- Stationary point found.
 Normal termination of Gaussian 16 at Thu Dec 10 09:42:24 2020.

 ----------------------------------------------------------------------
 # B3LYP/6-311++G(d,p) empiricaldispersion=gd3bj scf=xqc pop=npa geom=c
 heck
 ----------------------------------------------------------------------

 ---------------------------------------
 CID_104392409_JID_4320_Energie_neutraal
 ---------------------------------------
 Structure from the checkpoint file:  "JID_4320.chk"
 Charge =  0 Multiplicity = 1

 SCF Done:  E(RB3LYP) =  -653.257477705     A.U. after   14 cycles
 Normal termination of Gaussian 16 at Thu Dec 10 09:47:59 2020.

 ----------------------------------------------------------------------
 # B3LYP/6-311++G(d,p) empiricaldispersion=gd3bj scf=xqc pop=npa geom=c
 heck
 ----------------------------------------------------------------------

 -------------------------------------
 CID_104392409_JID_4320_Energie_kation
 -------------------------------------
 Structure from the checkpoint file:  "JID_4320.chk"
 Charge =  1 Multiplicity = 2

 SCF Done:  E(UB3LYP) =  -652.961261144     A.U. after   23 cycles
 Normal termination of Gaussian 16 at Thu Dec 10 10:00:49 2020.
 Gaussian 16:  ES64L-G16RevA.03 25-Dec-2016

 ----------------------------------------------------------------------
 # B3LYP/6-311++G(d,p) empiricaldispersion=gd3bj scf=xqc pop=npa geom=c
 heck
 ----------------------------------------------------------------------

 ------------------------------------
 CID_104392409_JID_4320_Energie_anion
 ------------------------------------
 Structure from the checkpoint file:  "JID_4320.chk"
 Charge = -1 Multiplicity = 2

                         Standard orientation:
 ---------------------------------------------------------------------
 Center     Atomic      Atomic             Coordinates (Angstroms)
 Number     Number       Type             X           Y           Z
 ---------------------------------------------------------------------
      1          6           0        2.676421    1.002483    1.219485
      2          6           0        2.871633   -0.273731    0.393935
      3          6           0        1.677068   -1.239261    0.480619
      4          7           0        0.394486   -0.588041    0.221050
      5          6           0       -0.744448   -1.503289    0.141647
      6          6           0       -1.280316   -1.983813    1.503838
      7          6           0       -1.916132   -0.985610   -0.705812
      8          8           0       -2.645965   -1.794145   -1.268886
      9          7           0       -2.185121    0.358049   -0.794668
     10          6           0       -1.481588    1.494714   -0.276298
     11          6           0       -2.317102    2.667502    0.156756
     12          6           0       -1.597860    1.841169    1.193141
     13          8           0        3.293016   -0.008128   -0.940792
     14          6           0        2.411542    0.728456   -1.773236
     15          1           0        1.829766    1.598457    0.864015
     16          1           0        3.574377    1.624836    1.162117
     17          1           0        2.496711    0.752162    2.271749
     18          1           0        3.728201   -0.815206    0.813287
     19          1           0        1.825497   -2.018124   -0.275670
     20          1           0        1.716943   -1.738428    1.467511
     21          1           0        0.217010    0.101578    0.945547
     22          1           0       -0.408514   -2.381124   -0.418861
     23          1           0       -1.642716   -1.137554    2.099527
     24          1           0       -2.108580   -2.683934    1.361848
     25          1           0       -0.491631   -2.488192    2.071771
     26          1           0       -2.957640    0.542455   -1.424433
     27          1           0       -0.529810    1.713045   -0.753275
     28          1           0       -1.947801    3.663855   -0.065445
     29          1           0       -3.396787    2.561368    0.098002
     30          1           0       -2.201563    1.184452    1.811632
     31          1           0       -0.730963    2.270097    1.689219
     32          1           0        1.453862    0.218451   -1.917515
     33          1           0        2.211150    1.736311   -1.379518
     34          1           0        2.925222    0.831912   -2.733216
 ---------------------------------------------------------------------

 SCF Done:  E(UB3LYP) =  -653.246108667     A.U. after   31 cycles

 The electronic state is 2-A.
 Alpha  occ. eigenvalues --  -19.02207 -18.99610 -14.24886 -14.20645 -10.18079
 Alpha  occ. eigenvalues --  -10.12643 -10.12488 -10.11933 -10.10586 -10.09899
 Alpha  occ. eigenvalues --  -10.08827 -10.08632 -10.07374 -10.06074  -0.94888
 Alpha  occ. eigenvalues --   -0.93260  -0.84493  -0.81963  -0.75296  -0.68903
 Alpha  occ. eigenvalues --   -0.65134  -0.59365  -0.58200  -0.55708  -0.53614
 Alpha  occ. eigenvalues --   -0.52430  -0.48369  -0.46888  -0.43573  -0.40874
 Alpha  occ. eigenvalues --   -0.40753  -0.40345  -0.36731  -0.36193  -0.36177
 Alpha  occ. eigenvalues --   -0.34485  -0.34297  -0.32891  -0.32020  -0.31265
 Alpha  occ. eigenvalues --   -0.30701  -0.29691  -0.28775  -0.28361  -0.27806
 Alpha  occ. eigenvalues --   -0.26847  -0.26223  -0.25247  -0.23001  -0.21931
 Alpha  occ. eigenvalues --   -0.21101  -0.17825  -0.16343  -0.16058  -0.13041
 Alpha  occ. eigenvalues --    0.04264
 Alpha virt. eigenvalues --    0.06260   0.07051   0.07538   0.08405   0.08695
 Alpha virt. eigenvalues --    0.09347   0.09813   0.09907   0.09998   0.11170
 Alpha virt. eigenvalues --    0.11473   0.12204   0.12624   0.13089   0.13444

  Beta  occ. eigenvalues --  -19.02206 -18.99608 -14.24880 -14.20641 -10.18079
  Beta  occ. eigenvalues --  -10.12634 -10.12478 -10.11928 -10.10565 -10.09881
  Beta  occ. eigenvalues --  -10.08794 -10.08599 -10.07349 -10.06027  -0.94883
  Beta  occ. eigenvalues --   -0.93253  -0.84479  -0.81951  -0.75271  -0.68874
  Beta  occ. eigenvalues --   -0.65103  -0.59302  -0.58160  -0.55677  -0.53578
  Beta  occ. eigenvalues --   -0.52349  -0.48328  -0.46843  -0.43551  -0.40842
  Beta  occ. eigenvalues --   -0.40724  -0.40262  -0.36699  -0.36164  -0.36147
  Beta  occ. eigenvalues --   -0.34461  -0.34275  -0.32864  -0.31993  -0.31234
  Beta  occ. eigenvalues --   -0.30682  -0.29644  -0.28742  -0.28320  -0.27778
  Beta  occ. eigenvalues --   -0.26819  -0.26190  -0.25219  -0.22966  -0.21905
  Beta  occ. eigenvalues --   -0.21083  -0.17814  -0.16322  -0.16048  -0.13026
  Beta virt. eigenvalues --    0.06594   0.07142   0.07526   0.08079   0.08768
  Beta virt. eigenvalues --    0.09235   0.09620   0.09967   0.10259   0.10405
  Beta virt. eigenvalues --    0.11566   0.11928   0.12522   0.12919   0.13357

 Mulliken charges and spin densities:
               1          2
     1  C    1.533534  -2.057963
     2  C   -1.870408   1.619302
     3  C    0.836673  -1.239738
     4  N    0.102915  -0.040092
     5  C   -0.601640   0.532171
     6  C    0.474404  -0.993259
     7  C    0.072811   0.004308
     8  O   -0.329194   0.002145
     9  N   -0.178142   0.001717
    10  C   -1.008928   0.769117
    11  C    0.953915  -1.512324
    12  C    0.071307  -0.280466
    13  O   -0.085192  -0.007506
    14  C    0.411448  -0.716624
    15  H    0.037657   0.120704
    16  H   -0.185963   0.358042
    17  H   -0.394732   0.555640
    18  H   -0.281503   0.495113
    19  H    0.126431   0.067764
    20  H   -0.160374   0.273268
    21  H   -0.119363   0.342625
    22  H    0.169926   0.019745
    23  H   -0.202594   0.327369
    24  H    0.070733   0.096178
    25  H   -0.214045   0.376356
    26  H    0.215064   0.089927
    27  H    0.576479  -0.314908
    28  H   -0.712723   0.889904
    29  H    0.084102   0.057918
    30  H   -0.004267   0.167340
    31  H   -0.159126   0.321282
    32  H    0.038481   0.141079
    33  H   -0.304307   0.431146
    34  H    0.036622   0.102717
 Sum of Mulliken charges =  -1.00000   1.00000

 Dipole moment (field-independent basis, Debye):
    X=             -1.8776    Y=             -2.9358    Z=             -3.1651  Tot=              4.7077
 Quadrupole moment (field-independent basis, Debye-Ang):
   XX=           -147.4642   YY=           -145.7896   ZZ=           -131.7502
   XY=             -5.8705   XZ=             -6.5212   YZ=             -4.4844

 Summary of Natural Population Analysis:

                                       Natural Population
                Natural  -----------------------------------------------
    Atom  No    Charge         Core      Valence    Rydberg      Total
 -----------------------------------------------------------------------
      C    1   -0.30511      0.99964     2.29946    0.00601     3.30511
      C    2    0.06572      0.99955     1.91843    0.01630     2.93428
      C    3   -0.09577      0.99959     2.08550    0.01068     3.09577
      N    4   -0.35680      0.99973     2.84609    0.01098     3.85680
      C    5   -0.04460      0.99956     2.03288    0.01216     3.04460
      C    6   -0.29119      0.99964     2.28608    0.00547     3.29119
      C    7    0.35221      0.99964     1.62511    0.02303     2.64779
      O    8   -0.32996      0.99988     3.32448    0.00560     4.32996
      N    9   -0.31756      0.99965     2.80771    0.01020     3.81756
      C   10   -0.02927      0.99957     2.01657    0.01314     3.02927
      C   11   -0.19333      0.99962     2.18412    0.00959     3.19333
      C   12   -0.20494      0.99962     2.19503    0.01029     3.20494
      O   13   -0.30516      0.99988     3.29541    0.00987     4.30516
      C   14   -0.10184      0.99959     2.09277    0.00948     3.10184
      H   15    0.09855      0.00000     0.39938    0.00206     0.40145
      H   16    0.10568      0.00000     0.39312    0.00120     0.39432
      H   17    0.10640      0.00000     0.39154    0.00206     0.39360
      H   18    0.09108      0.00000     0.40735    0.00156     0.40892
      H   19    0.09651      0.00000     0.40229    0.00120     0.40349
      H   20    0.08623      0.00000     0.41220    0.00158     0.41377
      H   21    0.18208      0.00000     0.31271    0.00521     0.31792
      H   22    0.10509      0.00000     0.39321    0.00171     0.39491
      H   23    0.09817      0.00000     0.40038    0.00145     0.40183
      H   24    0.10595      0.00000     0.39318    0.00087     0.39405
      H   25    0.10271      0.00000     0.39632    0.00097     0.39729
      H   26    0.19282      0.00000     0.30467    0.00251     0.30718
      H   27    0.10727      0.00000     0.39063    0.00210     0.39273
      H   28    0.11002      0.00000     0.38791    0.00207     0.38998
      H   29    0.10222      0.00000     0.39667    0.00111     0.39778
      H   30    0.10512      0.00000     0.39346    0.00142     0.39488
      H   31    0.10967      0.00000     0.38795    0.00238     0.39033
      H   32    0.08793      0.00000     0.41068    0.00139     0.41207
      H   33    0.07948      0.00000     0.41902    0.00150     0.42052
      H   34    0.08460      0.00000     0.41450    0.00090     0.41540
 =======================================================================
   * Total *   -0.00000     13.99516    40.81681    0.18803    55.00000

 Normal termination of Gaussian 16 at Thu Dec 10 10:18:01 2020.
