 Gaussian 16, Revision A.03,

 -----------------------------------------------------------
 # opt freq B3LYP/6-31G(d) empiricaldispersion=gd3bj scf=xqc
 -----------------------------------------------------------

 ------------------------------
 CID_22147184_JID_1932_neutraal
 ------------------------------
 Symbolic Z-matrix:
 Charge =  0 Multiplicity = 1

 SCF Done:  E(RB3LYP) =  -475.724808870     A.U. after   14 cycles
 SCF Done:  E(RB3LYP) =  -475.731076792     A.U. after   12 cycles
 SCF Done:  E(RB3LYP) =  -475.731995954     A.U. after   12 cycles
 SCF Done:  E(RB3LYP) =  -475.732273248     A.U. after   12 cycles
 SCF Done:  E(RB3LYP) =  -475.732334383     A.U. after   11 cycles
 SCF Done:  E(RB3LYP) =  -475.732347188     A.U. after   10 cycles
 SCF Done:  E(RB3LYP) =  -475.732351122     A.U. after    8 cycles
 SCF Done:  E(RB3LYP) =  -475.732352095     A.U. after    7 cycles
 SCF Done:  E(RB3LYP) =  -475.732352333     A.U. after    7 cycles
 SCF Done:  E(RB3LYP) =  -475.732352499     A.U. after    7 cycles
 SCF Done:  E(RB3LYP) =  -475.732352681     A.U. after    7 cycles
 SCF Done:  E(RB3LYP) =  -475.732352873     A.U. after    8 cycles
 SCF Done:  E(RB3LYP) =  -475.732353020     A.U. after    7 cycles
 SCF Done:  E(RB3LYP) =  -475.732353144     A.U. after    7 cycles
 SCF Done:  E(RB3LYP) =  -475.732353194     A.U. after    6 cycles
 Optimization completed.
    -- Stationary point found.

 1\1\GINC-NODE310\FOpt\RB3LYP\6-31G(d)\C8H11N3\VSC10255\08-Dec-2020\0\\
 # opt freq B3LYP/6-31G(d) empiricaldispersion=gd3bj scf=xqc\\CID_22147
 184_JID_1932_neutraal\\0,1\C,0.9491708134,-0.1223544052,0.0835432863\N
 ,0.5330723635,0.1000279706,-1.2974471502\C,-0.5438885318,-0.6961591125
 ,-1.8201275562\C,-0.365371741,-1.3952689564,-3.1355294394\C,-0.3674830
 222,-2.1946808074,-1.8581441739\C,0.8371017709,1.3002591075,-1.8919627
 555\N,0.2247665637,1.5927342469,-3.0611035516\C,0.5690702324,2.7467432
 982,-3.6288520773\C,1.4947819289,3.6289859786,-3.0725627483\C,2.044939

 Normal termination of Gaussian 16 at Tue Dec  8 20:44:38 2020.

 --------------------------------------------------------------------
 #N Geom=AllCheck Guess=TCheck SCRF=Check GenChk RB3LYP/6-31G(d) Freq
 --------------------------------------------------------------------

 Structure from the checkpoint file:  "JID_1932.chk"
 ------------------------------
 CID_22147184_JID_1932_neutraal
 ------------------------------
 Charge =  0 Multiplicity = 1

 SCF Done:  E(RB3LYP) =  -475.732353195     A.U. after    1 cycles

  Exact polarizability: 139.311   6.190 101.276   5.015  -3.825  58.008
 Approx polarizability: 195.047   9.854 163.225   8.578  -9.634  88.516

                      1                      2                      3
                      A                      A                      A
 Frequencies --     70.4077                75.0440                83.9387
 Red. masses --      3.6391                 1.4151                 2.2096
 Frc consts  --      0.0106                 0.0047                 0.0092
 IR Inten    --      0.7679                 1.3817                 1.2203

                      4                      5                      6
                      A                      A                      A
 Frequencies --    133.9091               163.9456               215.4977
 Red. masses --      2.9268                 3.2150                 3.6192
 Frc consts  --      0.0309                 0.0509                 0.0990
 IR Inten    --      5.9889                 0.9195                 2.1582

                      7                      8                      9
                      A                      A                      A
 Frequencies --    306.7437               362.9428               405.3639
 Red. masses --      2.7074                 4.1919                 3.1064
 Frc consts  --      0.1501                 0.3253                 0.3007
 IR Inten    --      3.6648                 6.5088                 1.8806

                     10                     11                     12
                      A                      A                      A
 Frequencies --    419.5474               517.4057               545.1202
 Red. masses --      4.2460                 3.0801                 2.9477
 Frc consts  --      0.4403                 0.4858                 0.5161
 IR Inten    --      0.0209                 8.2205                 7.6192

                     13                     14                     15
                      A                      A                      A
 Frequencies --    596.8497               653.1345               748.2319
 Red. masses --      3.5164                 7.7848                 2.2852
 Frc consts  --      0.7380                 1.9566                 0.7538
 IR Inten    --      2.8685                 5.5996                 0.4166

                     16                     17                     18
                      A                      A                      A
 Frequencies --    793.4312               799.2632               816.8019
 Red. masses --      1.3625                 1.2118                 8.3895
 Frc consts  --      0.5054                 0.4561                 3.2978
 IR Inten    --      0.4364                20.5492                23.3230

                     19                     20                     21
                      A                      A                      A
 Frequencies --    842.3666               890.8111               970.8726
 Red. masses --      1.3409                 3.0187                 3.9636
 Frc consts  --      0.5606                 1.4114                 2.2012
 IR Inten    --      9.9216                11.8785                 1.9333

                     22                     23                     24
                      A                      A                      A
 Frequencies --    985.1221               999.1878              1001.1857
 Red. masses --      1.4285                 5.7766                 1.3752
 Frc consts  --      0.8168                 3.3979                 0.8122
 IR Inten    --      1.0063                 3.8909                 0.0728

                     25                     26                     27
                      A                      A                      A
 Frequencies --   1008.0686              1072.4979              1083.7628
 Red. masses --      2.3869                 1.3748                 1.3591
 Frc consts  --      1.4291                 0.9317                 0.9406
 IR Inten    --     18.2402                14.4763                 0.8730

                     28                     29                     30
                      A                      A                      A
 Frequencies --   1100.3698              1112.9204              1131.0777
 Red. masses --      2.4359                 1.6390                 1.1942
 Frc consts  --      1.7377                 1.1961                 0.9001
 IR Inten    --      1.8894                 2.8027                 1.5744

                     31                     32                     33
                      A                      A                      A
 Frequencies --   1138.3224              1165.7320              1190.6411
 Red. masses --      1.4262                 1.3650                 2.2483
 Frc consts  --      1.0888                 1.0929                 1.8779
 IR Inten    --      6.9561                13.7272                14.1453

                     34                     35                     36
                      A                      A                      A
 Frequencies --   1205.4581              1233.1066              1275.3416
 Red. masses --      1.3938                 2.2782                 2.7562
 Frc consts  --      1.1933                 2.0410                 2.6413
 IR Inten    --      1.0748                 0.5356                11.0447

                     37                     38                     39
                      A                      A                      A
 Frequencies --   1294.8636              1349.9134              1409.9831
 Red. masses --      3.2883                 1.7701                 1.5827
 Frc consts  --      3.2484                 1.9004                 1.8538
 IR Inten    --     10.8376                25.2521               122.3191

                     40                     41                     42
                      A                      A                      A
 Frequencies --   1428.7984              1459.9725              1487.1130
 Red. masses --      2.0500                 1.4191                 1.1813
 Frc consts  --      2.4657                 1.7821                 1.5393
 IR Inten    --      6.3075               178.0669                 1.1623

                     43                     44                     45
                      A                      A                      A
 Frequencies --   1489.4977              1509.0064              1524.9191
 Red. masses --      1.9412                 1.2303                 1.2650
 Frc consts  --      2.5375                 1.6506                 1.7332
 IR Inten    --      0.8672               133.6404                38.4508

                     46                     47                     48
                      A                      A                      A
 Frequencies --   1536.5796              1557.5745              1600.5568
 Red. masses --      1.3175                 1.7881                 5.9227
 Frc consts  --      1.8328                 2.5559                 8.9394
 IR Inten    --      1.8317               247.6985               106.4566

                     49                     50                     51
                      A                      A                      A
 Frequencies --   1654.7481              3031.7014              3113.0278
 Red. masses --      5.4420                 1.0539                 1.0874
 Frc consts  --      8.7795                 5.7073                 6.2089
 IR Inten    --    322.2122                62.7546                38.1962

                     52                     53                     54
                      A                      A                      A
 Frequencies --   3131.1639              3151.9327              3161.4851
 Red. masses --      1.0798                 1.0538                 1.0900
 Frc consts  --      6.2372                 6.1682                 6.4190
 IR Inten    --     22.5370                16.6617                28.2362

                     55                     56                     57
                      A                      A                      A
 Frequencies --   3163.5344              3166.5894              3177.9582
 Red. masses --      1.0909                 1.0575                 1.1052
 Frc consts  --      6.4325                 6.2475                 6.5762
 IR Inten    --     42.1070                 8.0958                10.7891

                     58                     59                     60
                      A                      A                      A
 Frequencies --   3230.8577              3231.7483              3252.3741
 Red. masses --      1.1192                 1.0953                 1.1169
 Frc consts  --      6.8832                 6.7400                 6.9606
 IR Inten    --      5.8540                12.2802                16.8752

 - Thermochemistry -
 -------------------
 Temperature   298.150 Kelvin.  Pressure   1.00000 Atm.
 Atom     1 has atomic number  6 and mass  12.00000

 Molecular mass:   149.09530 amu.
 Principal axes and moments of inertia in atomic units:
                           1         2         3
     Eigenvalues --   742.455142231.744022860.87056
           X            0.99998   0.00568   0.00050
           Y           -0.00568   0.99998   0.00196
           Z           -0.00049  -0.00196   1.00000
 This molecule is an asymmetric top.
 Rotational symmetry number  1.
 Warning -- assumption of classical behavior for rotation
           may cause significant error
 Rotational temperatures (Kelvin)      0.11666     0.03881     0.03028
 Rotational constants (GHZ):           2.43077     0.80867     0.63084
 Zero-point vibrational energy     485865.2 (Joules/Mol)
                                  116.12458 (Kcal/Mol)
 Warning -- explicit consideration of  13 degrees of freedom as
           vibrations may cause significant error
 Vibrational temperatures:    101.30   107.97   120.77   192.67   235.88
          (Kelvin)            310.05   441.34   522.19   583.23   603.64
                              744.43   784.31   858.73   939.71  1076.54
                             1141.57  1149.96  1175.20  1211.98  1281.68
                             1396.87  1417.37  1437.61  1440.48  1450.39
                             1543.09  1559.29  1583.19  1601.24  1627.37
                             1637.79  1677.23  1713.07  1734.39  1774.17
                             1834.93  1863.02  1942.22  2028.65  2055.72
                             2100.57  2139.62  2143.05  2171.12  2194.02
                             2210.80  2241.00  2302.84  2380.81  4361.94
                             4478.95  4505.05  4534.93  4548.67  4551.62
                             4556.02  4572.37  4648.48  4649.76  4679.44

 Zero-point correction=                           0.185056 (Hartree/Particle)
 Thermal correction to Energy=                    0.195052
 Thermal correction to Enthalpy=                  0.195996
 Thermal correction to Gibbs Free Energy=         0.148995
 Sum of electronic and zero-point Energies=           -475.547297
 Sum of electronic and thermal Energies=              -475.537301
 Sum of electronic and thermal Enthalpies=            -475.536357
 Sum of electronic and thermal Free Energies=         -475.583358

                     E (Thermal)             CV                S
                      KCal/Mol        Cal/Mol-Kelvin    Cal/Mol-Kelvin
 Total                  122.397             37.314             98.922
 Electronic               0.000              0.000              0.000
 Translational            0.889              2.981             40.909
 Rotational               0.889              2.981             29.940
 Vibrational            120.619             31.352             28.074
 Vibration     1          0.598              1.968              4.142
 Vibration     2          0.599              1.966              4.016
 Vibration     3          0.601              1.960              3.797
 Vibration     4          0.613              1.919              2.889
 Vibration     5          0.623              1.887              2.504
 Vibration     6          0.645              1.817              1.997
 Vibration     7          0.697              1.661              1.380
 Vibration     8          0.737              1.549              1.109
 Vibration     9          0.770              1.459              0.943
 Vibration    10          0.782              1.428              0.894
 Vibration    11          0.872              1.211              0.616
 Vibration    12          0.900              1.150              0.554
 Vibration    13          0.955              1.038              0.455

 Optimization completed.
    -- Stationary point found.

 1\1\GINC-NODE310\Freq\RB3LYP\6-31G(d)\C8H11N3\VSC10255\08-Dec-2020\0\\
 #N Geom=AllCheck Guess=TCheck SCRF=Check GenChk RB3LYP/6-31G(d) Freq\\
 CID_22147184_JID_1932_neutraal\\0,1\C,0.9491708134,-0.1223544052,0.083
 5432863\N,0.5330723635,0.1000279706,-1.2974471502\C,-0.5438885318,-0.6
 961591125,-1.8201275562\C,-0.365371741,-1.3952689564,-3.1355294394\C,-
 0.3674830222,-2.1946808074,-1.8581441739\C,0.8371017709,1.3002591075,-
 1.8919627555\N,0.2247665637,1.5927342469,-3.0611035516\C,0.5690702324,
 2.7467432982,-3.6288520773\C,1.4947819289,3.6289859786,-3.0725627483\C

 Normal termination of Gaussian 16 at Tue Dec  8 20:48:55 2020.

 ----------------------------------------------------------------------
 # B3LYP/6-311++G(d,p) empiricaldispersion=gd3bj scf=xqc pop=npa geom=c
 heck
 ----------------------------------------------------------------------

 --------------------------------------
 CID_22147184_JID_1932_Energie_neutraal
 --------------------------------------
 Structure from the checkpoint file:  "JID_1932.chk"
 Charge =  0 Multiplicity = 1

 SCF Done:  E(RB3LYP) =  -475.857825823     A.U. after   14 cycles
 Normal termination of Gaussian 16 at Tue Dec  8 20:51:21 2020.

 ----------------------------------------------------------------------
 # B3LYP/6-311++G(d,p) empiricaldispersion=gd3bj scf=xqc pop=npa geom=c
 heck
 ----------------------------------------------------------------------

 ------------------------------------
 CID_22147184_JID_1932_Energie_kation
 ------------------------------------
 Structure from the checkpoint file:  "JID_1932.chk"
 Charge =  1 Multiplicity = 2

 SCF Done:  E(UB3LYP) =  -475.570198843     A.U. after   21 cycles
 Normal termination of Gaussian 16 at Tue Dec  8 20:55:39 2020.
 Gaussian 16:  ES64L-G16RevA.03 25-Dec-2016

 -----------------------------------
 CID_22147184_JID_1932_Energie_anion
 -----------------------------------
 Structure from the checkpoint file:  "JID_1932.chk"
 Charge = -1 Multiplicity = 2

                         Standard orientation:
 ---------------------------------------------------------------------
 Center     Atomic      Atomic             Coordinates (Angstroms)
 Number     Number       Type             X           Y           Z
 ---------------------------------------------------------------------
      1          6           0        1.145964    2.047893    0.144565
      2          7           0        0.848370    0.621240    0.068252
      3          6           0        1.862736   -0.308581    0.484724
      4          6           0        2.226651   -1.448329   -0.420508
      5          6           0        3.182740   -0.296547   -0.247106
      6          6           0       -0.465812    0.222727    0.044773
      7          7           0       -0.725768   -1.089397    0.240064
      8          6           0       -2.006354   -1.447825    0.174877
      9          6           0       -3.043250   -0.547569   -0.068304
     10          6           0       -2.657676    0.781370   -0.232513
     11          7           0       -1.389528    1.185198   -0.176048
     12          1           0        2.215515    2.184136   -0.021721
     13          1           0        0.881192    2.470367    1.124218
     14          1           0        0.582276    2.588475   -0.616223
     15          1           0        1.893667   -0.509332    1.556849
     16          1           0        2.453483   -2.404122    0.041402
     17          1           0        1.684213   -1.515904   -1.357015
     18          1           0        3.289374    0.393000   -1.079504
     19          1           0        4.087097   -0.440866    0.336865
     20          1           0       -2.210978   -2.506617    0.331838
     21          1           0       -4.080434   -0.858495   -0.112633
     22          1           0       -3.396912    1.561240   -0.413001
 ---------------------------------------------------------------------

 SCF Done:  E(UB3LYP) =  -475.840982523     A.U. after   33 cycles
 SCF Done:  E(UB3LYP) =  -475.840982523     a.u. after    2 cycles

 The electronic state is 2-A.
 Alpha  occ. eigenvalues --  -14.21817 -14.17257 -14.16981 -10.14052 -10.09553
 Alpha  occ. eigenvalues --  -10.08283 -10.07954 -10.07726 -10.06377 -10.06061
 Alpha  occ. eigenvalues --  -10.04708  -0.87731  -0.81239  -0.75601  -0.73382
 Alpha  occ. eigenvalues --   -0.65041  -0.58517  -0.53723  -0.51495  -0.49366
 Alpha  occ. eigenvalues --   -0.46321  -0.41907  -0.39345  -0.38470  -0.36159
 Alpha  occ. eigenvalues --   -0.34345  -0.32804  -0.30540  -0.29597  -0.28847
 Alpha  occ. eigenvalues --   -0.27720  -0.27083  -0.25733  -0.21082  -0.18936
 Alpha  occ. eigenvalues --   -0.18780  -0.18550  -0.17189  -0.11673  -0.09904
 Alpha  occ. eigenvalues --    0.05298
 Alpha virt. eigenvalues --    0.06952   0.07645   0.08284   0.09169   0.09442
 Alpha virt. eigenvalues --    0.09811   0.11156   0.11751   0.11877   0.12290
 Alpha virt. eigenvalues --    0.12730   0.13527   0.15864   0.16291   0.16797

  Beta  occ. eigenvalues --  -14.21824 -14.17168 -14.16783 -10.14067 -10.09540
  Beta  occ. eigenvalues --  -10.08139 -10.07744 -10.07703 -10.06350 -10.06055
  Beta  occ. eigenvalues --  -10.04754  -0.87594  -0.81119  -0.75275  -0.73330
  Beta  occ. eigenvalues --   -0.64857  -0.58450  -0.53596  -0.51186  -0.49308
  Beta  occ. eigenvalues --   -0.46227  -0.41845  -0.39210  -0.38400  -0.36071
  Beta  occ. eigenvalues --   -0.34288  -0.32652  -0.30418  -0.29533  -0.28413
  Beta  occ. eigenvalues --   -0.27597  -0.27030  -0.25699  -0.20966  -0.18859
  Beta  occ. eigenvalues --   -0.18364  -0.17683  -0.16961  -0.11502  -0.09639
  Beta virt. eigenvalues --    0.07633   0.08065   0.08786   0.09391   0.09553
  Beta virt. eigenvalues --    0.09893   0.10219   0.11439   0.12066   0.12185
  Beta virt. eigenvalues --    0.12471   0.13000   0.13834   0.15933   0.16234

 Mulliken charges and spin densities:
               1          2
     1  C    0.878272  -1.194500
     2  N    0.085145   0.001693
     3  C   -1.415164   1.303858
     4  C    0.324696  -0.612215
     5  C    1.193925  -1.503182
     6  C   -0.245781  -0.333723
     7  N   -0.145844   0.086379
     8  C   -0.034767   0.224689
     9  C    0.492045  -0.830874
    10  C   -0.127830   0.273555
    11  N   -0.231896   0.138070
    12  H   -0.403899   0.523961
    13  H   -0.058476   0.214840
    14  H   -0.094448   0.271576
    15  H   -0.298925   0.509379
    16  H    0.084007   0.054650
    17  H    0.103183   0.054966
    18  H    0.088566   0.042721
    19  H   -0.496955   0.638167
    20  H   -0.137570   0.284268
    21  H   -0.379653   0.513720
    22  H   -0.178632   0.338002
 Sum of Mulliken charges =  -1.00000   1.00000

 Dipole moment (field-independent basis, Debye):
    X=             -0.7175    Y=             -0.8621    Z=             -1.3523  Tot=              1.7569
 Quadrupole moment (field-independent basis, Debye-Ang):
   XX=           -130.6917   YY=            -99.1284   ZZ=            -86.1517
   XY=             -2.3647   XZ=             -4.4763   YZ=             -0.7074

 Summary of Natural Population Analysis:

                                       Natural Population
                Natural  -----------------------------------------------
    Atom  No    Charge         Core      Valence    Rydberg      Total
 -----------------------------------------------------------------------
      C    1   -0.17386      0.99964     2.16603    0.00819     3.17386
      N    2   -0.25371      0.99962     2.74203    0.01206     3.75371
      C    3   -0.00812      0.99956     1.99457    0.01399     3.00812
      C    4   -0.18926      0.99961     2.17961    0.01004     3.18926
      C    5   -0.20510      0.99962     2.19550    0.00998     3.20510
      C    6    0.30557      0.99957     1.67784    0.01702     2.69443
      N    7   -0.26235      0.99968     2.75245    0.01022     3.76235
      C    8    0.08302      0.99960     1.90303    0.01436     2.91698
      C    9   -0.18520      0.99956     2.17606    0.00958     3.18520
      C   10    0.07226      0.99959     1.91382    0.01432     2.92774
      N   11   -0.25383      0.99968     2.74304    0.01111     3.75383
      H   12    0.09550      0.00000     0.40321    0.00129     0.40450
      H   13    0.08947      0.00000     0.40911    0.00142     0.41053
      H   14    0.10663      0.00000     0.39162    0.00175     0.39337
      H   15    0.09649      0.00000     0.40196    0.00155     0.40351
      H   16    0.10107      0.00000     0.39792    0.00101     0.39893
      H   17    0.10633      0.00000     0.39238    0.00128     0.39367
      H   18    0.10293      0.00000     0.39593    0.00114     0.39707
      H   19    0.10407      0.00000     0.39376    0.00217     0.39593
      H   20    0.08242      0.00000     0.41645    0.00113     0.41758
      H   21    0.10216      0.00000     0.39659    0.00125     0.39784
      H   22    0.08351      0.00000     0.41534    0.00115     0.41649
 =======================================================================
   * Total *    0.00000     10.99571    28.85828    0.14601    40.00000

 Normal termination of Gaussian 16 at Tue Dec  8 21:09:38 2020.
