 Gaussian 16, Revision A.03,

 -----------------------------------------------------------
 # opt freq B3LYP/6-31G(d) empiricaldispersion=gd3bj scf=xqc
 -----------------------------------------------------------

 ------------------------------
 CID_65276325_JID_1859_neutraal
 ------------------------------
 Symbolic Z-matrix:
 Charge =  0 Multiplicity = 1

 SCF Done:  E(RB3LYP) =  -853.080266593     A.U. after   15 cycles
 SCF Done:  E(RB3LYP) =  -853.083259567     A.U. after   12 cycles
 SCF Done:  E(RB3LYP) =  -853.083422663     A.U. after   12 cycles
 SCF Done:  E(RB3LYP) =  -853.083784234     A.U. after   12 cycles
 SCF Done:  E(RB3LYP) =  -853.083896452     A.U. after   11 cycles
 SCF Done:  E(RB3LYP) =  -853.083947906     A.U. after   12 cycles
 SCF Done:  E(RB3LYP) =  -853.083988232     A.U. after   10 cycles
 SCF Done:  E(RB3LYP) =  -853.084027018     A.U. after   11 cycles
 SCF Done:  E(RB3LYP) =  -853.084042600     A.U. after   10 cycles
 SCF Done:  E(RB3LYP) =  -853.084062173     A.U. after   11 cycles
 SCF Done:  E(RB3LYP) =  -853.087853017     A.U. after   11 cycles
 SCF Done:  E(RB3LYP) =  -853.087865967     A.U. after   11 cycles
 SCF Done:  E(RB3LYP) =  -853.087869069     A.U. after   10 cycles
 SCF Done:  E(RB3LYP) =  -853.087869540     A.U. after    8 cycles
 SCF Done:  E(RB3LYP) =  -853.087869590     A.U. after    7 cycles
 SCF Done:  E(RB3LYP) =  -853.087869607     A.U. after    8 cycles
 Optimization completed.
    -- Stationary point found.
 Normal termination of Gaussian 16 at Tue Dec  8 22:02:16 2020.

 --------------------------------------------------------------------
 #N Geom=AllCheck Guess=TCheck SCRF=Check GenChk RB3LYP/6-31G(d) Freq
 --------------------------------------------------------------------

 Structure from the checkpoint file:  "JID_1859.chk"
 ------------------------------
 CID_65276325_JID_1859_neutraal
 ------------------------------
 Charge =  0 Multiplicity = 1

 SCF Done:  E(RB3LYP) =  -853.087869607     A.U. after    1 cycles

  Exact polarizability: 127.270   8.685 103.203 -11.275   8.145  77.289
 Approx polarizability: 185.666  16.255 168.639 -25.377  20.540 123.160

                      1                      2                      3
                      A                      A                      A
 Frequencies --     31.8387                47.0136                66.6463
 Red. masses --      5.1472                 4.0488                 4.7460
 Frc consts  --      0.0031                 0.0053                 0.0124
 IR Inten    --      0.2632                 2.0524                 0.5575

                      4                      5                      6
                      A                      A                      A
 Frequencies --    135.4322               183.5062               239.9337
 Red. masses --      2.9495                 5.1088                 3.7471
 Frc consts  --      0.0319                 0.1014                 0.1271
 IR Inten    --      4.8502                 0.7250                 0.7415

                      7                      8                      9
                      A                      A                      A
 Frequencies --    259.6747               287.1977               318.0978
 Red. masses --      1.5689                 1.8904                 3.5171
 Frc consts  --      0.0623                 0.0919                 0.2097
 IR Inten    --      0.0406                 1.5314                 3.6161

                     10                     11                     12
                      A                      A                      A
 Frequencies --    348.5487               366.7153               389.2312
 Red. masses --      1.2379                 1.2377                 1.7549
 Frc consts  --      0.0886                 0.0981                 0.1566
 IR Inten    --     98.8480                16.3059                10.7200

                     13                     14                     15
                      A                      A                      A
 Frequencies --    412.9343               455.6526               558.4578
 Red. masses --      2.7307                 2.7099                 3.4690
 Frc consts  --      0.2743                 0.3315                 0.6374
 IR Inten    --      3.4224                10.9376                22.0499

                     16                     17                     18
                      A                      A                      A
 Frequencies --    574.0867               600.6680               659.0777
 Red. masses --      2.9127                 4.0273                 6.7239
 Frc consts  --      0.5656                 0.8561                 1.7209
 IR Inten    --      7.6466                 2.5710                10.3412

                     19                     20                     21
                      A                      A                      A
 Frequencies --    697.9560               746.8062               779.9975
 Red. masses --     11.1166                 2.7539                 5.0988
 Frc consts  --      3.1906                 0.9049                 1.8277
 IR Inten    --     11.5642                 4.4542                 1.7941

                     22                     23                     24
                      A                      A                      A
 Frequencies --    870.6583               890.1714               922.7520
 Red. masses --      2.4321                 3.4420                 1.6852
 Frc consts  --      1.0862                 1.6070                 0.8454
 IR Inten    --     33.2540                30.3588                94.2606

                     25                     26                     27
                      A                      A                      A
 Frequencies --    926.6727               939.7059               994.0639
 Red. masses --      1.4072                 2.2327                 1.9787
 Frc consts  --      0.7120                 1.1616                 1.1520
 IR Inten    --      2.7011                 5.7691                 0.5101

                     28                     29                     30
                      A                      A                      A
 Frequencies --    996.3657              1052.0454              1076.3339
 Red. masses --      1.4786                 2.3888                 1.6131
 Frc consts  --      0.8649                 1.5577                 1.1010
 IR Inten    --      1.2151                 9.2138                 1.1113

                     31                     32                     33
                      A                      A                      A
 Frequencies --   1120.2635              1155.6970              1196.8996
 Red. masses --      2.1467                 1.9094                 2.4327
 Frc consts  --      1.5873                 1.5025                 2.0533
 IR Inten    --     24.0651                25.4530               105.1376

                     34                     35                     36
                      A                      A                      A
 Frequencies --   1272.7287              1276.6374              1287.0952
 Red. masses --      2.5549                 1.4221                 1.7302
 Frc consts  --      2.4384                 1.3656                 1.6887
 IR Inten    --     39.1031                29.2238                25.3265

                     37                     38                     39
                      A                      A                      A
 Frequencies --   1315.8294              1320.9197              1376.3981
 Red. masses --      1.4563                 1.3578                 1.3484
 Frc consts  --      1.4856                 1.3958                 1.5051
 IR Inten    --      0.4035                28.7079                 5.3206

                     40                     41                     42
                      A                      A                      A
 Frequencies --   1398.6772              1426.3416              1430.1758
 Red. masses --      1.3247                 1.2910                 1.2576
 Frc consts  --      1.5269                 1.5474                 1.5155
 IR Inten    --     43.8547                15.4518                 2.8600

                     43                     44                     45
                      A                      A                      A
 Frequencies --   1449.3245              1491.1661              1499.8896
 Red. masses --      1.4361                 1.8613                 1.1156
 Frc consts  --      1.7773                 2.4385                 1.4787
 IR Inten    --     14.7406                31.5297                28.9226

                     46                     47                     48
                      A                      A                      A
 Frequencies --   1510.7231              1520.6176              1547.1220
 Red. masses --      1.2074                 1.0504                 1.0558
 Frc consts  --      1.6236                 1.4311                 1.4890
 IR Inten    --      8.2430                 5.1115                14.3577

                     49                     50                     51
                      A                      A                      A
 Frequencies --   1573.1029              1626.3129              1708.0246
 Red. masses --      2.6213                 5.0056                 1.0892
 Frc consts  --      3.8219                 7.8003                 1.8721
 IR Inten    --     78.9720               388.8771                20.0209

                     52                     53                     54
                      A                      A                      A
 Frequencies --   3009.9049              3025.4781              3052.9396
 Red. masses --      1.0747                 1.0712                 1.0676
 Frc consts  --      5.7363                 5.7768                 5.8629
 IR Inten    --     17.0994                73.3786                 1.2849

                     55                     56                     57
                      A                      A                      A
 Frequencies --   3053.9153              3065.8352              3119.4100
 Red. masses --      1.0623                 1.0778                 1.1024
 Frc consts  --      5.8372                 5.9686                 6.3201
 IR Inten    --     31.1942                74.6379                35.7653

                     58                     59                     60
                      A                      A                      A
 Frequencies --   3136.8196              3155.0254              3224.7274
 Red. masses --      1.1015                 1.0941                 1.0926
 Frc consts  --      6.3856                 6.4169                 6.6941
 IR Inten    --     22.8821                 3.9757                10.8389

                     61                     62                     63
                      A                      A                      A
 Frequencies --   3464.7873              3554.8259              3637.3562
 Red. masses --      1.0490                 1.0929                 1.0771
 Frc consts  --      7.4198                 8.1369                 8.3964
 IR Inten    --     12.0049                19.4316                42.6701

 - Thermochemistry -
 -------------------
 Temperature   298.150 Kelvin.  Pressure   1.00000 Atm.
 Atom     1 has atomic number  6 and mass  12.00000

 Molecular mass:   172.07827 amu.
 Principal axes and moments of inertia in atomic units:
                           1         2         3
     Eigenvalues --   982.860143106.796673493.49835
           X            1.00000   0.00116  -0.00184
           Y           -0.00114   0.99992   0.01250
           Z            0.00185  -0.01250   0.99992
 This molecule is an asymmetric top.
 Rotational symmetry number  1.
 Warning -- assumption of classical behavior for rotation
           may cause significant error
 Rotational temperatures (Kelvin)      0.08812     0.02788     0.02479
 Rotational constants (GHZ):           1.83621     0.58090     0.51660
 Zero-point vibrational energy     507415.3 (Joules/Mol)
                                  121.27517 (Kcal/Mol)
 Warning -- explicit consideration of  17 degrees of freedom as
           vibrations may cause significant error
 Vibrational temperatures:     45.81    67.64    95.89   194.86   264.02
          (Kelvin)            345.21   373.61   413.21   457.67   501.48
                              527.62   560.02   594.12   655.58   803.50
                              825.98   864.23   948.27  1004.20  1074.49
                             1122.24  1252.68  1280.76  1327.63  1333.28
                             1352.03  1430.24  1433.55  1513.66  1548.60
                             1611.81  1662.79  1722.07  1831.17  1836.80
                             1851.84  1893.19  1900.51  1980.33  2012.38
                             2052.19  2057.70  2085.25  2145.46  2158.01
                             2173.59  2187.83  2225.96  2263.34  2339.90
                             2457.47  4330.58  4352.99  4392.50  4393.90
                             4411.05  4488.14  4513.18  4539.38  4639.66
                             4985.06  5114.60  5233.34

 Zero-point correction=                           0.193264 (Hartree/Particle)
 Thermal correction to Energy=                    0.204778
 Thermal correction to Enthalpy=                  0.205722
 Thermal correction to Gibbs Free Energy=         0.154664
 Sum of electronic and zero-point Energies=           -852.894605
 Sum of electronic and thermal Energies=              -852.883091
 Sum of electronic and thermal Enthalpies=            -852.882147
 Sum of electronic and thermal Free Energies=         -852.933206

                     E (Thermal)             CV                S
                      KCal/Mol        Cal/Mol-Kelvin    Cal/Mol-Kelvin
 Total                  128.500             42.637            107.461
 Electronic               0.000              0.000              0.000
 Translational            0.889              2.981             41.336
 Rotational               0.889              2.981             30.746
 Vibrational            126.723             36.675             35.380
 Vibration     1          0.594              1.983              5.711
 Vibration     2          0.595              1.979              4.939
 Vibration     3          0.598              1.970              4.250
 Vibration     4          0.613              1.918              2.867
 Vibration     5          0.631              1.862              2.292
 Vibration     6          0.657              1.779              1.803
 Vibration     7          0.668              1.746              1.664
 Vibration     8          0.684              1.697              1.490
 Vibration     9          0.704              1.639              1.320
 Vibration    10          0.726              1.578              1.173
 Vibration    11          0.740              1.541              1.093
 Vibration    12          0.757              1.493              1.003
 Vibration    13          0.777              1.442              0.916
 Vibration    14          0.814              1.348              0.779
 Vibration    15          0.914              1.121              0.527
 Vibration    16          0.930              1.087              0.496
 Vibration    17          0.959              1.030              0.449

 Optimization completed.
    -- Stationary point found.
 Normal termination of Gaussian 16 at Tue Dec  8 22:07:09 2020.

 ----------------------------------------------------------------------
 # B3LYP/6-311++G(d,p) empiricaldispersion=gd3bj scf=xqc pop=npa geom=c
 heck
 ----------------------------------------------------------------------

 --------------------------------------
 CID_65276325_JID_1859_Energie_neutraal
 --------------------------------------
 Structure from the checkpoint file:  "JID_1859.chk"
 Charge =  0 Multiplicity = 1

 SCF Done:  E(RB3LYP) =  -853.250419823     A.U. after   15 cycles
 Normal termination of Gaussian 16 at Tue Dec  8 22:09:22 2020.

 ----------------------------------------------------------------------
 # B3LYP/6-311++G(d,p) empiricaldispersion=gd3bj scf=xqc pop=npa geom=c
 heck
 ----------------------------------------------------------------------

 ------------------------------------
 CID_65276325_JID_1859_Energie_kation
 ------------------------------------
 Structure from the checkpoint file:  "JID_1859.chk"
 Charge =  1 Multiplicity = 2

 SCF Done:  E(UB3LYP) =  -852.948188895     A.U. after   23 cycles
 Normal termination of Gaussian 16 at Tue Dec  8 22:14:25 2020.
 Gaussian 16:  ES64L-G16RevA.03 25-Dec-2016

 ----------------------------------------------------------------------
 # B3LYP/6-311++G(d,p) empiricaldispersion=gd3bj scf=xqc pop=npa geom=c
 heck
 ----------------------------------------------------------------------

 -----------------------------------
 CID_65276325_JID_1859_Energie_anion
 -----------------------------------
 Structure from the checkpoint file:  "JID_1859.chk"
 Charge = -1 Multiplicity = 2

                         Standard orientation:
 ---------------------------------------------------------------------
 Center     Atomic      Atomic             Coordinates (Angstroms)
 Number     Number       Type             X           Y           Z
 ---------------------------------------------------------------------
      1          6           0        2.906851   -1.335063   -0.561967
      2          6           0        2.644037   -0.346366    0.577296
      3          6           0        2.424657    1.096489    0.059179
      4          6           0        1.233828    1.336177   -0.881936
      5          7           0       -0.063354    1.434247   -0.210170
      6          6           0       -0.995298    0.462684   -0.222496
      7          7           0       -0.826139   -0.730980   -0.761258
      8          6           0       -1.977340   -1.452889   -0.586208
      9          7           0       -3.017091   -0.958166    0.034736
     10         16           0       -2.600551    0.629261    0.493916
     11          7           0        1.587711   -0.897852    1.429806
     12          1           0        2.007358   -1.477195   -1.172045
     13          1           0        3.183059   -2.309307   -0.148765
     14          1           0        3.716306   -0.987466   -1.213630
     15          1           0        3.554059   -0.297437    1.192991
     16          1           0        2.335179    1.777575    0.918214
     17          1           0        3.331930    1.406733   -0.478535
     18          1           0        1.385044    2.276323   -1.424892
     19          1           0        1.147211    0.541884   -1.624854
     20          1           0       -0.280507    2.294705    0.270237
     21          1           0       -2.025763   -2.468436   -0.967254
     22          1           0        1.298706   -0.215580    2.128847
     23          1           0        0.767922   -1.106913    0.862020
 ---------------------------------------------------------------------

 SCF Done:  E(UB3LYP) =  -853.246408785     A.U. after   32 cycles

 The electronic state is 2-A.
 Alpha  occ. eigenvalues --  -88.78032 -14.23599 -14.21573 -14.20068 -14.17590
 Alpha  occ. eigenvalues --  -10.16726 -10.12888 -10.09937 -10.09239 -10.05820
 Alpha  occ. eigenvalues --  -10.05471  -7.86470  -5.82860  -5.82433  -5.81944
 Alpha  occ. eigenvalues --   -0.90212  -0.83818  -0.77647  -0.75604  -0.67342
 Alpha  occ. eigenvalues --   -0.64329  -0.61025  -0.54781  -0.51971  -0.47479
 Alpha  occ. eigenvalues --   -0.45774  -0.41888  -0.38599  -0.37421  -0.35881
 Alpha  occ. eigenvalues --   -0.34935  -0.33632  -0.33443  -0.29791  -0.28577
 Alpha  occ. eigenvalues --   -0.27671  -0.26942  -0.26006  -0.24769  -0.23043
 Alpha  occ. eigenvalues --   -0.21574  -0.20759  -0.17865  -0.17608  -0.13070
 Alpha  occ. eigenvalues --   -0.11694   0.04436
 Alpha virt. eigenvalues --    0.07354   0.08191   0.08641   0.08821   0.09440
 Alpha virt. eigenvalues --    0.10418   0.11293   0.11486   0.11807   0.12527
 Alpha virt. eigenvalues --    0.13573   0.14090   0.14498   0.15042   0.15566

  Beta  occ. eigenvalues --  -88.78009 -14.23518 -14.21484 -14.20064 -14.17578
  Beta  occ. eigenvalues --  -10.16680 -10.12879 -10.09914 -10.09235 -10.05783
  Beta  occ. eigenvalues --  -10.05461  -7.86446  -5.82803  -5.82418  -5.81920
  Beta  occ. eigenvalues --   -0.90128  -0.83680  -0.77618  -0.75489  -0.67260
  Beta  occ. eigenvalues --   -0.64241  -0.60958  -0.54704  -0.51817  -0.47396
  Beta  occ. eigenvalues --   -0.45664  -0.41705  -0.38556  -0.37306  -0.35800
  Beta  occ. eigenvalues --   -0.34870  -0.33569  -0.33370  -0.29734  -0.28511
  Beta  occ. eigenvalues --   -0.27625  -0.26770  -0.25961  -0.24709  -0.22979
  Beta  occ. eigenvalues --   -0.21483  -0.20618  -0.17789  -0.17528  -0.13032
  Beta  occ. eigenvalues --   -0.11591
  Beta virt. eigenvalues --    0.07286   0.08419   0.08697   0.08931   0.09383
  Beta virt. eigenvalues --    0.09849   0.10709   0.11701   0.12094   0.12136
  Beta virt. eigenvalues --    0.12774   0.13839   0.14183   0.14554   0.15552

 Mulliken charges and spin densities:
               1          2
     1  C   -0.195424  -0.488110
     2  C   -0.209619   0.341047
     3  C    0.594359  -1.088628
     4  C    0.630042  -0.801725
     5  N   -0.016993   0.032498
     6  C    0.479227  -0.636368
     7  N   -0.150077  -0.070275
     8  C   -0.122005  -0.071134
     9  N   -0.230522   0.022146
    10  S   -0.208118   0.246905
    11  N   -0.267610  -0.043696
    12  H    0.100512   0.029740
    13  H    0.116330   0.034415
    14  H   -0.045540   0.168002
    15  H   -0.014667   0.196607
    16  H   -0.365360   0.555481
    17  H   -0.138095   0.266452
    18  H   -0.998078   1.213122
    19  H    0.306869  -0.127279
    20  H   -0.713537   1.055975
    21  H    0.153470   0.007416
    22  H    0.052640   0.153837
    23  H    0.242194   0.003572
 Sum of Mulliken charges =  -1.00000   1.00000

 Dipole moment (field-independent basis, Debye):
    X=             -1.2086    Y=             -6.2629    Z=             -1.8751  Tot=              6.6483
 Quadrupole moment (field-independent basis, Debye-Ang):
   XX=           -122.3176   YY=           -124.2540   ZZ=            -98.7800
   XY=             -6.6686   XZ=              0.9919   YZ=              2.0686

 Summary of Natural Population Analysis:

                                       Natural Population
                Natural  -----------------------------------------------
    Atom  No    Charge         Core      Valence    Rydberg      Total
 -----------------------------------------------------------------------
      C    1   -0.29163      0.99964     2.28704    0.00494     3.29163
      C    2   -0.01341      0.99962     2.00170    0.01209     3.01341
      C    3   -0.19916      0.99960     2.18943    0.01013     3.19916
      C    4   -0.09175      0.99960     2.07852    0.01363     3.09175
      N    5   -0.30502      0.99963     2.78993    0.01546     3.80502
      C    6    0.14444      0.99960     1.83217    0.02379     2.85556
      N    7   -0.31281      0.99965     2.80248    0.01068     3.81281
      C    8    0.11716      0.99969     1.86490    0.01825     2.88284
      N    9   -0.31755      0.99974     2.80819    0.00962     3.81755
      S   10    0.25232      4.99948     2.72269    0.02552     7.74768
      N   11   -0.43025      0.99977     2.92077    0.00971     3.93025
      H   12    0.10216      0.00000     0.39674    0.00110     0.39784
      H   13    0.10065      0.00000     0.39848    0.00087     0.39935
      H   14    0.09654      0.00000     0.40273    0.00073     0.40346
      H   15    0.08422      0.00000     0.41387    0.00191     0.41578
      H   16    0.10308      0.00000     0.39392    0.00300     0.39692
      H   17    0.10012      0.00000     0.39809    0.00179     0.39988
      H   18    0.10350      0.00000     0.39361    0.00289     0.39650
      H   19    0.10387      0.00000     0.39365    0.00248     0.39613
      H   20    0.21025      0.00000     0.26284    0.02691     0.28975
      H   21    0.08824      0.00000     0.41076    0.00100     0.41176
      H   22    0.17453      0.00000     0.32335    0.00212     0.32547
      H   23    0.18051      0.00000     0.31660    0.00290     0.31949
 =======================================================================
   * Total *   -0.00000     14.99601    30.80246    0.20153    46.00000

 Normal termination of Gaussian 16 at Tue Dec  8 22:21:41 2020.
