 Gaussian 16, Revision A.03,

 -----------------------------------------------------------
 # opt freq B3LYP/6-31G(d) empiricaldispersion=gd3bj scf=xqc
 -----------------------------------------------------------

 -------------------------------
 CID_117110976_JID_3588_neutraal
 -------------------------------
 Symbolic Z-matrix:
 Charge =  0 Multiplicity = 1

 SCF Done:  E(RB3LYP) =  -539.554840516     A.U. after   13 cycles
 SCF Done:  E(RB3LYP) =  -539.558044274     A.U. after   12 cycles
 SCF Done:  E(RB3LYP) =  -539.558490937     A.U. after   11 cycles
 SCF Done:  E(RB3LYP) =  -539.558821498     A.U. after   11 cycles
 SCF Done:  E(RB3LYP) =  -539.558852686     A.U. after   10 cycles
 SCF Done:  E(RB3LYP) =  -539.558858611     A.U. after    9 cycles
 SCF Done:  E(RB3LYP) =  -539.558861289     A.U. after    8 cycles
 SCF Done:  E(RB3LYP) =  -539.558862292     A.U. after    8 cycles
 SCF Done:  E(RB3LYP) =  -539.558862648     A.U. after    7 cycles
 SCF Done:  E(RB3LYP) =  -539.558862767     A.U. after    7 cycles
 SCF Done:  E(RB3LYP) =  -539.558863851     A.U. after    9 cycles
 SCF Done:  E(RB3LYP) =  -539.558864424     A.U. after    9 cycles
 SCF Done:  E(RB3LYP) =  -539.558864978     A.U. after    9 cycles
 SCF Done:  E(RB3LYP) =  -539.558865553     A.U. after    8 cycles
 SCF Done:  E(RB3LYP) =  -539.558865704     A.U. after    8 cycles
 SCF Done:  E(RB3LYP) =  -539.558865738     A.U. after    7 cycles
 Optimization completed.
    -- Stationary point found.
 Normal termination of Gaussian 16 at Sun Dec 13 16:01:24 2020.

 --------------------------------------------------------------------
 #N Geom=AllCheck Guess=TCheck SCRF=Check GenChk RB3LYP/6-31G(d) Freq
 --------------------------------------------------------------------

 Structure from the checkpoint file:  "JID_3588.chk"
 -------------------------------
 CID_117110976_JID_3588_neutraal
 -------------------------------
 Charge =  0 Multiplicity = 1

 SCF Done:  E(RB3LYP) =  -539.558865738     A.U. after    1 cycles

  Exact polarizability: 157.689  -1.950 137.179   1.139   1.240  88.130
 Approx polarizability: 224.275  -2.183 212.921   4.346   4.403 126.295

                      1                      2                      3
                      A                      A                      A
 Frequencies --     23.9186                55.6231                77.4470
 Red. masses --      1.0156                 2.9972                 3.0989
 Frc consts  --      0.0003                 0.0055                 0.0110
 IR Inten    --      0.2683                 0.0557                 0.2473

                      4                      5                      6
                      A                      A                      A
 Frequencies --    109.5881               126.9258               169.7209
 Red. masses --      2.8883                 3.0071                 2.9037
 Frc consts  --      0.0204                 0.0285                 0.0493
 IR Inten    --      0.0250                 0.3465                 0.2537

                      7                      8                      9
                      A                      A                      A
 Frequencies --    208.4010               217.2475               248.8125
 Red. masses --      2.8606                 2.9492                 1.1199
 Frc consts  --      0.0732                 0.0820                 0.0408
 IR Inten    --      0.9440                 1.5616                 0.2368

                     10                     11                     12
                      A                      A                      A
 Frequencies --    254.7049               264.7748               290.8887
 Red. masses --      1.0566                 1.1570                 3.0303
 Frc consts  --      0.0404                 0.0478                 0.1511
 IR Inten    --      0.6060                 0.3425                 2.2485

                     13                     14                     15
                      A                      A                      A
 Frequencies --    323.8919               344.7028               371.7360
 Red. masses --      3.3337                 2.7846                 1.9185
 Frc consts  --      0.2061                 0.1949                 0.1562
 IR Inten    --      0.5325                 1.0740                11.0775

                     16                     17                     18
                      A                      A                      A
 Frequencies --    383.5820               404.6539               459.4224
 Red. masses --      1.2786                 3.2995                 2.6951
 Frc consts  --      0.1108                 0.3183                 0.3352
 IR Inten    --     29.8088                 0.3651                 4.5557

                     19                     20                     21
                      A                      A                      A
 Frequencies --    488.9789               548.0792               553.8661
 Red. masses --      3.4463                 2.9995                 3.9828
 Frc consts  --      0.4855                 0.5309                 0.7199
 IR Inten    --      5.7179                14.4420                 6.5541

                     22                     23                     24
                      A                      A                      A
 Frequencies --    585.9795               616.7486               722.9955
 Red. masses --      3.5835                 3.6529                 4.0769
 Frc consts  --      0.7250                 0.8187                 1.2556
 IR Inten    --      0.6991                 0.4713                 2.5188

                     25                     26                     27
                      A                      A                      A
 Frequencies --    731.4804               785.1975               840.1898
 Red. masses --      4.0261                 3.6863                 1.3534
 Frc consts  --      1.2692                 1.3391                 0.5629
 IR Inten    --     11.9983                 1.5175                13.9682

                     28                     29                     30
                      A                      A                      A
 Frequencies --    901.7182               907.7726               925.5703
 Red. masses --      3.5264                 1.4565                 2.5285
 Frc consts  --      1.6894                 0.7072                 1.2763
 IR Inten    --      7.5581                 1.9132                48.4861

                     31                     32                     33
                      A                      A                      A
 Frequencies --    949.2989               958.4829               989.6757
 Red. masses --      1.6212                 1.3070                 2.3946
 Frc consts  --      0.8608                 0.7075                 1.3819
 IR Inten    --    155.3648                 0.6088                27.1222

                     34                     35                     36
                      A                      A                      A
 Frequencies --   1021.5305              1036.8194              1067.8586
 Red. masses --      1.3984                 1.5543                 1.7398
 Frc consts  --      0.8598                 0.9844                 1.1689
 IR Inten    --      0.8350                 9.5390                70.0558

                     37                     38                     39
                      A                      A                      A
 Frequencies --   1070.1473              1075.0070              1129.7924
 Red. masses --      1.6483                 1.5094                 1.2389
 Frc consts  --      1.1122                 1.0278                 0.9317
 IR Inten    --     17.4090                20.1254                 7.0455

                     40                     41                     42
                      A                      A                      A
 Frequencies --   1142.3898              1157.6708              1182.8324
 Red. masses --      2.0624                 2.1096                 1.4007
 Frc consts  --      1.5858                 1.6658                 1.1546
 IR Inten    --     36.6388                 8.3303                 0.7982

                     43                     44                     45
                      A                      A                      A
 Frequencies --   1202.2123              1220.1858              1235.8679
 Red. masses --      1.4881                 2.3146                 3.3937
 Frc consts  --      1.2672                 2.0304                 3.0540
 IR Inten    --      5.3892                 3.2866                20.4511

                     46                     47                     48
                      A                      A                      A
 Frequencies --   1249.7700              1275.4626              1307.2035
 Red. masses --      2.2254                 1.6521                 1.5245
 Frc consts  --      2.0480                 1.5835                 1.5348
 IR Inten    --      1.2639                 7.2970                 2.0116

                     49                     50                     51
                      A                      A                      A
 Frequencies --   1327.9766              1339.0506              1390.9049
 Red. masses --      2.8823                 4.2582                 1.5287
 Frc consts  --      2.9948                 4.4985                 1.7425
 IR Inten    --      3.8536                23.0550                 4.4635

                     52                     53                     54
                      A                      A                      A
 Frequencies --   1420.9756              1434.9771              1442.5162
 Red. masses --      1.2255                 1.3399                 1.2457
 Frc consts  --      1.4580                 1.6256                 1.5272
 IR Inten    --      4.8322                 6.5511                 0.1004

                     55                     56                     57
                      A                      A                      A
 Frequencies --   1454.8593              1464.3091              1492.2142
 Red. masses --      2.5065                 1.1498                 1.1767
 Frc consts  --      3.1259                 1.4526                 1.5438
 IR Inten    --      7.8574                 0.1180                 0.7022

                     58                     59                     60
                      A                      A                      A
 Frequencies --   1510.1491              1516.3203              1517.9949
 Red. masses --      1.0476                 1.0476                 1.0491
 Frc consts  --      1.4076                 1.4191                 1.4244
 IR Inten    --      5.2459                 4.3110                 4.8586

                     61                     62                     63
                      A                      A                      A
 Frequencies --   1523.6582              1525.8068              1527.4061
 Red. masses --      1.1116                 1.0616                 1.0524
 Frc consts  --      1.5204                 1.4562                 1.4466
 IR Inten    --     12.4962                13.5976                 6.4308

                     64                     65                     66
                      A                      A                      A
 Frequencies --   1536.1481              1546.1123              1552.2710
 Red. masses --      1.0587                 1.0966                 2.4956
 Frc consts  --      1.4719                 1.5444                 3.5429
 IR Inten    --      1.4677                 1.6895                29.9349

                     67                     68                     69
                      A                      A                      A
 Frequencies --   1629.9673              1668.5638              1708.4455
 Red. masses --      5.8591                 5.8850                 1.0846
 Frc consts  --      9.1714                 9.6535                 1.8652
 IR Inten    --      8.8319                10.6151                15.0587

                     70                     71                     72
                      A                      A                      A
 Frequencies --   2967.5058              2975.6047              3034.7282
 Red. masses --      1.0568                 1.0578                 1.0847
 Frc consts  --      5.4829                 5.5185                 5.8858
 IR Inten    --     42.9431               101.5613                33.4344

                     73                     74                     75
                      A                      A                      A
 Frequencies --   3040.8880              3060.1008              3077.4931
 Red. masses --      1.0404                 1.0346                 1.0780
 Frc consts  --      5.6683                 5.7083                 6.0153
 IR Inten    --     36.7242                23.4226                18.8115

                     76                     77                     78
                      A                      A                      A
 Frequencies --   3080.0641              3097.6936              3124.2841
 Red. masses --      1.0763                 1.0958                 1.1027
 Frc consts  --      6.0162                 6.1950                 6.3416
 IR Inten    --     59.1652                21.6786                16.5009

                     79                     80                     81
                      A                      A                      A
 Frequencies --   3129.7643              3131.1775              3137.6962
 Red. masses --      1.1023                 1.1030                 1.1015
 Frc consts  --      6.3619                 6.3717                 6.3892
 IR Inten    --     23.5845                29.7535                40.1722

                     82                     83                     84
                      A                      A                      A
 Frequencies --   3141.6373              3168.2553              3175.8928
 Red. masses --      1.1014                 1.0865                 1.0892
 Frc consts  --      6.4047                 6.4257                 6.4730
 IR Inten    --     14.1405                13.9238                18.5606

                     85                     86                     87
                      A                      A                      A
 Frequencies --   3187.0504              3453.8818              3540.8509
 Red. masses --      1.0941                 1.0495                 1.0908
 Frc consts  --      6.5479                 7.3767                 8.0579
 IR Inten    --     26.9381                 6.1113                 6.9026

 - Thermochemistry -
 -------------------
 Temperature   298.150 Kelvin.  Pressure   1.00000 Atm.
 Atom     1 has atomic number  6 and mass  12.00000

 Molecular mass:   178.14700 amu.
 Principal axes and moments of inertia in atomic units:
                           1         2         3
     Eigenvalues --  1676.321492813.135483755.71020
           X            0.99997   0.00348  -0.00660
           Y           -0.00353   0.99997  -0.00733
           Z            0.00657   0.00736   0.99995
 This molecule is an asymmetric top.
 Rotational symmetry number  1.
 Warning -- assumption of classical behavior for rotation
           may cause significant error
 Rotational temperatures (Kelvin)      0.05167     0.03079     0.02306
 Rotational constants (GHZ):           1.07661     0.64154     0.48053
 Zero-point vibrational energy     725367.8 (Joules/Mol)
                                  173.36706 (Kcal/Mol)
 Warning -- explicit consideration of  23 degrees of freedom as
           vibrations may cause significant error
 Vibrational temperatures:     34.41    80.03   111.43   157.67   182.62
          (Kelvin)            244.19   299.84   312.57   357.99   366.46
                              380.95   418.52   466.01   495.95   534.85
                              551.89   582.21   661.01   703.53   788.56
                              796.89   843.09   887.36  1040.23  1052.44
                             1129.72  1208.85  1297.37  1306.08  1331.69
                             1365.83  1379.04  1423.92  1469.75  1491.75
                             1536.41  1539.70  1546.70  1625.52  1643.64
                             1665.63  1701.83  1729.72  1755.58  1778.14
                             1798.14  1835.11  1880.77  1910.66  1926.60
                             2001.20  2044.47  2064.61  2075.46  2093.22
                             2106.81  2146.96  2172.77  2181.65  2184.06
                             2192.20  2195.30  2197.60  2210.17  2224.51
                             2233.37  2345.16  2400.69  2458.07  4269.58
                             4281.23  4366.30  4375.16  4402.80  4427.83
                             4431.53  4456.89  4495.15  4503.03  4505.07
                             4514.45  4520.12  4558.41  4569.40  4585.45
                             4969.37  5094.49

 Zero-point correction=                           0.276278 (Hartree/Particle)
 Thermal correction to Energy=                    0.290534
 Thermal correction to Enthalpy=                  0.291478
 Thermal correction to Gibbs Free Energy=         0.235181
 Sum of electronic and zero-point Energies=           -539.282588
 Sum of electronic and thermal Energies=              -539.268332
 Sum of electronic and thermal Enthalpies=            -539.267388
 Sum of electronic and thermal Free Energies=         -539.323685

                     E (Thermal)             CV                S
                      KCal/Mol        Cal/Mol-Kelvin    Cal/Mol-Kelvin
 Total                  182.313             53.666            118.488
 Electronic               0.000              0.000              0.000
 Translational            0.889              2.981             41.439
 Rotational               0.889              2.981             31.249
 Vibrational            180.535             47.704             45.799
 Vibration     1          0.593              1.985              6.279
 Vibration     2          0.596              1.975              4.607
 Vibration     3          0.599              1.964              3.955
 Vibration     4          0.606              1.942              3.276
 Vibration     5          0.611              1.926              2.992
 Vibration     6          0.625              1.880              2.439
 Vibration     7          0.642              1.828              2.058
 Vibration     8          0.646              1.815              1.982
 Vibration     9          0.662              1.765              1.739
 Vibration    10          0.665              1.755              1.698
 Vibration    11          0.671              1.738              1.630
 Vibration    12          0.687              1.691              1.469
 Vibration    13          0.708              1.628              1.290
 Vibration    14          0.723              1.586              1.190
 Vibration    15          0.743              1.530              1.073
 Vibration    16          0.753              1.505              1.025
 Vibration    17          0.770              1.460              0.946
 Vibration    18          0.817              1.340              0.768
 Vibration    19          0.845              1.274              0.686
 Vibration    20          0.903              1.144              0.548
 Vibration    21          0.909              1.131              0.536
 Vibration    22          0.943              1.062              0.474
 Vibration    23          0.976              0.996              0.422

 Optimization completed.
    -- Stationary point found.
 Normal termination of Gaussian 16 at Sun Dec 13 16:09:31 2020.

 ----------------------------------------------------------------------
 # B3LYP/6-311++G(d,p) empiricaldispersion=gd3bj scf=xqc pop=npa geom=c
 heck
 ----------------------------------------------------------------------

 ---------------------------------------
 CID_117110976_JID_3588_Energie_neutraal
 ---------------------------------------
 Structure from the checkpoint file:  "JID_3588.chk"
 Charge =  0 Multiplicity = 1

 SCF Done:  E(RB3LYP) =  -539.709534975     A.U. after   15 cycles
 Normal termination of Gaussian 16 at Sun Dec 13 16:12:46 2020.

 ----------------------------------------------------------------------
 # B3LYP/6-311++G(d,p) empiricaldispersion=gd3bj scf=xqc pop=npa geom=c
 heck
 ----------------------------------------------------------------------

 -------------------------------------
 CID_117110976_JID_3588_Energie_kation
 -------------------------------------
 Structure from the checkpoint file:  "JID_3588.chk"
 Charge =  1 Multiplicity = 2

 SCF Done:  E(UB3LYP) =  -539.424688097     A.U. after   25 cycles
 Normal termination of Gaussian 16 at Sun Dec 13 16:19:54 2020.
 Gaussian 16:  ES64L-G16RevA.03 25-Dec-2016

 ----------------------------------------------------------------------
 # B3LYP/6-311++G(d,p) empiricaldispersion=gd3bj scf=xqc pop=npa geom=c
 heck
 ----------------------------------------------------------------------

 ------------------------------------
 CID_117110976_JID_3588_Energie_anion
 ------------------------------------
 Structure from the checkpoint file:  "JID_3588.chk"
 Charge = -1 Multiplicity = 2

                         Standard orientation:
 ---------------------------------------------------------------------
 Center     Atomic      Atomic             Coordinates (Angstroms)
 Number     Number       Type             X           Y           Z
 ---------------------------------------------------------------------
      1          6           0        3.904296    0.260929    0.076769
      2          6           0        2.459597   -0.169892    0.001519
      3          6           0        1.424475    0.768329    0.027330
      4          6           0        0.078030    0.391144   -0.010637
      5          6           0       -0.271855   -0.969292   -0.083068
      6          6           0        0.770737   -1.904173   -0.115398
      7          6           0        2.108783   -1.521563   -0.074246
      8          6           0       -1.715969   -1.466521   -0.125836
      9          6           0       -2.415215   -1.308562    1.229797
     10          7           0       -2.564490   -0.867873   -1.166765
     11          7           0       -0.960681    1.401238    0.014202
     12          6           0       -0.987495    2.155881    1.265468
     13          6           0       -0.913556    2.285461   -1.148954
     14          1           0        4.039198    1.278697   -0.303846
     15          1           0        4.269931    0.248341    1.112135
     16          1           0        4.551261   -0.406288   -0.502769
     17          1           0        1.672519    1.826037    0.079423
     18          1           0        0.521137   -2.961169   -0.178890
     19          1           0        2.888391   -2.279158   -0.106572
     20          1           0       -1.666858   -2.541255   -0.345569
     21          1           0       -2.537510   -0.249504    1.475740
     22          1           0       -3.408047   -1.767175    1.187086
     23          1           0       -1.834665   -1.783080    2.028004
     24          1           0       -2.597599    0.133550   -0.976892
     25          1           0       -2.102377   -0.968764   -2.070406
     26          1           0       -0.104097    2.803858    1.407637
     27          1           0       -1.880088    2.791578    1.281736
     28          1           0       -1.040190    1.461584    2.108077
     29          1           0       -0.935614    1.683878   -2.062286
     30          1           0       -1.794593    2.937291   -1.139720
     31          1           0       -0.015565    2.927582   -1.181412
 ---------------------------------------------------------------------

 SCF Done:  E(UB3LYP) =  -539.694626930     A.U. after   32 cycles

 The electronic state is 2-A.
 Alpha  occ. eigenvalues --  -14.21372 -14.18850 -10.10584 -10.10387 -10.08932
 Alpha  occ. eigenvalues --  -10.08923 -10.08355 -10.07741 -10.07478 -10.07167
 Alpha  occ. eigenvalues --  -10.06943 -10.06624 -10.06121  -0.83643  -0.78857
 Alpha  occ. eigenvalues --   -0.75157  -0.67954  -0.64352  -0.63412  -0.60934
 Alpha  occ. eigenvalues --   -0.58761  -0.55171  -0.50832  -0.49743  -0.46145
 Alpha  occ. eigenvalues --   -0.40797  -0.39866  -0.37911  -0.36863  -0.35906
 Alpha  occ. eigenvalues --   -0.34791  -0.34251  -0.32773  -0.32200  -0.31927
 Alpha  occ. eigenvalues --   -0.29538  -0.29391  -0.28695  -0.28344  -0.27540
 Alpha  occ. eigenvalues --   -0.27080  -0.25651  -0.25078  -0.24275  -0.23905
 Alpha  occ. eigenvalues --   -0.16033  -0.15257  -0.13703  -0.12266   0.04452
 Alpha virt. eigenvalues --    0.06595   0.07011   0.07731   0.08043   0.08361
 Alpha virt. eigenvalues --    0.08678   0.08972   0.09920   0.09987   0.10444
 Alpha virt. eigenvalues --    0.11097   0.11580   0.12358   0.13085   0.13362

  Beta  occ. eigenvalues --  -14.21366 -14.18839 -10.10580 -10.10386 -10.08894
  Beta  occ. eigenvalues --  -10.08888 -10.08356 -10.07741 -10.07472 -10.07151
  Beta  occ. eigenvalues --  -10.06923 -10.06584 -10.06110  -0.83626  -0.78838
  Beta  occ. eigenvalues --   -0.75142  -0.67933  -0.64328  -0.63387  -0.60875
  Beta  occ. eigenvalues --   -0.58712  -0.55118  -0.50797  -0.49704  -0.46105
  Beta  occ. eigenvalues --   -0.40764  -0.39839  -0.37877  -0.36842  -0.35854
  Beta  occ. eigenvalues --   -0.34760  -0.34222  -0.32744  -0.32178  -0.31891
  Beta  occ. eigenvalues --   -0.29500  -0.29351  -0.28669  -0.28305  -0.27521
  Beta  occ. eigenvalues --   -0.27044  -0.25622  -0.25055  -0.24253  -0.23885
  Beta  occ. eigenvalues --   -0.16019  -0.15244  -0.13688  -0.12238
  Beta virt. eigenvalues --    0.06554   0.07476   0.07557   0.08005   0.08263
  Beta virt. eigenvalues --    0.08474   0.09119   0.09644   0.10222   0.10338
  Beta virt. eigenvalues --    0.10922   0.11447   0.12053   0.12628   0.13395

 Mulliken charges and spin densities:
               1          2
     1  C    2.081379  -2.561580
     2  C    0.186000   0.243482
     3  C   -1.056587   0.729464
     4  C   -1.889808   1.338734
     5  C    0.585323   0.208262
     6  C   -0.330274  -0.107954
     7  C    0.524660  -1.244071
     8  C   -1.044156   0.686713
     9  C    0.095143  -0.744292
    10  N   -0.137983  -0.089334
    11  N    0.227557   0.028300
    12  C    0.973157  -1.244233
    13  C    1.039897  -1.332415
    14  H   -0.470356   0.622422
    15  H   -0.116955   0.288169
    16  H   -0.295203   0.435058
    17  H    0.303995  -0.171088
    18  H   -0.173178   0.296714
    19  H   -0.484605   0.636462
    20  H    0.085178   0.102077
    21  H    0.069882   0.079213
    22  H    0.063611   0.074641
    23  H   -0.013363   0.146546
    24  H    0.241826   0.014189
    25  H    0.107613   0.112878
    26  H   -0.513177   0.655804
    27  H   -0.104603   0.254787
    28  H   -0.128963   0.266204
    29  H   -0.098825   0.260790
    30  H   -0.239790   0.381447
    31  H   -0.487394   0.632612
 Sum of Mulliken charges =  -1.00000   1.00000

 Dipole moment (field-independent basis, Debye):
    X=             -3.0348    Y=             -3.8184    Z=              0.3516  Tot=              4.8902
 Quadrupole moment (field-independent basis, Debye-Ang):
   XX=           -150.2957   YY=           -135.4586   ZZ=           -114.9949
   XY=              0.9101   XZ=             -0.4623   YZ=              0.0473

 Summary of Natural Population Analysis:

                                       Natural Population
                Natural  -----------------------------------------------
    Atom  No    Charge         Core      Valence    Rydberg      Total
 -----------------------------------------------------------------------
      C    1   -0.29070      0.99964     2.28577    0.00530     3.29070
      C    2   -0.01462      0.99952     2.00422    0.01088     3.01462
      C    3   -0.10496      0.99945     2.09559    0.00992     3.10496
      C    4    0.08885      0.99941     1.89829    0.01345     2.91115
      C    5   -0.02956      0.99943     2.01798    0.01215     3.02956
      C    6   -0.09430      0.99952     2.08516    0.00962     3.09430
      C    7   -0.10051      0.99954     2.09251    0.00847     3.10051
      C    8   -0.01670      0.99958     2.00494    0.01218     3.01670
      C    9   -0.28325      0.99964     2.27867    0.00494     3.28325
      N   10   -0.42249      0.99977     2.91350    0.00922     3.92249
      N   11   -0.29736      0.99972     2.78279    0.01485     3.79736
      C   12   -0.17299      0.99963     2.16481    0.00856     3.17299
      C   13   -0.17510      0.99963     2.16683    0.00864     3.17510
      H   14    0.10472      0.00000     0.39368    0.00160     0.39528
      H   15    0.10507      0.00000     0.39348    0.00144     0.39493
      H   16    0.10312      0.00000     0.39533    0.00155     0.39688
      H   17    0.10386      0.00000     0.39372    0.00242     0.39614
      H   18    0.09672      0.00000     0.40158    0.00170     0.40328
      H   19    0.10033      0.00000     0.39838    0.00128     0.39967
      H   20    0.08785      0.00000     0.41031    0.00184     0.41215
      H   21    0.10163      0.00000     0.39707    0.00130     0.39837
      H   22    0.09942      0.00000     0.39959    0.00099     0.40058
      H   23    0.09848      0.00000     0.40059    0.00094     0.40152
      H   24    0.18191      0.00000     0.31526    0.00283     0.31809
      H   25    0.17161      0.00000     0.32652    0.00187     0.32839
      H   26    0.08582      0.00000     0.41254    0.00165     0.41418
      H   27    0.09557      0.00000     0.40324    0.00119     0.40443
      H   28    0.09764      0.00000     0.40134    0.00103     0.40236
      H   29    0.09710      0.00000     0.40173    0.00116     0.40290
      H   30    0.09572      0.00000     0.40298    0.00130     0.40428
      H   31    0.08712      0.00000     0.41099    0.00189     0.41288
 =======================================================================
   * Total *    0.00001     12.99447    35.84938    0.15614    48.99999

 Normal termination of Gaussian 16 at Sun Dec 13 16:29:00 2020.
