 Gaussian 16, Revision A.03,

 -----------------------------------------------------------
 # opt freq B3LYP/6-31G(d) empiricaldispersion=gd3bj scf=xqc
 -----------------------------------------------------------

 ------------------------------
 CID_79991745_JID_2180_neutraal
 ------------------------------
 Symbolic Z-matrix:
 Charge =  0 Multiplicity = 1

 SCF Done:  E(RB3LYP) =  -898.869699229     A.U. after   15 cycles
 SCF Done:  E(RB3LYP) =  -898.872893030     A.U. after   12 cycles
 SCF Done:  E(RB3LYP) =  -898.872507300     A.U. after   13 cycles
 SCF Done:  E(RB3LYP) =  -898.873195288     A.U. after   12 cycles
 SCF Done:  E(RB3LYP) =  -898.873804695     A.U. after   12 cycles
 SCF Done:  E(RB3LYP) =  -898.873842826     A.U. after   11 cycles
 SCF Done:  E(RB3LYP) =  -898.873889522     A.U. after   11 cycles
 SCF Done:  E(RB3LYP) =  -898.873918562     A.U. after   11 cycles
 SCF Done:  E(RB3LYP) =  -898.873939930     A.U. after   12 cycles
 SCF Done:  E(RB3LYP) =  -898.873943931     A.U. after    9 cycles
 SCF Done:  E(RB3LYP) =  -898.873944930     A.U. after    9 cycles
 SCF Done:  E(RB3LYP) =  -898.873945010     A.U. after    7 cycles
 SCF Done:  E(RB3LYP) =  -898.873945034     A.U. after    7 cycles
 Optimization completed.
    -- Stationary point found.
 Normal termination of Gaussian 16 at Wed Dec  9 16:53:35 2020.

 --------------------------------------------------------------------
 #N Geom=AllCheck Guess=TCheck SCRF=Check GenChk RB3LYP/6-31G(d) Freq
 --------------------------------------------------------------------

 Structure from the checkpoint file:  "JID_2180.chk"
 ------------------------------
 CID_79991745_JID_2180_neutraal
 ------------------------------
 Charge =  0 Multiplicity = 1

 SCF Done:  E(RB3LYP) =  -898.873945034     A.U. after    1 cycles

  Exact polarizability: 130.356   0.236 118.851   5.691   1.656  78.247
 Approx polarizability: 192.314   2.245 195.234  13.123   3.175 126.266

                      1                      2                      3
                      A                      A                      A
 Frequencies --     41.0827                55.6442               115.8857
 Red. masses --      6.3495                 5.5650                 4.8434
 Frc consts  --      0.0063                 0.0102                 0.0383
 IR Inten    --      1.2223                 0.6329                 1.2988

                      4                      5                      6
                      A                      A                      A
 Frequencies --    143.0788               171.5132               205.2908
 Red. masses --      1.1637                 2.9543                 3.5783
 Frc consts  --      0.0140                 0.0512                 0.0889
 IR Inten    --      0.6086                 0.1225                 1.0099

                      7                      8                      9
                      A                      A                      A
 Frequencies --    244.7735               253.5769               273.8138
 Red. masses --      2.3135                 3.0635                 1.3246
 Frc consts  --      0.0817                 0.1161                 0.0585
 IR Inten    --      0.4169                 1.0084                 0.1521

                     10                     11                     12
                      A                      A                      A
 Frequencies --    295.1707               304.6829               338.4051
 Red. masses --      2.7362                 1.0851                 3.9782
 Frc consts  --      0.1405                 0.0593                 0.2684
 IR Inten    --      0.2764                 0.2298                 1.0908

                     13                     14                     15
                      A                      A                      A
 Frequencies --    358.4355               370.5250               451.8963
 Red. masses --      3.7965                 2.9218                 4.5468
 Frc consts  --      0.2874                 0.2363                 0.5471
 IR Inten    --      1.4103                 2.5968                 1.0128

                     16                     17                     18
                      A                      A                      A
 Frequencies --    506.6881               551.0656               575.9082
 Red. masses --      4.8437                 4.8958                 3.7743
 Frc consts  --      0.7327                 0.8759                 0.7375
 IR Inten    --      1.4872                 5.5046                11.3152

                     19                     20                     21
                      A                      A                      A
 Frequencies --    624.9792               644.6514               659.0328
 Red. masses --      2.3899                 2.6393                 1.6226
 Frc consts  --      0.5500                 0.6462                 0.4152
 IR Inten    --     49.3440                 9.1406                77.3158

                     22                     23                     24
                      A                      A                      A
 Frequencies --    700.5924               718.9840               783.5034
 Red. masses --      5.8608                 1.4962                 4.0752
 Frc consts  --      1.6949                 0.4557                 1.4740
 IR Inten    --      5.9410                34.5080                27.1640

                     25                     26                     27
                      A                      A                      A
 Frequencies --    811.7634               843.9740               885.1187
 Red. masses --      3.0973                 4.9347                 1.2618
 Frc consts  --      1.2025                 2.0710                 0.5824
 IR Inten    --     13.7610                 8.2516                 0.9101

                     28                     29                     30
                      A                      A                      A
 Frequencies --    937.3496               964.5079               968.5080
 Red. masses --      2.8603                 1.5189                 2.4036
 Frc consts  --      1.4807                 0.8325                 1.3283
 IR Inten    --      1.3650                 2.8208                18.1419

                     31                     32                     33
                      A                      A                      A
 Frequencies --   1030.4865              1051.9663              1070.9355
 Red. masses --      1.7542                 1.3843                 1.4781
 Frc consts  --      1.0975                 0.9026                 0.9988
 IR Inten    --      7.7490                16.0427                 4.6352

                     34                     35                     36
                      A                      A                      A
 Frequencies --   1084.2094              1137.7461              1158.3589
 Red. masses --      1.5889                 1.4080                 3.2451
 Frc consts  --      1.1005                 1.0739                 2.5655
 IR Inten    --     20.5508                20.3035               186.5519

                     37                     38                     39
                      A                      A                      A
 Frequencies --   1186.2224              1233.2635              1260.3669
 Red. masses --      3.7405                 2.0740                 1.7675
 Frc consts  --      3.1011                 1.8585                 1.6542
 IR Inten    --     32.6686                40.0224                 4.0293

                     40                     41                     42
                      A                      A                      A
 Frequencies --   1287.0727              1369.3054              1417.7545
 Red. masses --      2.8069                 2.3465                 2.8016
 Frc consts  --      2.7396                 2.5923                 3.3179
 IR Inten    --     11.2846                25.0771                 2.2793

                     43                     44                     45
                      A                      A                      A
 Frequencies --   1422.7825              1445.1058              1451.1133
 Red. masses --      1.2072                 1.3082                 1.2352
 Frc consts  --      1.4398                 1.6096                 1.5324
 IR Inten    --      7.1920                 2.0167                 4.2704

                     46                     47                     48
                      A                      A                      A
 Frequencies --   1489.0078              1514.5269              1516.9628
 Red. masses --      3.6838                 1.0502                 1.1154
 Frc consts  --      4.8122                 1.4194                 1.5122
 IR Inten    --      4.2792                 0.8127                 6.8630

                     49                     50                     51
                      A                      A                      A
 Frequencies --   1525.5050              1530.2318              1534.9832
 Red. masses --      1.1077                 1.0960                 1.0519
 Frc consts  --      1.5188                 1.5121                 1.4603
 IR Inten    --     12.4609                 8.8165                 3.9364

                     52                     53                     54
                      A                      A                      A
 Frequencies --   1538.9615              1612.4750              1839.0622
 Red. masses --      1.0716                 5.9469                 9.9638
 Frc consts  --      1.4953                 9.1101                19.8549
 IR Inten    --     15.9500                 0.8517               204.2482

                     55                     56                     57
                      A                      A                      A
 Frequencies --   3051.4686              3061.7455              3068.7372
 Red. masses --      1.0382                 1.0346                 1.0348
 Frc consts  --      5.6956                 5.7145                 5.7415
 IR Inten    --     23.6269                10.8514                18.2354

                     58                     59                     60
                      A                      A                      A
 Frequencies --   3110.1093              3128.1164              3130.2754
 Red. masses --      1.0991                 1.1029                 1.1014
 Frc consts  --      6.2637                 6.3583                 6.3583
 IR Inten    --     14.3391                14.6787                21.0908

                     61                     62                     63
                      A                      A                      A
 Frequencies --   3140.4099              3149.7530              3155.6744
 Red. masses --      1.1031                 1.1030                 1.1033
 Frc consts  --      6.4096                 6.4473                 6.4731
 IR Inten    --     30.6229                21.1169                10.5232

                     64                     65                     66
                      A                      A                      A
 Frequencies --   3211.2686              3271.3636              3678.6359
 Red. masses --      1.0911                 1.0966                 1.0639
 Frc consts  --      6.6292                 6.9144                 8.4826
 IR Inten    --     10.2977                 1.0240                50.6536

 - Thermochemistry -
 -------------------
 Temperature   298.150 Kelvin.  Pressure   1.00000 Atm.
 Atom     1 has atomic number  6 and mass  12.00000

 Molecular mass:   184.05580 amu.
 Principal axes and moments of inertia in atomic units:
                           1         2         3
     Eigenvalues --  1377.519322617.636983208.24052
           X            0.99930  -0.03579   0.01131
           Y            0.03570   0.99932   0.00867
           Z           -0.01162  -0.00826   0.99990
 This molecule is an asymmetric top.
 Rotational symmetry number  1.
 Warning -- assumption of classical behavior for rotation
           may cause significant error
 Rotational temperatures (Kelvin)      0.06288     0.03309     0.02700
 Rotational constants (GHZ):           1.31014     0.68945     0.56253
 Zero-point vibrational energy     512398.7 (Joules/Mol)
                                  122.46622 (Kcal/Mol)
 Warning -- explicit consideration of  18 degrees of freedom as
           vibrations may cause significant error
 Vibrational temperatures:     59.11    80.06   166.73   205.86   246.77
          (Kelvin)            295.37   352.17   364.84   393.96   424.68
                              438.37   486.89   515.71   533.10   650.18
                              729.01   792.86   828.60   899.21   927.51
                              948.20  1008.00  1034.46  1127.29  1167.95
                             1214.29  1273.49  1348.64  1387.71  1393.47
                             1482.64  1513.54  1540.84  1559.94  1636.96
                             1666.62  1706.71  1774.39  1813.39  1851.81
                             1970.13  2039.83  2047.07  2079.18  2087.83
                             2142.35  2179.07  2182.57  2194.86  2201.66
                             2208.50  2214.22  2319.99  2646.00  4390.38
                             4405.17  4415.23  4474.75  4500.66  4503.77
                             4518.35  4531.79  4540.31  4620.30  4706.76
                             5292.74

 Zero-point correction=                           0.195162 (Hartree/Particle)
 Thermal correction to Energy=                    0.207701
 Thermal correction to Enthalpy=                  0.208645
 Thermal correction to Gibbs Free Energy=         0.156428
 Sum of electronic and zero-point Energies=           -898.678783
 Sum of electronic and thermal Energies=              -898.666244
 Sum of electronic and thermal Enthalpies=            -898.665300
 Sum of electronic and thermal Free Energies=         -898.717518

                     E (Thermal)             CV                S
                      KCal/Mol        Cal/Mol-Kelvin    Cal/Mol-Kelvin
 Total                  130.334             47.243            109.901
 Electronic               0.000              0.000              0.000
 Translational            0.889              2.981             41.537
 Rotational               0.889              2.981             30.826
 Vibrational            128.557             41.281             37.538
 Vibration     1          0.594              1.981              5.206
 Vibration     2          0.596              1.975              4.606
 Vibration     3          0.608              1.936              3.168
 Vibration     4          0.616              1.910              2.762
 Vibration     5          0.626              1.878              2.419
 Vibration     6          0.640              1.832              2.085
 Vibration     7          0.660              1.771              1.768
 Vibration     8          0.665              1.757              1.706
 Vibration     9          0.676              1.722              1.572
 Vibration    10          0.689              1.683              1.444
 Vibration    11          0.696              1.665              1.391
 Vibration    12          0.719              1.599              1.220
 Vibration    13          0.733              1.558              1.129
 Vibration    14          0.743              1.533              1.078
 Vibration    15          0.811              1.357              0.790
 Vibration    16          0.862              1.235              0.642
 Vibration    17          0.906              1.137              0.542
 Vibration    18          0.932              1.083              0.493

 Optimization completed.
    -- Stationary point found.
 Normal termination of Gaussian 16 at Wed Dec  9 16:59:35 2020.

 ----------------------------------------------------------------------
 # B3LYP/6-311++G(d,p) empiricaldispersion=gd3bj scf=xqc pop=npa geom=c
 heck
 ----------------------------------------------------------------------

 --------------------------------------
 CID_79991745_JID_2180_Energie_neutraal
 --------------------------------------
 Structure from the checkpoint file:  "JID_2180.chk"
 Charge =  0 Multiplicity = 1

 SCF Done:  E(RB3LYP) =  -899.049463055     A.U. after   15 cycles
 Normal termination of Gaussian 16 at Wed Dec  9 17:02:33 2020.

 ----------------------------------------------------------------------
 # B3LYP/6-311++G(d,p) empiricaldispersion=gd3bj scf=xqc pop=npa geom=c
 heck
 ----------------------------------------------------------------------

 ------------------------------------
 CID_79991745_JID_2180_Energie_kation
 ------------------------------------
 Structure from the checkpoint file:  "JID_2180.chk"
 Charge =  1 Multiplicity = 2

 SCF Done:  E(UB3LYP) =  -898.749565794     A.U. after   25 cycles
 Normal termination of Gaussian 16 at Wed Dec  9 17:10:43 2020.
 Gaussian 16:  ES64L-G16RevA.03 25-Dec-2016

 ----------------------------------------------------------------------
 # B3LYP/6-311++G(d,p) empiricaldispersion=gd3bj scf=xqc pop=npa geom=c
 heck
 ----------------------------------------------------------------------

 -----------------------------------
 CID_79991745_JID_2180_Energie_anion
 -----------------------------------
 Structure from the checkpoint file:  "JID_2180.chk"
 Charge = -1 Multiplicity = 2

                         Standard orientation:
 ---------------------------------------------------------------------
 Center     Atomic      Atomic             Coordinates (Angstroms)
 Number     Number       Type             X           Y           Z
 ---------------------------------------------------------------------
      1          6           0       -0.113819    2.372715    0.381267
      2          6           0       -0.978374    1.155254    0.182663
      3          6           0       -0.523926   -0.139301    0.077669
      4         16           0       -1.848828   -1.249880   -0.194691
      5          6           0       -3.006538    0.037709   -0.168256
      6          6           0       -2.401522    1.243494    0.034995
      7          6           0        0.892477   -0.655381    0.256383
      8          6           0        1.231432   -0.725275    1.759900
      9          6           0        1.079626   -2.058242   -0.372098
     10          6           0        1.851059    0.247329   -0.531227
     11          8           0        1.681408    0.609968   -1.673048
     12          8           0        2.973464    0.564342    0.163812
     13          1           0        0.211241    2.782686   -0.582738
     14          1           0       -0.666179    3.156097    0.910275
     15          1           0        0.788020    2.156231    0.961377
     16          1           0       -4.057814   -0.173616   -0.307339
     17          1           0       -2.941622    2.183685    0.081603
     18          1           0        0.521182   -1.397512    2.250863
     19          1           0        2.244832   -1.103600    1.920235
     20          1           0        1.150941    0.255955    2.234337
     21          1           0        0.829264   -2.043692   -1.435472
     22          1           0        2.118382   -2.384343   -0.257281
     23          1           0        0.442339   -2.788990    0.136096
     24          1           0        3.519180    1.090883   -0.450796
 ---------------------------------------------------------------------

 SCF Done:  E(UB3LYP) =  -899.034277847     A.U. after   33 cycles
 SCF Done:  E(UB3LYP) =  -899.034277847     a.u. after    1 cycles

 The electronic state is 2-A.
 Alpha  occ. eigenvalues --  -88.77526 -19.06506 -19.01181 -10.20442 -10.11614
 Alpha  occ. eigenvalues --  -10.10253 -10.09851 -10.08202 -10.07603 -10.07573
 Alpha  occ. eigenvalues --  -10.06623 -10.06497  -7.86158  -5.82443  -5.82074
 Alpha  occ. eigenvalues --   -5.81759  -1.00725  -0.91765  -0.78820  -0.72625
 Alpha  occ. eigenvalues --   -0.66828  -0.62198  -0.59893  -0.57597  -0.55862
 Alpha  occ. eigenvalues --   -0.50033  -0.46046  -0.42699  -0.39555  -0.38602
 Alpha  occ. eigenvalues --   -0.38078  -0.35972  -0.33783  -0.33298  -0.32149
 Alpha  occ. eigenvalues --   -0.31156  -0.30291  -0.29464  -0.28337  -0.28035
 Alpha  occ. eigenvalues --   -0.27489  -0.26713  -0.25643  -0.24800  -0.23644
 Alpha  occ. eigenvalues --   -0.22086  -0.17884  -0.15029  -0.13036   0.04631
 Alpha virt. eigenvalues --    0.06249   0.07297   0.07658   0.07906   0.08853
 Alpha virt. eigenvalues --    0.09011   0.10229   0.10661   0.11326   0.11499
 Alpha virt. eigenvalues --    0.12165   0.12480   0.13095   0.14026   0.14572

  Beta  occ. eigenvalues --  -88.77521 -19.06441 -19.01161 -10.20439 -10.11606
  Beta  occ. eigenvalues --  -10.10249 -10.09836 -10.08197 -10.07579 -10.07560
  Beta  occ. eigenvalues --  -10.06593 -10.06466  -7.86152  -5.82439  -5.82070
  Beta  occ. eigenvalues --   -5.81750  -1.00647  -0.91694  -0.78800  -0.72594
  Beta  occ. eigenvalues --   -0.66799  -0.62166  -0.59842  -0.57549  -0.55775
  Beta  occ. eigenvalues --   -0.49948  -0.46006  -0.42644  -0.39509  -0.38560
  Beta  occ. eigenvalues --   -0.38031  -0.35929  -0.33750  -0.33259  -0.32107
  Beta  occ. eigenvalues --   -0.31118  -0.30253  -0.29432  -0.28299  -0.27994
  Beta  occ. eigenvalues --   -0.27457  -0.26683  -0.25611  -0.24767  -0.23620
  Beta  occ. eigenvalues --   -0.22036  -0.17814  -0.15000  -0.12995
  Beta virt. eigenvalues --    0.06782   0.07430   0.07735   0.07980   0.09054
  Beta virt. eigenvalues --    0.09171   0.09434   0.10563   0.11156   0.11576
  Beta virt. eigenvalues --    0.11786   0.12379   0.12804   0.13349   0.14153

 Mulliken charges and spin densities:
               1          2
     1  C    1.339977  -2.272651
     2  C   -1.429497   1.478511
     3  C   -0.244362   0.381570
     4  S    0.209340  -0.823140
     5  C   -0.286023   0.115944
     6  C    0.997551  -0.892473
     7  C   -0.088763   1.274099
     8  C    0.927623  -1.548164
     9  C   -0.145244  -0.459185
    10  C    0.520565  -0.955515
    11  O   -0.272967   0.051887
    12  O   -0.179496   0.112423
    13  H    0.201948  -0.005862
    14  H   -0.460441   0.617199
    15  H   -0.129000   0.285836
    16  H   -0.454751   0.687318
    17  H   -0.345315   0.507391
    18  H   -0.140384   0.283235
    19  H   -0.103513   0.300353
    20  H   -0.053253   0.203289
    21  H    0.101744   0.070432
    22  H   -0.290984   0.468882
    23  H   -0.059850   0.205429
    24  H   -0.614904   0.913192
 Sum of Mulliken charges =  -1.00000   1.00000

 Dipole moment (field-independent basis, Debye):
    X=             -3.9283    Y=             -3.3163    Z=             -0.3912  Tot=              5.1558
 Quadrupole moment (field-independent basis, Debye-Ang):
   XX=           -149.2534   YY=           -119.1904   ZZ=           -111.9884
   XY=             -1.0490   XZ=              1.0016   YZ=             -0.5220

 Summary of Natural Population Analysis:

                                       Natural Population
                Natural  -----------------------------------------------
    Atom  No    Charge         Core      Valence    Rydberg      Total
 -----------------------------------------------------------------------
      C    1   -0.29623      0.99963     2.29046    0.00615     3.29623
      C    2   -0.03910      0.99942     2.02876    0.01092     3.03910
      C    3   -0.08540      0.99938     2.07157    0.01445     3.08540
      S    4    0.20450      4.99940     2.77645    0.01965     7.79550
      C    5   -0.19587      0.99954     2.18458    0.01175     3.19587
      C    6   -0.11876      0.99949     2.10848    0.01079     3.11876
      C    7   -0.09689      0.99947     2.08140    0.01602     3.09689
      C    8   -0.27864      0.99963     2.27099    0.00802     3.27864
      C    9   -0.28161      0.99964     2.27450    0.00748     3.28161
      C   10    0.41867      0.99964     1.55391    0.02777     2.58133
      O   11   -0.30597      0.99987     3.29968    0.00643     4.30597
      O   12   -0.34414      0.99988     3.33635    0.00791     4.34414
      H   13    0.11145      0.00000     0.38755    0.00100     0.38855
      H   14    0.10512      0.00000     0.39368    0.00120     0.39488
      H   15    0.10713      0.00000     0.39123    0.00164     0.39287
      H   16    0.10934      0.00000     0.38962    0.00104     0.39066
      H   17    0.10660      0.00000     0.39214    0.00126     0.39340
      H   18    0.10018      0.00000     0.39865    0.00117     0.39982
      H   19    0.10761      0.00000     0.39097    0.00142     0.39239
      H   20    0.10608      0.00000     0.39262    0.00130     0.39392
      H   21    0.10955      0.00000     0.38938    0.00107     0.39045
      H   22    0.10698      0.00000     0.39197    0.00104     0.39302
      H   23    0.10226      0.00000     0.39660    0.00113     0.39774
      H   24    0.24713      0.00000     0.22576    0.02711     0.25287
 =======================================================================
   * Total *   -0.00000     15.99498    32.81728    0.18774    49.00000

 Normal termination of Gaussian 16 at Wed Dec  9 17:18:40 2020.
