 Gaussian 16, Revision A.03,

 -----------------------------------------------------------
 # opt freq B3LYP/6-31G(d) empiricaldispersion=gd3bj scf=xqc
 -----------------------------------------------------------

 ------------------------------
 CID_63824312_JID_3832_neutraal
 ------------------------------
 Symbolic Z-matrix:
 Charge =  0 Multiplicity = 1

 SCF Done:  E(RB3LYP) =  -915.661648689     A.U. after   14 cycles
 SCF Done:  E(RB3LYP) =  -915.665366188     A.U. after   12 cycles
 SCF Done:  E(RB3LYP) =  -915.666348107     A.U. after   12 cycles
 SCF Done:  E(RB3LYP) =  -915.666530517     A.U. after   13 cycles
 SCF Done:  E(RB3LYP) =  -915.666748267     A.U. after   12 cycles
 SCF Done:  E(RB3LYP) =  -915.666853267     A.U. after   11 cycles
 SCF Done:  E(RB3LYP) =  -915.666872930     A.U. after   10 cycles
 SCF Done:  E(RB3LYP) =  -915.666880502     A.U. after   10 cycles
 SCF Done:  E(RB3LYP) =  -915.666884175     A.U. after   10 cycles
 SCF Done:  E(RB3LYP) =  -915.666886651     A.U. after   10 cycles
 SCF Done:  E(RB3LYP) =  -915.666887353     A.U. after    8 cycles
 SCF Done:  E(RB3LYP) =  -915.666887394     A.U. after    7 cycles
 SCF Done:  E(RB3LYP) =  -915.666887412     A.U. after    7 cycles
 Optimization completed.
    -- Stationary point found.
 Normal termination of Gaussian 16 at Mon Dec 14 18:44:13 2020.

 --------------------------------------------------------------------
 #N Geom=AllCheck Guess=TCheck SCRF=Check GenChk RB3LYP/6-31G(d) Freq
 --------------------------------------------------------------------

 Structure from the checkpoint file:  "JID_3832.chk"
 ------------------------------
 CID_63824312_JID_3832_neutraal
 ------------------------------
 Charge =  0 Multiplicity = 1

 SCF Done:  E(RB3LYP) =  -915.666887412     A.U. after    1 cycles

  Exact polarizability: 121.538  11.399 138.403   3.856   2.334 112.346
 Approx polarizability: 158.677  22.771 210.808  12.528  11.274 199.502

                      1                      2                      3
                      A                      A                      A
 Frequencies --     17.1391                31.7968                51.8719
 Red. masses --      6.0744                 3.9156                 4.4413
 Frc consts  --      0.0011                 0.0023                 0.0070
 IR Inten    --      0.1625                 0.2451                 1.5624

                      4                      5                      6
                      A                      A                      A
 Frequencies --     67.2975                83.5437               128.7859
 Red. masses --      3.8663                 3.8100                 3.6459
 Frc consts  --      0.0103                 0.0157                 0.0356
 IR Inten    --      0.6665                 0.6733                 2.3934

                      7                      8                      9
                      A                      A                      A
 Frequencies --    189.8513               192.6331               240.1706
 Red. masses --      2.1136                 2.8359                 1.7114
 Frc consts  --      0.0449                 0.0620                 0.0582
 IR Inten    --     15.2588                 3.6494                11.4207

                     10                     11                     12
                      A                      A                      A
 Frequencies --    247.6987               285.7495               313.9043
 Red. masses --      3.8146                 1.7509                 2.0254
 Frc consts  --      0.1379                 0.0842                 0.1176
 IR Inten    --      3.3917                17.3528                12.4899

                     13                     14                     15
                      A                      A                      A
 Frequencies --    351.7897               372.9595               438.1707
 Red. masses --      2.0248                 2.2590                 2.2604
 Frc consts  --      0.1476                 0.1851                 0.2557
 IR Inten    --      1.9431                 3.7128                 8.8970

                     16                     17                     18
                      A                      A                      A
 Frequencies --    482.8658               504.8235               572.9520
 Red. masses --      3.0281                 3.3947                 4.6824
 Frc consts  --      0.4160                 0.5097                 0.9056
 IR Inten    --      4.3045                 2.6595                 1.3091

                     19                     20                     21
                      A                      A                      A
 Frequencies --    597.3884               663.8809               715.0836
 Red. masses --      3.0151                 7.0407                 3.1389
 Frc consts  --      0.6340                 1.8283                 0.9457
 IR Inten    --      3.5981                 0.2860                 5.0719

                     22                     23                     24
                      A                      A                      A
 Frequencies --    730.3356               738.1192               765.1137
 Red. masses --      1.2916                 1.2348                 1.8901
 Frc consts  --      0.4059                 0.3964                 0.6519
 IR Inten    --     23.6391                 2.1821                29.7226

                     25                     26                     27
                      A                      A                      A
 Frequencies --    811.4713               817.5220               820.9293
 Red. masses --      2.8994                 1.7655                 1.6911
 Frc consts  --      1.1249                 0.6952                 0.6715
 IR Inten    --     22.2158                18.2334                34.4194

                     28                     29                     30
                      A                      A                      A
 Frequencies --    865.8268               874.8264               882.0122
 Red. masses --      1.7715                 1.3176                 4.2549
 Frc consts  --      0.7824                 0.5941                 1.9502
 IR Inten    --      4.2912               136.1647                35.1141

                     31                     32                     33
                      A                      A                      A
 Frequencies --    911.2994               924.7909               944.3762
 Red. masses --      2.0521                 1.9592                 2.9589
 Frc consts  --      1.0041                 0.9872                 1.5548
 IR Inten    --      5.0333                 7.2214                34.2392

                     34                     35                     36
                      A                      A                      A
 Frequencies --    992.0242              1024.6582              1046.4720
 Red. masses --      2.1210                 1.7965                 1.4728
 Frc consts  --      1.2298                 1.1113                 0.9503
 IR Inten    --      3.2306                 1.3006                 8.6935

                     37                     38                     39
                      A                      A                      A
 Frequencies --   1067.8026              1080.9915              1108.8178
 Red. masses --      2.0270                 1.8575                 2.2793
 Frc consts  --      1.3617                 1.2788                 1.6511
 IR Inten    --      8.4449                 3.3674                15.8424

                     40                     41                     42
                      A                      A                      A
 Frequencies --   1148.3893              1162.7291              1170.5847
 Red. masses --      1.9047                 2.0167                 1.7094
 Frc consts  --      1.4800                 1.6063                 1.3801
 IR Inten    --      7.7136                14.7094                14.8541

                     43                     44                     45
                      A                      A                      A
 Frequencies --   1192.1557              1213.5395              1236.8853
 Red. masses --      1.5264                 1.3616                 1.4197
 Frc consts  --      1.2782                 1.1815                 1.2797
 IR Inten    --      4.0550                 6.2922                 7.3216

                     46                     47                     48
                      A                      A                      A
 Frequencies --   1250.0607              1275.5318              1308.9883
 Red. masses --      1.2841                 1.2864                 1.2864
 Frc consts  --      1.1822                 1.2332                 1.2987
 IR Inten    --      0.2098                 5.3178                 1.4524

                     49                     50                     51
                      A                      A                      A
 Frequencies --   1339.3820              1363.5436              1367.7276
 Red. masses --      1.2666                 1.5550                 1.5920
 Frc consts  --      1.3388                 1.7034                 1.7547
 IR Inten    --      3.3430                 8.3688                 9.1508

                     52                     53                     54
                      A                      A                      A
 Frequencies --   1368.6319              1390.4328              1400.2104
 Red. masses --      1.4164                 1.3358                 1.4147
 Frc consts  --      1.5631                 1.5216                 1.6342
 IR Inten    --      1.6990                11.9012                 3.5609

                     55                     56                     57
                      A                      A                      A
 Frequencies --   1416.0367              1427.0197              1451.3220
 Red. masses --      1.3112                 1.3743                 1.4361
 Frc consts  --      1.5490                 1.6489                 1.7822
 IR Inten    --      4.7555                 3.5993                10.0038

                     58                     59                     60
                      A                      A                      A
 Frequencies --   1490.4097              1501.9998              1509.2095
 Red. masses --      2.6879                 1.4820                 1.0784
 Frc consts  --      3.5178                 1.9699                 1.4472
 IR Inten    --     23.2235                26.4321                 4.6038

                     61                     62                     63
                      A                      A                      A
 Frequencies --   1517.7746              1526.5640              1534.8550
 Red. masses --      1.0849                 1.1190                 1.1540
 Frc consts  --      1.4725                 1.5365                 1.6017
 IR Inten    --      2.5507                20.3161                29.8931

                     64                     65                     66
                      A                      A                      A
 Frequencies --   1545.0360              1549.7220              1573.6268
 Red. masses --      1.1055                 1.1113                 6.1847
 Frc consts  --      1.5548                 1.5726                 9.0234
 IR Inten    --      3.2759                10.2901                23.4372

                     67                     68                     69
                      A                      A                      A
 Frequencies --   1700.3060              2939.2838              2989.3678
 Red. masses --      1.0883                 1.0743                 1.0685
 Frc consts  --      1.8538                 5.4684                 5.6257
 IR Inten    --     31.0670                98.3001                34.5664

                     70                     71                     72
                      A                      A                      A
 Frequencies --   3031.0304              3043.4359              3052.2496
 Red. masses --      1.0611                 1.0628                 1.0662
 Frc consts  --      5.7439                 5.7999                 5.8521
 IR Inten    --     33.5799                41.1146                 7.2849

                     73                     74                     75
                      A                      A                      A
 Frequencies --   3054.1525              3064.1766              3068.1616
 Red. masses --      1.0847                 1.1001                 1.0687
 Frc consts  --      5.9615                 6.0860                 5.9272
 IR Inten    --     22.2865                19.8688                66.5950

                     76                     77                     78
                      A                      A                      A
 Frequencies --   3071.4669              3083.0833              3095.9124
 Red. masses --      1.0856                 1.0988                 1.1039
 Frc consts  --      6.0339                 6.1536                 6.2337
 IR Inten    --     45.8410                61.2910                44.8732

                     79                     80                     81
                      A                      A                      A
 Frequencies --   3115.5814              3247.5537              3280.0564
 Red. masses --      1.1037                 1.0940                 1.0948
 Frc consts  --      6.3121                 6.7980                 6.9398
 IR Inten    --     17.2641                 1.0518                 1.8516

                     82                     83                     84
                      A                      A                      A
 Frequencies --   3468.0713              3494.4139              3550.5140
 Red. masses --      1.0498                 1.0728                 1.0920
 Frc consts  --      7.4390                 7.7183                 8.1105
 IR Inten    --      2.1314                 1.4122                 0.8758

 - Thermochemistry -
 -------------------
 Temperature   298.150 Kelvin.  Pressure   1.00000 Atm.
 Atom     1 has atomic number  6 and mass  12.00000

 Molecular mass:   199.11432 amu.
 Principal axes and moments of inertia in atomic units:
                           1         2         3
     Eigenvalues --  2003.688983969.736025139.93089
           X            0.99969  -0.02490  -0.00134
           Y            0.02490   0.99969  -0.00090
           Z            0.00137   0.00086   1.00000
 This molecule is an asymmetric top.
 Rotational symmetry number  1.
 Warning -- assumption of classical behavior for rotation
           may cause significant error
 Rotational temperatures (Kelvin)      0.04323     0.02182     0.01685
 Rotational constants (GHZ):           0.90071     0.45462     0.35112
 Zero-point vibrational energy     691076.3 (Joules/Mol)
                                  165.17120 (Kcal/Mol)
 Warning -- explicit consideration of  19 degrees of freedom as
           vibrations may cause significant error
 Vibrational temperatures:     24.66    45.75    74.63    96.83   120.20
          (Kelvin)            185.29   273.15   277.16   345.55   356.38
                              411.13   451.64   506.15   536.61   630.43
                              694.74   726.33   824.35   859.51   955.18
                             1028.85  1050.79  1061.99  1100.83  1167.53
                             1176.23  1181.13  1245.73  1258.68  1269.02
                             1311.16  1330.57  1358.75  1427.30  1474.25
                             1505.64  1536.33  1555.31  1595.34  1652.28
                             1672.91  1684.21  1715.25  1746.01  1779.60
                             1798.56  1835.21  1883.34  1927.07  1961.84
                             1967.86  1969.16  2000.52  2014.59  2037.36
                             2053.16  2088.13  2144.37  2161.04  2171.42
                             2183.74  2196.39  2208.31  2222.96  2229.70
                             2264.10  2446.36  4228.97  4301.03  4360.98
                             4378.83  4391.51  4394.24  4408.67  4414.40
                             4419.16  4435.87  4454.33  4482.63  4672.51
                             4719.27  4989.78  5027.68  5108.40

 Zero-point correction=                           0.263217 (Hartree/Particle)
 Thermal correction to Energy=                    0.277158
 Thermal correction to Enthalpy=                  0.278102
 Thermal correction to Gibbs Free Energy=         0.219969
 Sum of electronic and zero-point Energies=           -915.403670
 Sum of electronic and thermal Energies=              -915.389730
 Sum of electronic and thermal Enthalpies=            -915.388786
 Sum of electronic and thermal Free Energies=         -915.446918

                     E (Thermal)             CV                S
                      KCal/Mol        Cal/Mol-Kelvin    Cal/Mol-Kelvin
 Total                  173.919             51.661            122.350
 Electronic               0.000              0.000              0.000
 Translational            0.889              2.981             41.771
 Rotational               0.889              2.981             32.081
 Vibrational            172.142             45.699             48.499
 Vibration     1          0.593              1.986              6.941
 Vibration     2          0.594              1.983              5.714
 Vibration     3          0.596              1.977              4.745
 Vibration     4          0.598              1.970              4.231
 Vibration     5          0.600              1.961              3.806
 Vibration     6          0.611              1.924              2.964
 Vibration     7          0.633              1.854              2.229
 Vibration     8          0.635              1.850              2.202
 Vibration     9          0.657              1.779              1.802
 Vibration    10          0.661              1.767              1.747
 Vibration    11          0.684              1.700              1.499
 Vibration    12          0.702              1.647              1.342
 Vibration    13          0.728              1.572              1.158
 Vibration    14          0.744              1.528              1.068
 Vibration    15          0.798              1.387              0.832
 Vibration    16          0.839              1.288              0.702
 Vibration    17          0.860              1.239              0.646
 Vibration    18          0.929              1.090              0.499
 Vibration    19          0.955              1.037              0.454

 Optimization completed.
    -- Stationary point found.
 Normal termination of Gaussian 16 at Mon Dec 14 18:52:20 2020.

 ----------------------------------------------------------------------
 # B3LYP/6-311++G(d,p) empiricaldispersion=gd3bj scf=xqc pop=npa geom=c
 heck
 ----------------------------------------------------------------------

 --------------------------------------
 CID_63824312_JID_3832_Energie_neutraal
 --------------------------------------
 Structure from the checkpoint file:  "JID_3832.chk"
 Charge =  0 Multiplicity = 1

 SCF Done:  E(RB3LYP) =  -915.848279170     A.U. after   15 cycles
 Normal termination of Gaussian 16 at Mon Dec 14 18:56:24 2020.

 ----------------------------------------------------------------------
 # B3LYP/6-311++G(d,p) empiricaldispersion=gd3bj scf=xqc pop=npa geom=c
 heck
 ----------------------------------------------------------------------

 ------------------------------------
 CID_63824312_JID_3832_Energie_kation
 ------------------------------------
 Structure from the checkpoint file:  "JID_3832.chk"
 Charge =  1 Multiplicity = 2

 SCF Done:  E(UB3LYP) =  -915.555321227     A.U. after   25 cycles
 Normal termination of Gaussian 16 at Mon Dec 14 19:05:45 2020.
 Gaussian 16:  ES64L-G16RevA.03 25-Dec-2016

 ----------------------------------------------------------------------
 # B3LYP/6-311++G(d,p) empiricaldispersion=gd3bj scf=xqc pop=npa geom=c
 heck
 ----------------------------------------------------------------------

 -----------------------------------
 CID_63824312_JID_3832_Energie_anion
 -----------------------------------
 Structure from the checkpoint file:  "JID_3832.chk"
 Charge = -1 Multiplicity = 2

                         Standard orientation:
 ---------------------------------------------------------------------
 Center     Atomic      Atomic             Coordinates (Angstroms)
 Number     Number       Type             X           Y           Z
 ---------------------------------------------------------------------
      1          6           0       -2.320980    0.006654   -1.020284
      2          6           0       -1.888846    0.784856    0.019495
      3          7           0       -1.852081    0.139882    1.246367
      4          6           0       -2.251097   -1.092100    1.141878
      5         16           0       -2.710235   -1.592831   -0.469350
      6          6           0       -1.397605    2.201960   -0.075818
      7          6           0        0.112271    2.280439    0.196608
      8          7           0        0.839644    1.541793   -0.829649
      9          6           0        2.269171    1.373796   -0.574227
     10          6           0        2.661438    0.648413    0.730133
     11          6           0        1.945997   -0.693648    0.953965
     12          6           0        2.101977   -1.702064   -0.187909
     13          7           0        3.512718   -2.042598   -0.405899
     14          1           0       -2.427038    0.284200   -2.059424
     15          1           0       -2.308876   -1.784466    1.973454
     16          1           0       -1.608159    2.598774   -1.073984
     17          1           0       -1.927720    2.820056    0.657905
     18          1           0        0.436543    3.328847    0.164836
     19          1           0        0.290208    1.915675    1.221738
     20          1           0        0.412868    0.622741   -0.930451
     21          1           0        2.683667    0.833477   -1.435429
     22          1           0        2.735415    2.368007   -0.585589
     23          1           0        3.748919    0.493975    0.726276
     24          1           0        2.458981    1.297184    1.591032
     25          1           0        2.336500   -1.150403    1.870861
     26          1           0        0.875785   -0.516290    1.118951
     27          1           0        1.577405   -2.625077    0.086458
     28          1           0        1.594955   -1.320056   -1.093997
     29          1           0        3.584109   -2.769488   -1.115892
     30          1           0        4.004261   -1.235240   -0.785928
 ---------------------------------------------------------------------

 SCF Done:  E(UB3LYP) =  -915.836765455     A.U. after   33 cycles
 SCF Done:  E(UB3LYP) =  -915.836765455     a.u. after    1 cycles

 The electronic state is 2-A.
 Alpha  occ. eigenvalues --  -88.76077 -14.19318 -14.18421 -14.18288 -10.10445
 Alpha  occ. eigenvalues --  -10.08949 -10.08226 -10.08144 -10.08143 -10.07613
 Alpha  occ. eigenvalues --  -10.06721 -10.05594 -10.05275  -7.84732  -5.80999
 Alpha  occ. eigenvalues --   -5.80658  -5.80367  -0.84472  -0.79769  -0.77329
 Alpha  occ. eigenvalues --   -0.68238  -0.67890  -0.65691  -0.60634  -0.58042
 Alpha  occ. eigenvalues --   -0.52734  -0.50016  -0.48157  -0.45085  -0.42835
 Alpha  occ. eigenvalues --   -0.39355  -0.39027  -0.37707  -0.36015  -0.35210
 Alpha  occ. eigenvalues --   -0.33175  -0.31821  -0.30253  -0.30090  -0.29428
 Alpha  occ. eigenvalues --   -0.28732  -0.28607  -0.26530  -0.25266  -0.25025
 Alpha  occ. eigenvalues --   -0.23669  -0.23145  -0.22223  -0.21416  -0.17056
 Alpha  occ. eigenvalues --   -0.16208  -0.13751  -0.13428  -0.11506   0.04858
 Alpha virt. eigenvalues --    0.06575   0.07463   0.08050   0.08310   0.09295
 Alpha virt. eigenvalues --    0.09770   0.10194   0.10825   0.11361   0.11861
 Alpha virt. eigenvalues --    0.12316   0.12438   0.13229   0.13439   0.14045

  Beta  occ. eigenvalues --  -88.76041 -14.19267 -14.18421 -14.18241 -10.10176
  Beta  occ. eigenvalues --  -10.08942 -10.08209 -10.08132 -10.08124 -10.07429
  Beta  occ. eigenvalues --  -10.06718 -10.05582 -10.05275  -7.84700  -5.80986
  Beta  occ. eigenvalues --   -5.80645  -5.80244  -0.84250  -0.79757  -0.77255
  Beta  occ. eigenvalues --   -0.68148  -0.67674  -0.65610  -0.60463  -0.57949
  Beta  occ. eigenvalues --   -0.52649  -0.49933  -0.47785  -0.45047  -0.42677
  Beta  occ. eigenvalues --   -0.39315  -0.38920  -0.37624  -0.35965  -0.35157
  Beta  occ. eigenvalues --   -0.33091  -0.31770  -0.30098  -0.29961  -0.29285
  Beta  occ. eigenvalues --   -0.28638  -0.28202  -0.26416  -0.25204  -0.24973
  Beta  occ. eigenvalues --   -0.23605  -0.23064  -0.22179  -0.21394  -0.16339
  Beta  occ. eigenvalues --   -0.16106  -0.13677  -0.12544  -0.11414
  Beta virt. eigenvalues --    0.07237   0.07947   0.08255   0.08384   0.09081
  Beta virt. eigenvalues --    0.09718   0.09855   0.10494   0.10835   0.11563
  Beta virt. eigenvalues --    0.12106   0.12439   0.12720   0.13321   0.13551

 Mulliken charges and spin densities:
               1          2
     1  C    0.104274   0.350625
     2  C   -0.705995   0.146374
     3  N    0.046141   0.025801
     4  C   -0.036271   0.355916
     5  S    0.038566  -0.258959
     6  C   -0.070406  -0.862222
     7  C   -0.065724  -0.227214
     8  N   -0.052947   0.053666
     9  C   -0.144562  -0.335658
    10  C   -0.036614  -0.153784
    11  C   -0.386146   0.041735
    12  C    0.937336  -1.295521
    13  N   -0.509727   0.164649
    14  H   -0.034201   0.282202
    15  H    0.173624   0.051780
    16  H    0.019386   0.125532
    17  H    0.037828   0.126634
    18  H   -0.168128   0.327465
    19  H    0.115573  -0.021124
    20  H    0.394539  -0.151176
    21  H   -0.186972   0.365268
    22  H   -0.216504   0.353286
    23  H   -0.112136   0.272587
    24  H    0.048396   0.096383
    25  H    0.121586   0.033726
    26  H    0.126542  -0.015907
    27  H    0.026754   0.114504
    28  H   -0.218595   0.336519
    29  H   -0.289647   0.529747
    30  H    0.044030   0.167167
 Sum of Mulliken charges =  -1.00000   1.00000

 Dipole moment (field-independent basis, Debye):
    X=             -4.5478    Y=              0.7688    Z=              2.0473  Tot=              5.0463
 Quadrupole moment (field-independent basis, Debye-Ang):
   XX=           -153.2573   YY=           -129.6591   ZZ=           -114.5629
   XY=             11.4970   XZ=              7.7592   YZ=             -3.6506

 Summary of Natural Population Analysis:

                                       Natural Population
                Natural  -----------------------------------------------
    Atom  No    Charge         Core      Valence    Rydberg      Total
 -----------------------------------------------------------------------
      C    1   -0.18113      0.99944     2.17230    0.00939     3.18113
      C    2    0.05165      0.99948     1.93238    0.01649     2.94835
      N    3   -0.24666      0.99966     2.73539    0.01161     3.74666
      C    4   -0.00951      0.99966     1.99388    0.01597     3.00951
      S    5    0.17810      4.99948     2.80098    0.02144     7.82190
      C    6   -0.20255      0.99958     2.19272    0.01025     3.20255
      C    7   -0.08445      0.99962     2.07403    0.01079     3.08445
      N    8   -0.34608      0.99975     2.83457    0.01175     3.84608
      C    9   -0.08864      0.99963     2.07660    0.01241     3.08864
      C   10   -0.20341      0.99963     2.19553    0.00825     3.20341
      C   11   -0.20277      0.99962     2.19402    0.00913     3.20277
      C   12   -0.09093      0.99964     2.07920    0.01210     3.09093
      N   13   -0.42497      0.99977     2.91396    0.01124     3.92497
      H   14    0.10892      0.00000     0.38985    0.00122     0.39108
      H   15    0.09160      0.00000     0.40726    0.00114     0.40840
      H   16    0.10259      0.00000     0.39622    0.00119     0.39741
      H   17    0.10422      0.00000     0.39472    0.00105     0.39578
      H   18    0.08942      0.00000     0.40933    0.00125     0.41058
      H   19    0.08480      0.00000     0.41337    0.00184     0.41520
      H   20    0.17422      0.00000     0.32016    0.00561     0.32578
      H   21    0.09227      0.00000     0.40647    0.00126     0.40773
      H   22    0.09085      0.00000     0.40802    0.00114     0.40915
      H   23    0.09791      0.00000     0.40100    0.00109     0.40209
      H   24    0.09594      0.00000     0.40306    0.00100     0.40406
      H   25    0.09741      0.00000     0.40148    0.00111     0.40259
      H   26    0.10547      0.00000     0.39261    0.00192     0.39453
      H   27    0.09086      0.00000     0.40778    0.00137     0.40914
      H   28    0.07580      0.00000     0.42191    0.00229     0.42420
      H   29    0.17662      0.00000     0.32015    0.00323     0.32338
      H   30    0.17243      0.00000     0.32505    0.00252     0.32757
 =======================================================================
   * Total *    0.00000     16.99495    36.81398    0.19107    54.00000

 Normal termination of Gaussian 16 at Mon Dec 14 19:17:47 2020.
