 Gaussian 16, Revision A.03,

 -----------------------------------------------------------
 # opt freq B3LYP/6-31G(d) empiricaldispersion=gd3bj scf=xqc
 -----------------------------------------------------------

 ------------------------------
 CID_65748100_JID_8397_neutraal
 ------------------------------
 Symbolic Z-matrix:
 Charge =  0 Multiplicity = 1

 SCF Done:  E(RB3LYP) =  -1525.64710871     A.U. after   15 cycles
 SCF Done:  E(RB3LYP) =  -1525.65744256     A.U. after   12 cycles
 SCF Done:  E(RB3LYP) =  -1525.65885584     A.U. after   12 cycles
 SCF Done:  E(RB3LYP) =  -1525.65967698     A.U. after   12 cycles
 SCF Done:  E(RB3LYP) =  -1525.66074693     A.U. after   13 cycles
 SCF Done:  E(RB3LYP) =  -1525.66145670     A.U. after   14 cycles
 SCF Done:  E(RB3LYP) =  -1525.66215032     A.U. after   11 cycles
 SCF Done:  E(RB3LYP) =  -1525.66222156     A.U. after   11 cycles
 SCF Done:  E(RB3LYP) =  -1525.66225478     A.U. after   11 cycles
 SCF Done:  E(RB3LYP) =  -1525.66222796     A.U. after   11 cycles
 SCF Done:  E(RB3LYP) =  -1525.66229625     A.U. after   11 cycles
 SCF Done:  E(RB3LYP) =  -1525.66229858     A.U. after    9 cycles
 SCF Done:  E(RB3LYP) =  -1525.66229997     A.U. after    8 cycles
 SCF Done:  E(RB3LYP) =  -1525.66230071     A.U. after    8 cycles
 SCF Done:  E(RB3LYP) =  -1525.66230093     A.U. after    8 cycles
 Optimization completed.
    -- Stationary point found.
 Normal termination of Gaussian 16 at Fri Dec 11 20:33:24 2020.

 --------------------------------------------------------------------
 #N Geom=AllCheck Guess=TCheck SCRF=Check GenChk RB3LYP/6-31G(d) Freq
 --------------------------------------------------------------------

 Structure from the checkpoint file:  "JID_8397.chk"
 ------------------------------
 CID_65748100_JID_8397_neutraal
 ------------------------------
 Charge =  0 Multiplicity = 1

 SCF Done:  E(RB3LYP) =  -1525.66230093     A.U. after    1 cycles

  Exact polarizability: 215.861 -15.086 147.605   7.976   5.213 159.833
 Approx polarizability: 280.433 -34.510 231.631  12.021  19.026 278.985

                      1                      2                      3
                      A                      A                      A
 Frequencies --     27.5596                33.6148                47.5168
 Red. masses --      4.2395                 3.4218                 3.2565
 Frc consts  --      0.0019                 0.0023                 0.0043
 IR Inten    --      0.4722                 0.8658                 0.3633

                      4                      5                      6
                      A                      A                      A
 Frequencies --     61.0599                85.9910               108.2117
 Red. masses --      3.2532                 1.3320                 2.8507
 Frc consts  --      0.0071                 0.0058                 0.0197
 IR Inten    --      4.6432                 0.4645                 0.5423

                      7                      8                      9
                      A                      A                      A
 Frequencies --    126.3365               151.4177               158.0316
 Red. masses --      4.3001                 3.7443                 2.7415
 Frc consts  --      0.0404                 0.0506                 0.0403
 IR Inten    --      2.2887                 6.8491                 0.7982

                     10                     11                     12
                      A                      A                      A
 Frequencies --    178.0771               193.0458               207.5408
 Red. masses --      2.2916                 2.2052                 2.1466
 Frc consts  --      0.0428                 0.0484                 0.0545
 IR Inten    --      0.1557                 1.5786                 1.5504

                     13                     14                     15
                      A                      A                      A
 Frequencies --    211.2900               252.1745               270.1891
 Red. masses --      2.8692                 4.0289                 3.4938
 Frc consts  --      0.0755                 0.1510                 0.1503
 IR Inten    --      4.7378                 5.7219                 2.1119

                     16                     17                     18
                      A                      A                      A
 Frequencies --    282.3331               292.3440               304.9108
 Red. masses --      3.5275                 3.3475                 2.4432
 Frc consts  --      0.1657                 0.1686                 0.1338
 IR Inten    --      5.7938                 9.4342                 0.9717

                     19                     20                     21
                      A                      A                      A
 Frequencies --    331.4985               360.0570               363.8246
 Red. masses --      1.7329                 4.7901                 4.3995
 Frc consts  --      0.1122                 0.3659                 0.3431
 IR Inten    --     41.9242                 0.6491                 8.7600

                     22                     23                     24
                      A                      A                      A
 Frequencies --    390.9348               414.0849               432.6790
 Red. masses --      2.1714                 2.0617                 3.6215
 Frc consts  --      0.1955                 0.2083                 0.3995
 IR Inten    --      3.5957                 0.1071                 8.6026

                     25                     26                     27
                      A                      A                      A
 Frequencies --    476.1802               491.2854               500.8795
 Red. masses --      5.5064                 2.3958                 4.5373
 Frc consts  --      0.7356                 0.3407                 0.6707
 IR Inten    --      4.0716                 2.0583                11.3497

                     28                     29                     30
                      A                      A                      A
 Frequencies --    521.4669               580.8199               600.1836
 Red. masses --      7.6043                 5.9774                 4.5744
 Frc consts  --      1.2183                 1.1881                 0.9709
 IR Inten    --     28.0716                70.5853                16.1098

                     31                     32                     33
                      A                      A                      A
 Frequencies --    620.0764               651.2540               685.6815
 Red. masses --      5.0428                 4.3335                 4.4208
 Frc consts  --      1.1424                 1.0829                 1.2246
 IR Inten    --     25.8074                86.0354                 7.9776

                     34                     35                     36
                      A                      A                      A
 Frequencies --    712.5298               727.9984               792.0913
 Red. masses --      5.6489                 2.7507                 2.9670
 Frc consts  --      1.6897                 0.8589                 1.0968
 IR Inten    --      2.1325                32.5638                 6.6776

                     37                     38                     39
                      A                      A                      A
 Frequencies --    845.7164               853.8190               878.4327
 Red. masses --      4.1300                 1.2882                 1.3229
 Frc consts  --      1.7404                 0.5533                 0.6014
 IR Inten    --     22.1496                50.7598                71.4225

                     40                     41                     42
                      A                      A                      A
 Frequencies --    887.4308               888.7197               910.9844
 Red. masses --      2.0274                 1.6581                 1.9845
 Frc consts  --      0.9407                 0.7716                 0.9703
 IR Inten    --     19.0301                 2.1123                32.1386

                     43                     44                     45
                      A                      A                      A
 Frequencies --    916.3670               987.1559               990.7601
 Red. masses --      2.5122                 1.6226                 1.8731
 Frc consts  --      1.2429                 0.9316                 1.0833
 IR Inten    --     96.2702                31.9025                 6.9721

                     46                     47                     48
                      A                      A                      A
 Frequencies --   1002.9526              1032.2622              1041.5583
 Red. masses --      1.5612                 1.7474                 2.0554
 Frc consts  --      0.9253                 1.0971                 1.3138
 IR Inten    --     31.3207                14.7421                 6.1850

                     49                     50                     51
                      A                      A                      A
 Frequencies --   1058.5731              1067.6710              1075.6515
 Red. masses --      1.3979                 3.1597                 1.8792
 Frc consts  --      0.9229                 2.1221                 1.2811
 IR Inten    --      5.5450                 9.0792                21.4685

                     52                     53                     54
                      A                      A                      A
 Frequencies --   1087.5636              1122.4577              1123.7005
 Red. masses --      1.9587                 2.1052                 4.8925
 Frc consts  --      1.3650                 1.5628                 3.6399
 IR Inten    --      1.5881                26.3081               184.3558

                     55                     56                     57
                      A                      A                      A
 Frequencies --   1163.5879              1165.7362              1188.7923
 Red. masses --      1.7595                 1.6263                 2.3791
 Frc consts  --      1.4035                 1.3021                 1.9809
 IR Inten    --      9.8945                34.5514                 4.8160

                     58                     59                     60
                      A                      A                      A
 Frequencies --   1189.8001              1194.9006              1216.5247
 Red. masses --      1.9915                 1.6408                 3.0239
 Frc consts  --      1.6611                 1.3803                 2.6367
 IR Inten    --     16.6739                 1.9447                14.6104

                     61                     62                     63
                      A                      A                      A
 Frequencies --   1234.2262              1257.2411              1301.5588
 Red. masses --      1.3542                 1.7714                 3.0598
 Frc consts  --      1.2154                 1.6497                 3.0540
 IR Inten    --     11.6781                16.0024               109.0460

                     64                     65                     66
                      A                      A                      A
 Frequencies --   1307.9630              1315.6353              1348.1589
 Red. masses --      1.3897                 1.6710                 1.3593
 Frc consts  --      1.4008                 1.7041                 1.4557
 IR Inten    --     24.6757                49.3971                 1.2279

                     67                     68                     69
                      A                      A                      A
 Frequencies --   1363.1409              1375.2366              1375.7845
 Red. masses --      1.5423                 1.4699                 1.9949
 Frc consts  --      1.6885                 1.6379                 2.2247
 IR Inten    --      0.2182                 2.8145                11.6588

                     70                     71                     72
                      A                      A                      A
 Frequencies --   1388.1012              1403.5295              1413.8891
 Red. masses --      1.4584                 1.4120                 1.3877
 Frc consts  --      1.6557                 1.6388                 1.6345
 IR Inten    --      6.9449                 2.2561                 0.9595

                     73                     74                     75
                      A                      A                      A
 Frequencies --   1426.3704              1434.5985              1439.6303
 Red. masses --      1.3420                 1.4147                 1.3008
 Frc consts  --      1.6087                 1.7155                 1.5884
 IR Inten    --      7.6680                25.5827                 7.5732

                     76                     77                     78
                      A                      A                      A
 Frequencies --   1445.1152              1499.8180              1508.6449
 Red. masses --      1.2734                 1.0641                 1.0767
 Frc consts  --      1.5668                 1.4104                 1.4439
 IR Inten    --      4.7222                 4.6368                 3.5192

                     79                     80                     81
                      A                      A                      A
 Frequencies --   1516.9089              1519.1493              1522.0445
 Red. masses --      1.0709                 1.0949                 1.1176
 Frc consts  --      1.4518                 1.4888                 1.5255
 IR Inten    --      2.1987                13.5700                10.2214

                     82                     83                     84
                      A                      A                      A
 Frequencies --   1528.1184              1530.2663              1538.1613
 Red. masses --      1.0662                 1.1006                 1.0705
 Frc consts  --      1.4669                 1.5184                 1.4923
 IR Inten    --      5.2609                 0.7594                 6.6069

                     85                     86                     87
                      A                      A                      A
 Frequencies --   1540.5693              1543.4798              1605.9546
 Red. masses --      1.0964                 4.9541                 6.7947
 Frc consts  --      1.5331                 6.9537                10.3249
 IR Inten    --      4.7674                13.3941                 7.1317

                     88                     89                     90
                      A                      A                      A
 Frequencies --   1693.3526              2974.5113              2992.8164
 Red. masses --      1.0937                 1.0714                 1.0729
 Frc consts  --      1.8477                 5.5852                 5.6621
 IR Inten    --     35.4676                60.1420                46.0009

                     91                     92                     93
                      A                      A                      A
 Frequencies --   3014.7884              3028.5323              3042.9684
 Red. masses --      1.0699                 1.0706                 1.0753
 Frc consts  --      5.7295                 5.7853                 5.8666
 IR Inten    --     22.7873                12.3164                75.1568

                     94                     95                     96
                      A                      A                      A
 Frequencies --   3046.1573              3053.7740              3057.1979
 Red. masses --      1.0898                 1.0443                 1.0585
 Frc consts  --      5.9579                 5.7379                 5.8290
 IR Inten    --     29.1193                23.3583                13.1986

                     97                     98                     99
                      A                      A                      A
 Frequencies --   3063.5424              3080.2990              3097.9906
 Red. masses --      1.0345                 1.0966                 1.1046
 Frc consts  --      5.7204                 6.1303                 6.2462
 IR Inten    --     12.6846                43.9584                49.7250

                    100                    101                    102
                      A                      A                      A
 Frequencies --   3110.6057              3114.8426              3127.1740
 Red. masses --      1.0963                 1.1001                 1.1012
 Frc consts  --      6.2501                 6.2885                 6.3449
 IR Inten    --      9.1631                43.4963                 4.7779

                    103                    104                    105
                      A                      A                      A
 Frequencies --   3139.1555              3143.7267              3152.8446
 Red. masses --      1.0990                 1.1037                 1.0909
 Frc consts  --      6.3806                 6.4269                 6.3890
 IR Inten    --     29.5130                 7.9733                 4.3726

                    106                    107                    108
                      A                      A                      A
 Frequencies --   3243.7570              3477.7983              3567.9094
 Red. masses --      1.0934                 1.0496                 1.0936
 Frc consts  --      6.7782                 7.4795                 8.2020
 IR Inten    --      2.4837                 0.7843                 0.5879

 - Thermochemistry -
 -------------------
 Temperature   298.150 Kelvin.  Pressure   1.00000 Atm.
 Atom     1 has atomic number  6 and mass  12.00000

 Molecular mass:   288.09662 amu.
 Principal axes and moments of inertia in atomic units:
                           1         2         3
     Eigenvalues --  2959.230208114.799738807.33426
           X            0.99982   0.01554   0.01080
           Y           -0.01523   0.99947  -0.02864
           Z           -0.01124   0.02847   0.99953
 This molecule is an asymmetric top.
 Rotational symmetry number  1.
 Warning -- assumption of classical behavior for rotation
           may cause significant error
 Rotational temperatures (Kelvin)      0.02927     0.01067     0.00983
 Rotational constants (GHZ):           0.60987     0.22240     0.20491
 Zero-point vibrational energy     840037.6 (Joules/Mol)
                                  200.77382 (Kcal/Mol)
 Warning -- explicit consideration of  31 degrees of freedom as
           vibrations may cause significant error
 Vibrational temperatures:     39.65    48.36    68.37    87.85   123.72
          (Kelvin)            155.69   181.77   217.86   227.37   256.21
                              277.75   298.60   304.00   362.82   388.74
                              406.21   420.62   438.70   476.95   518.04
                              523.46   562.47   595.78   622.53   685.12
                              706.85   720.65   750.27   835.67   863.53
                              892.15   937.01   986.54  1025.17  1047.43
                             1139.64  1216.80  1228.46  1263.87  1276.81
                             1278.67  1310.70  1318.45  1420.30  1425.48
                             1443.03  1485.20  1498.57  1523.05  1536.14
                             1547.62  1564.76  1614.97  1616.75  1674.14
                             1677.23  1710.41  1711.86  1719.20  1750.31
                             1775.78  1808.89  1872.65  1881.87  1892.91
                             1939.70  1961.26  1978.66  1979.45  1997.17
                             2019.37  2034.27  2052.23  2064.07  2071.31
                             2079.20  2157.90  2170.60  2182.49  2185.72
                             2189.88  2198.62  2201.71  2213.07  2216.54
                             2220.72  2310.61  2436.36  4279.66  4306.00
                             4337.61  4357.38  4378.15  4382.74  4393.70
                             4398.63  4407.75  4431.86  4457.32  4475.47
                             4481.56  4499.31  4516.54  4523.12  4536.24
                             4667.04  5003.78  5133.43

 Zero-point correction=                           0.319953 (Hartree/Particle)
 Thermal correction to Energy=                    0.339052
 Thermal correction to Enthalpy=                  0.339997
 Thermal correction to Gibbs Free Energy=         0.271826
 Sum of electronic and zero-point Energies=          -1525.342347
 Sum of electronic and thermal Energies=             -1525.323249
 Sum of electronic and thermal Enthalpies=           -1525.322304
 Sum of electronic and thermal Free Energies=        -1525.390475

                     E (Thermal)             CV                S
                      KCal/Mol        Cal/Mol-Kelvin    Cal/Mol-Kelvin
 Total                  212.759             71.864            143.476
 Electronic               0.000              0.000              0.000
 Translational            0.889              2.981             42.872
 Rotational               0.889              2.981             33.714
 Vibrational            210.981             65.902             66.891
 Vibration     1          0.593              1.984              5.998
 Vibration     2          0.594              1.983              5.604
 Vibration     3          0.595              1.979              4.918
 Vibration     4          0.597              1.973              4.423
 Vibration     5          0.601              1.959              3.749
 Vibration     6          0.606              1.943              3.301
 Vibration     7          0.611              1.927              3.001
 Vibration     8          0.619              1.901              2.654
 Vibration     9          0.621              1.894              2.573
 Vibration    10          0.629              1.869              2.348
 Vibration    11          0.635              1.850              2.198
 Vibration    12          0.641              1.829              2.065
 Vibration    13          0.643              1.824              2.032
 Vibration    14          0.664              1.759              1.715
 Vibration    15          0.674              1.728              1.595
 Vibration    16          0.681              1.706              1.519
 Vibration    17          0.688              1.688              1.460
 Vibration    18          0.696              1.664              1.390
 Vibration    19          0.714              1.613              1.253
 Vibration    20          0.735              1.555              1.122
 Vibration    21          0.737              1.547              1.106
 Vibration    22          0.759              1.490              0.997
 Vibration    23          0.778              1.440              0.912
 Vibration    24          0.794              1.399              0.850
 Vibration    25          0.833              1.303              0.720
 Vibration    26          0.847              1.269              0.680
 Vibration    27          0.856              1.248              0.656
 Vibration    28          0.876              1.202              0.607
 Vibration    29          0.938              1.073              0.484
 Vibration    30          0.958              1.031              0.449
 Vibration    31          0.980              0.990              0.416

                           ! Non-Optimized Parameters !
 Normal termination of Gaussian 16 at Fri Dec 11 20:52:01 2020.

 ----------------------------------------------------------------------
 # B3LYP/6-311++G(d,p) empiricaldispersion=gd3bj scf=xqc pop=npa geom=c
 heck
 ----------------------------------------------------------------------

 --------------------------------------
 CID_65748100_JID_8397_Energie_neutraal
 --------------------------------------
 Structure from the checkpoint file:  "JID_8397.chk"
 Charge =  0 Multiplicity = 1

 SCF Done:  E(RB3LYP) =  -1525.92298457     A.U. after   17 cycles
 Normal termination of Gaussian 16 at Fri Dec 11 21:02:27 2020.

 ----------------------------------------------------------------------
 # B3LYP/6-311++G(d,p) empiricaldispersion=gd3bj scf=xqc pop=npa geom=c
 heck
 ----------------------------------------------------------------------

 ------------------------------------
 CID_65748100_JID_8397_Energie_kation
 ------------------------------------
 Structure from the checkpoint file:  "JID_8397.chk"
 Charge =  1 Multiplicity = 2

 SCF Done:  E(UB3LYP) =  -1525.62499845     A.U. after   26 cycles
 Normal termination of Gaussian 16 at Fri Dec 11 21:25:18 2020.
 Gaussian 16:  ES64L-G16RevA.03 25-Dec-2016

 ----------------------------------------------------------------------
 # B3LYP/6-311++G(d,p) empiricaldispersion=gd3bj scf=xqc pop=npa geom=c
 heck
 ----------------------------------------------------------------------

 -----------------------------------
 CID_65748100_JID_8397_Energie_anion
 -----------------------------------
 Structure from the checkpoint file:  "JID_8397.chk"
 Charge = -1 Multiplicity = 2

                         Standard orientation:
 ---------------------------------------------------------------------
 Center     Atomic      Atomic             Coordinates (Angstroms)
 Number     Number       Type             X           Y           Z
 ---------------------------------------------------------------------
      1          6           0        1.757822    2.665772    0.072378
      2          6           0        2.516066    1.821332   -0.958933
      3          6           0        3.947684    1.469311   -0.509987
      4          6           0        3.955739    0.430519    0.619845
      5          6           0        3.138170   -0.804708    0.238998
      6          7           0        1.777934   -0.369702   -0.128021
      7          6           0        1.757441    0.529119   -1.294612
      8         16           0        0.619426   -1.608023   -0.194113
      9          8           0        0.533945   -2.192562   -1.541073
     10          8           0        0.882453   -2.469766    0.964349
     11          6           0       -0.861738   -0.671026    0.061658
     12          6           0       -1.147693   -0.016420    1.237116
     13         16           0       -2.698713    0.760788    1.111227
     14          6           0       -2.932882    0.196619   -0.530849
     15          6           0       -1.873916   -0.561338   -0.942234
     16          6           0       -4.163307    0.593185   -1.290348
     17          7           0       -5.320109    0.643447   -0.393092
     18          6           0       -0.339603    0.042745    2.495928
     19          1           0        2.299439    3.592964    0.291205
     20          1           0        1.619019    2.123213    1.011492
     21          1           0        0.762762    2.934388   -0.300300
     22          1           0        2.582160    2.399288   -1.890731
     23          1           0        4.495839    1.059084   -1.369670
     24          1           0        4.479683    2.376512   -0.199188
     25          1           0        3.540227    0.861066    1.538351
     26          1           0        4.983382    0.122103    0.845537
     27          1           0        3.056687   -1.502045    1.073454
     28          1           0        3.616371   -1.330534   -0.603979
     29          1           0        0.715912    0.756974   -1.538196
     30          1           0        2.205925    0.031510   -2.167823
     31          1           0       -1.791376   -1.031845   -1.914345
     32          1           0       -4.035386    1.601703   -1.706491
     33          1           0       -4.265504   -0.091193   -2.150325
     34          1           0       -6.132142    1.010312   -0.884746
     35          1           0       -5.557319   -0.296233   -0.079802
     36          1           0       -0.756573    0.762369    3.205403
     37          1           0       -0.299413   -0.942249    2.972052
     38          1           0        0.690235    0.330106    2.262105
 ---------------------------------------------------------------------

 SCF Done:  E(UB3LYP) =  -1525.91998913     A.U. after   31 cycles

 The electronic state is 2-A.
 Alpha  occ. eigenvalues --  -88.95631 -88.76284 -19.01282 -19.01099 -14.24323
 Alpha  occ. eigenvalues --  -14.19899 -10.11476 -10.11044 -10.10409 -10.09699
 Alpha  occ. eigenvalues --  -10.09055 -10.08892 -10.08731 -10.08576 -10.08244
 Alpha  occ. eigenvalues --  -10.07510 -10.07161 -10.06656  -8.01796  -7.84887
 Alpha  occ. eigenvalues --   -5.98076  -5.98046  -5.97886  -5.81174  -5.80802
 Alpha  occ. eigenvalues --   -5.80506  -1.01304  -0.90286  -0.84674  -0.79758
 Alpha  occ. eigenvalues --   -0.77277  -0.72357  -0.68676  -0.67002  -0.65151
 Alpha  occ. eigenvalues --   -0.60276  -0.60143  -0.59394  -0.55077  -0.53359
 Alpha  occ. eigenvalues --   -0.50980  -0.46193  -0.45213  -0.44336  -0.41736
 Alpha  occ. eigenvalues --   -0.40543  -0.38766  -0.38034  -0.37162  -0.36665
 Alpha  occ. eigenvalues --   -0.36035  -0.35814  -0.34623  -0.33401  -0.33084
 Alpha  occ. eigenvalues --   -0.32816  -0.31796  -0.31656  -0.29347  -0.29147
 Alpha  occ. eigenvalues --   -0.28507  -0.27984  -0.26670  -0.26094  -0.25686
 Alpha  occ. eigenvalues --   -0.25055  -0.24841  -0.24625  -0.23158  -0.22881
 Alpha  occ. eigenvalues --   -0.21919  -0.20922  -0.19840  -0.16483  -0.15435
 Alpha  occ. eigenvalues --   -0.14822  -0.12509   0.03752
 Alpha virt. eigenvalues --    0.05351   0.06365   0.07118   0.07388   0.08113
 Alpha virt. eigenvalues --    0.08852   0.09319   0.09801   0.10057   0.10429
 Alpha virt. eigenvalues --    0.10910   0.10959   0.11482   0.12249   0.12770

  Beta  occ. eigenvalues --  -88.95625 -88.76255 -19.01276 -19.01080 -14.24311
  Beta  occ. eigenvalues --  -14.19849 -10.11474 -10.11032 -10.10396 -10.09398
  Beta  occ. eigenvalues --  -10.09050 -10.08772 -10.08747 -10.08562 -10.08228
  Beta  occ. eigenvalues --  -10.07530 -10.07166 -10.06642  -8.01789  -7.84860
  Beta  occ. eigenvalues --   -5.98065  -5.98034  -5.97883  -5.81164  -5.80791
  Beta  occ. eigenvalues --   -5.80408  -1.01275  -0.90262  -0.84652  -0.79618
  Beta  occ. eigenvalues --   -0.77089  -0.72329  -0.68648  -0.66757  -0.65033
  Beta  occ. eigenvalues --   -0.60220  -0.60060  -0.59326  -0.55025  -0.53299
  Beta  occ. eigenvalues --   -0.50861  -0.46072  -0.45173  -0.44191  -0.41633
  Beta  occ. eigenvalues --   -0.40454  -0.38685  -0.38010  -0.37134  -0.36628
  Beta  occ. eigenvalues --   -0.35992  -0.35727  -0.34578  -0.33346  -0.32877
  Beta  occ. eigenvalues --   -0.32645  -0.31765  -0.31531  -0.29259  -0.29107
  Beta  occ. eigenvalues --   -0.28399  -0.27949  -0.26644  -0.25976  -0.25448
  Beta  occ. eigenvalues --   -0.24956  -0.24745  -0.24565  -0.23124  -0.22837
  Beta  occ. eigenvalues --   -0.21873  -0.20871  -0.19791  -0.16358  -0.15342
  Beta  occ. eigenvalues --   -0.14520  -0.11633
  Beta virt. eigenvalues --    0.05737   0.06642   0.07314   0.07512   0.07798
  Beta virt. eigenvalues --    0.08428   0.09130   0.09600   0.10002   0.10114
  Beta virt. eigenvalues --    0.10574   0.11047   0.11163   0.11564   0.12518

 Mulliken charges and spin densities:
               1          2
     1  C    0.310858  -0.886037
     2  C   -0.709364   0.953238
     3  C    0.181283  -0.649163
     4  C    0.042042  -0.284078
     5  C   -0.509701   0.122527
     6  N    0.103752  -0.023632
     7  C   -0.131540  -0.459392
     8  S    0.502217  -0.062687
     9  O   -0.050104  -0.000051
    10  O   -0.238510  -0.004456
    11  C   -0.915726  -0.018502
    12  C    0.054385   0.272868
    13  S   -0.171725  -0.196131
    14  C   -0.093103   0.562236
    15  C   -0.030361   0.206102
    16  C    0.908410  -1.383862
    17  N   -0.405944   0.061430
    18  C   -0.373042  -0.112688
    19  H   -0.113076   0.268502
    20  H   -0.024690   0.149586
    21  H    0.083605   0.045726
    22  H   -0.134230   0.348863
    23  H    0.069147   0.054239
    24  H   -0.238461   0.393631
    25  H    0.067775   0.066263
    26  H   -0.107881   0.278885
    27  H    0.172234   0.015125
    28  H    0.142305   0.013982
    29  H    0.223223  -0.064517
    30  H    0.184686   0.025228
    31  H    0.168206   0.014869
    32  H   -0.413651   0.625843
    33  H   -0.041688   0.198418
    34  H   -0.147665   0.385552
    35  H    0.092981   0.113255
    36  H    0.080015   0.062602
    37  H    0.197980   0.009534
    38  H    0.265359  -0.103310
 Sum of Mulliken charges =  -1.00000   1.00000

 Dipole moment (field-independent basis, Debye):
    X=              4.4966    Y=             -1.6540    Z=              1.4971  Tot=              5.0196
 Quadrupole moment (field-independent basis, Debye-Ang):
   XX=           -211.4669   YY=           -172.4815   ZZ=           -149.2267
   XY=              7.3959   XZ=             -6.5542   YZ=              1.3699

 Summary of Natural Population Analysis:

                                       Natural Population
                Natural  -----------------------------------------------
    Atom  No    Charge         Core      Valence    Rydberg      Total
 -----------------------------------------------------------------------
      C    1   -0.28792      0.99965     2.28169    0.00659     3.28792
      C    2   -0.11610      0.99960     2.10530    0.01121     3.11610
      C    3   -0.18885      0.99961     2.18003    0.00921     3.18885
      C    4   -0.19593      0.99962     2.18679    0.00951     3.19593
      C    5   -0.08881      0.99961     2.07829    0.01091     3.08881
      N    6   -0.37678      0.99972     2.86343    0.01363     3.87678
      C    7   -0.08837      0.99959     2.07649    0.01229     3.08837
      S    8    1.11879      4.99910     1.78254    0.09958     6.88121
      O    9   -0.46794      0.99991     3.46281    0.00522     4.46794
      O   10   -0.46727      0.99991     3.46257    0.00480     4.46727
      C   11   -0.19216      0.99925     2.17610    0.01681     3.19216
      C   12   -0.02890      0.99943     2.01654    0.01292     3.02890
      S   13    0.23690      4.99937     2.74409    0.01964     7.76310
      C   14   -0.08495      0.99950     2.07259    0.01286     3.08495
      C   15   -0.12787      0.99941     2.11606    0.01241     3.12787
      C   16   -0.10154      0.99957     2.08910    0.01287     3.10154
      N   17   -0.41879      0.99978     2.90809    0.01092     3.91879
      C   18   -0.30512      0.99961     2.29995    0.00556     3.30512
      H   19    0.09744      0.00000     0.40173    0.00083     0.40256
      H   20    0.10116      0.00000     0.39754    0.00130     0.39884
      H   21    0.10342      0.00000     0.39552    0.00106     0.39658
      H   22    0.09932      0.00000     0.39973    0.00095     0.40068
      H   23    0.09541      0.00000     0.40347    0.00112     0.40459
      H   24    0.10146      0.00000     0.39744    0.00110     0.39854
      H   25    0.09888      0.00000     0.39989    0.00123     0.40112
      H   26    0.10044      0.00000     0.39865    0.00091     0.39956
      H   27    0.11283      0.00000     0.38609    0.00108     0.38717
      H   28    0.08512      0.00000     0.41367    0.00121     0.41488
      H   29    0.11076      0.00000     0.38812    0.00112     0.38924
      H   30    0.09262      0.00000     0.40624    0.00114     0.40738
      H   31    0.11587      0.00000     0.38288    0.00126     0.38413
      H   32    0.10116      0.00000     0.39591    0.00293     0.39884
      H   33    0.08599      0.00000     0.41237    0.00164     0.41401
      H   34    0.17797      0.00000     0.31842    0.00362     0.32203
      H   35    0.17312      0.00000     0.32525    0.00163     0.32688
      H   36    0.10137      0.00000     0.39792    0.00071     0.39863
      H   37    0.11449      0.00000     0.38448    0.00103     0.38551
      H   38    0.11281      0.00000     0.38581    0.00138     0.38719
 =======================================================================
   * Total *   -0.00000     25.99221    50.69358    0.31421    77.00000

 Normal termination of Gaussian 16 at Fri Dec 11 21:52:40 2020.
