 Gaussian 16, Revision A.03,

 -----------------------------------------------------------
 # opt freq B3LYP/6-31G(d) empiricaldispersion=gd3bj scf=xqc
 -----------------------------------------------------------

 ------------------------------
 CID_12835792_JID_2680_neutraal
 ------------------------------
 Symbolic Z-matrix:
 Charge =  0 Multiplicity = 1

 SCF Done:  E(RB3LYP) =  -541.151340258     A.U. after   13 cycles
 SCF Done:  E(RB3LYP) =  -541.154983911     A.U. after   14 cycles
 SCF Done:  E(RB3LYP) =  -541.155288513     A.U. after   13 cycles
 SCF Done:  E(RB3LYP) =  -541.156979550     A.U. after   13 cycles
 SCF Done:  E(RB3LYP) =  -541.157398497     A.U. after   13 cycles
 SCF Done:  E(RB3LYP) =  -541.157534267     A.U. after   13 cycles
 SCF Done:  E(RB3LYP) =  -541.157970581     A.U. after   12 cycles
 SCF Done:  E(RB3LYP) =  -541.158022770     A.U. after   12 cycles
 SCF Done:  E(RB3LYP) =  -541.158054310     A.U. after   11 cycles
 SCF Done:  E(RB3LYP) =  -541.158084457     A.U. after   12 cycles
 SCF Done:  E(RB3LYP) =  -541.162362121     A.U. after   10 cycles
 SCF Done:  E(RB3LYP) =  -541.162362774     A.U. after    8 cycles
 SCF Done:  E(RB3LYP) =  -541.162362956     A.U. after    7 cycles
 SCF Done:  E(RB3LYP) =  -541.162363038     A.U. after    7 cycles
 SCF Done:  E(RB3LYP) =  -541.162363089     A.U. after    7 cycles
 Optimization completed.
    -- Stationary point found.
 Normal termination of Gaussian 16 at Wed Dec  9 18:38:03 2020.

 --------------------------------------------------------------------
 #N Geom=AllCheck Guess=TCheck SCRF=Check GenChk RB3LYP/6-31G(d) Freq
 --------------------------------------------------------------------

 Structure from the checkpoint file:  "JID_2680.chk"
 ------------------------------
 CID_12835792_JID_2680_neutraal
 ------------------------------
 Charge =  0 Multiplicity = 1

 SCF Done:  E(RB3LYP) =  -541.162363089     A.U. after    1 cycles

  Exact polarizability: 113.278   6.662 112.288   1.012   0.215  93.240
 Approx polarizability: 136.908   4.967 183.322   1.096   2.273 139.124

                      1                      2                      3
                      A                      A                      A
 Frequencies --     30.7236                42.3925                78.1517
 Red. masses --      5.0192                 3.5560                 4.6023
 Frc consts  --      0.0028                 0.0038                 0.0166
 IR Inten    --      3.0588                 4.4890                 3.9809

                      4                      5                      6
                      A                      A                      A
 Frequencies --     85.7785               115.4846               140.8597
 Red. masses --      3.4141                 1.1526                 2.3697
 Frc consts  --      0.0148                 0.0091                 0.0277
 IR Inten    --      2.5038                 0.2371                 1.5831

                      7                      8                      9
                      A                      A                      A
 Frequencies --    173.8497               196.3815               213.6583
 Red. masses --      2.6830                 2.5680                 1.2092
 Frc consts  --      0.0478                 0.0584                 0.0325
 IR Inten    --      2.6280                 4.6136                 0.4167

                     10                     11                     12
                      A                      A                      A
 Frequencies --    235.9122               273.0148               281.6518
 Red. masses --      1.6255                 2.2825                 1.7146
 Frc consts  --      0.0533                 0.1002                 0.0801
 IR Inten    --      0.8615                 1.1800                 0.3226

                     13                     14                     15
                      A                      A                      A
 Frequencies --    291.0449               364.2983               408.4342
 Red. masses --      2.2853                 2.5717                 2.8288
 Frc consts  --      0.1141                 0.2011                 0.2780
 IR Inten    --      1.7814                 0.7294                 5.8321

                     16                     17                     18
                      A                      A                      A
 Frequencies --    430.1210               466.6442               477.5317
 Red. masses --      3.0215                 2.2159                 2.5704
 Frc consts  --      0.3293                 0.2843                 0.3453
 IR Inten    --      5.0824                 2.6508                 7.6500

                     19                     20                     21
                      A                      A                      A
 Frequencies --    510.6807               526.6176               609.7388
 Red. masses --      2.9695                 3.5839                 3.3625
 Frc consts  --      0.4563                 0.5856                 0.7365
 IR Inten    --      8.3134                 0.8388                 6.1451

                     22                     23                     24
                      A                      A                      A
 Frequencies --    681.9572               746.9117               777.4791
 Red. masses --      3.6277                 2.1509                 3.0219
 Frc consts  --      0.9940                 0.7070                 1.0762
 IR Inten    --      1.6579                10.1195                 1.4252

                     25                     26                     27
                      A                      A                      A
 Frequencies --    869.8828               913.0971               941.4883
 Red. masses --      1.8748                 2.4857                 1.5495
 Frc consts  --      0.8359                 1.2210                 0.8092
 IR Inten    --      2.0511                 7.6140                 5.4579

                     28                     29                     30
                      A                      A                      A
 Frequencies --    963.7482               979.5904               990.2361
 Red. masses --      1.8006                 1.4578                 1.9960
 Frc consts  --      0.9853                 0.8242                 1.1532
 IR Inten    --      8.4793                 1.4186                 9.9974

                     31                     32                     33
                      A                      A                      A
 Frequencies --    998.1560              1021.5458              1044.7598
 Red. masses --      1.5172                 1.5796                 1.7326
 Frc consts  --      0.8906                 0.9712                 1.1142
 IR Inten    --      7.8462                18.8988                 2.6444

                     34                     35                     36
                      A                      A                      A
 Frequencies --   1052.1373              1087.1530              1117.8819
 Red. masses --      1.7590                 1.7497                 1.7562
 Frc consts  --      1.1472                 1.2184                 1.2930
 IR Inten    --     11.5116                 8.8695                21.1427

                     37                     38                     39
                      A                      A                      A
 Frequencies --   1158.7356              1165.7677              1177.8584
 Red. masses --      1.9185                 2.1710                 1.8182
 Frc consts  --      1.5176                 1.7383                 1.4862
 IR Inten    --     15.8211                 7.9853                34.2309

                     40                     41                     42
                      A                      A                      A
 Frequencies --   1203.9115              1231.2965              1248.8114
 Red. masses --      2.1842                 1.3279                 1.5091
 Frc consts  --      1.8652                 1.1862                 1.3866
 IR Inten    --     64.4812                15.4684                 5.9187

                     43                     44                     45
                      A                      A                      A
 Frequencies --   1289.7499              1340.1018              1355.5032
 Red. masses --      1.4746                 1.8845                 1.3738
 Frc consts  --      1.4452                 1.9940                 1.4872
 IR Inten    --      5.2761                 2.3373                 1.9299

                     46                     47                     48
                      A                      A                      A
 Frequencies --   1391.1306              1402.9471              1417.4570
 Red. masses --      1.5999                 1.4056                 1.5434
 Frc consts  --      1.8243                 1.6301                 1.8271
 IR Inten    --      6.5983                 9.7585                49.2898

                     49                     50                     51
                      A                      A                      A
 Frequencies --   1439.7603              1447.9168              1461.3478
 Red. masses --      1.3104                 1.4004                 1.2714
 Frc consts  --      1.6004                 1.7298                 1.5997
 IR Inten    --      8.4459                 1.1320                 1.3158

                     52                     53                     54
                      A                      A                      A
 Frequencies --   1477.9318              1480.6176              1495.1379
 Red. masses --      1.6530                 1.1233                 1.0587
 Frc consts  --      2.1274                 1.4509                 1.3945
 IR Inten    --     16.1704                 3.0893                14.4095

                     55                     56                     57
                      A                      A                      A
 Frequencies --   1504.7994              1510.8466              1514.4674
 Red. masses --      1.0513                 1.0767                 1.0511
 Frc consts  --      1.4026                 1.4481                 1.4204
 IR Inten    --     11.1436                 4.3900                 0.6566

                     58                     59                     60
                      A                      A                      A
 Frequencies --   1523.7687              1534.3547              1546.2075
 Red. masses --      1.0598                 1.0457                 1.1733
 Frc consts  --      1.4499                 1.4504                 1.6527
 IR Inten    --      9.6172                 7.7942                 0.5940

                     61                     62                     63
                      A                      A                      A
 Frequencies --   1800.0583              1812.9010              2914.6348
 Red. masses --      9.3088                10.0159                 1.0818
 Frc consts  --     17.7712                19.3950                 5.4146
 IR Inten    --    219.1819               141.8061                80.2109

                     64                     65                     66
                      A                      A                      A
 Frequencies --   3028.2200              3040.9686              3050.9080
 Red. masses --      1.0638                 1.0358                 1.0397
 Frc consts  --      5.7478                 5.6434                 5.7021
 IR Inten    --     18.7054                28.2457                 2.4014

                     67                     68                     69
                      A                      A                      A
 Frequencies --   3051.2132              3063.6058              3076.7682
 Red. masses --      1.0394                 1.0859                 1.0703
 Frc consts  --      5.7014                 6.0050                 5.9698
 IR Inten    --     34.9147                 2.2257                31.0105

                     70                     71                     72
                      A                      A                      A
 Frequencies --   3101.9818              3106.5648              3109.5795
 Red. masses --      1.1024                 1.1017                 1.0987
 Frc consts  --      6.2496                 6.2643                 6.2595
 IR Inten    --      6.2605                36.5267                10.2898

                     73                     74                     75
                      A                      A                      A
 Frequencies --   3113.0263              3120.2880              3145.7335
 Red. masses --      1.1020                 1.1020                 1.0967
 Frc consts  --      6.2921                 6.3214                 6.3942
 IR Inten    --     20.6071                26.6481                28.7508

                     76                     77                     78
                      A                      A                      A
 Frequencies --   3167.4478              3174.1017              3182.7828
 Red. masses --      1.1023                 1.0882                 1.0884
 Frc consts  --      6.5155                 6.4597                 6.4962
 IR Inten    --     10.0663                 2.7525                 9.3027

 - Thermochemistry -
 -------------------
 Temperature   298.150 Kelvin.  Pressure   1.00000 Atm.
 Atom     1 has atomic number  6 and mass  12.00000

 Molecular mass:   168.11503 amu.
 Principal axes and moments of inertia in atomic units:
                           1         2         3
     Eigenvalues --  1436.555573201.522373874.45353
           X            0.99867   0.05148   0.00144
           Y           -0.05144   0.99842  -0.02242
           Z           -0.00259   0.02232   0.99975
 This molecule is an asymmetric top.
 Rotational symmetry number  1.
 Warning -- assumption of classical behavior for rotation
           may cause significant error
 Rotational temperatures (Kelvin)      0.06029     0.02705     0.02236
 Rotational constants (GHZ):           1.25630     0.56371     0.46581
 Zero-point vibrational energy     637132.3 (Joules/Mol)
                                  152.27828 (Kcal/Mol)
 Warning -- explicit consideration of  21 degrees of freedom as
           vibrations may cause significant error
 Vibrational temperatures:     44.20    60.99   112.44   123.42   166.16
          (Kelvin)            202.67   250.13   282.55   307.41   339.42
                              392.81   405.23   418.75   524.14   587.65
                              618.85   671.40   687.06   734.76   757.69
                              877.28   981.18  1074.64  1118.62  1251.57
                             1313.74  1354.59  1386.62  1409.41  1424.73
                             1436.12  1469.78  1503.18  1513.79  1564.17
                             1608.38  1667.16  1677.28  1694.68  1732.16
                             1771.56  1796.76  1855.66  1928.11  1950.27
                             2001.53  2018.53  2039.40  2071.49  2083.23
                             2102.55  2126.41  2130.28  2151.17  2165.07
                             2173.77  2178.98  2192.36  2207.59  2224.65
                             2589.88  2608.36  4193.51  4356.93  4375.28
                             4389.58  4390.02  4407.85  4426.78  4463.06
                             4469.65  4473.99  4478.95  4489.40  4526.01
                             4557.25  4566.82  4579.31

 Zero-point correction=                           0.242671 (Hartree/Particle)
 Thermal correction to Energy=                    0.256654
 Thermal correction to Enthalpy=                  0.257598
 Thermal correction to Gibbs Free Energy=         0.201242
 Sum of electronic and zero-point Energies=           -540.919692
 Sum of electronic and thermal Energies=              -540.905709
 Sum of electronic and thermal Enthalpies=            -540.904765
 Sum of electronic and thermal Free Energies=         -540.961121

                     E (Thermal)             CV                S
                      KCal/Mol        Cal/Mol-Kelvin    Cal/Mol-Kelvin
 Total                  161.053             50.451            118.612
 Electronic               0.000              0.000              0.000
 Translational            0.889              2.981             41.266
 Rotational               0.889              2.981             31.255
 Vibrational            159.275             44.490             46.090
 Vibration     1          0.594              1.984              5.782
 Vibration     2          0.595              1.980              5.144
 Vibration     3          0.599              1.964              3.937
 Vibration     4          0.601              1.959              3.754
 Vibration     5          0.608              1.937              3.175
 Vibration     6          0.615              1.912              2.792
 Vibration     7          0.627              1.875              2.393
 Vibration     8          0.636              1.845              2.167
 Vibration     9          0.644              1.820              2.012
 Vibration    10          0.655              1.786              1.834
 Vibration    11          0.676              1.723              1.577
 Vibration    12          0.681              1.708              1.524
 Vibration    13          0.687              1.690              1.468
 Vibration    14          0.738              1.546              1.104
 Vibration    15          0.773              1.452              0.932
 Vibration    16          0.791              1.405              0.858
 Vibration    17          0.824              1.324              0.747
 Vibration    18          0.834              1.300              0.717
 Vibration    19          0.866              1.226              0.632
 Vibration    20          0.882              1.191              0.595
 Vibration    21          0.969              1.011              0.433

 Optimization completed.
    -- Stationary point found.
 Normal termination of Gaussian 16 at Wed Dec  9 18:44:13 2020.

 ----------------------------------------------------------------------
 # B3LYP/6-311++G(d,p) empiricaldispersion=gd3bj scf=xqc pop=npa geom=c
 heck
 ----------------------------------------------------------------------

 --------------------------------------
 CID_12835792_JID_2680_Energie_neutraal
 --------------------------------------
 Structure from the checkpoint file:  "JID_2680.chk"
 Charge =  0 Multiplicity = 1

 SCF Done:  E(RB3LYP) =  -541.320461190     A.U. after   14 cycles
 Normal termination of Gaussian 16 at Wed Dec  9 18:46:29 2020.

 ----------------------------------------------------------------------
 # B3LYP/6-311++G(d,p) empiricaldispersion=gd3bj scf=xqc pop=npa geom=c
 heck
 ----------------------------------------------------------------------

 ------------------------------------
 CID_12835792_JID_2680_Energie_kation
 ------------------------------------
 Structure from the checkpoint file:  "JID_2680.chk"
 Charge =  1 Multiplicity = 2

 SCF Done:  E(UB3LYP) =  -540.996135217     A.U. after   28 cycles
 Normal termination of Gaussian 16 at Wed Dec  9 18:52:26 2020.
 Gaussian 16:  ES64L-G16RevA.03 25-Dec-2016

 ----------------------------------------------------------------------
 # B3LYP/6-311++G(d,p) empiricaldispersion=gd3bj scf=xqc pop=npa geom=c
 heck
 ----------------------------------------------------------------------

 -----------------------------------
 CID_12835792_JID_2680_Energie_anion
 -----------------------------------
 Structure from the checkpoint file:  "JID_2680.chk"
 Charge = -1 Multiplicity = 2

                         Standard orientation:
 ---------------------------------------------------------------------
 Center     Atomic      Atomic             Coordinates (Angstroms)
 Number     Number       Type             X           Y           Z
 ---------------------------------------------------------------------
      1          6           0        3.845812    0.466145    0.469278
      2          6           0        2.676102   -0.395533    0.034787
      3          8           0        2.529906   -1.532757    0.444421
      4          6           0        1.697195    0.241556   -0.943820
      5          6           0        0.416562   -0.569866   -1.160097
      6          6           0       -0.435539   -0.660497    0.092571
      7          6           0       -1.182652    0.563076    0.660155
      8          6           0       -1.930865   -0.666143    0.113464
      9          6           0       -2.743455   -0.560600   -1.165883
     10          6           0       -2.604964   -1.527398    1.167417
     11          6           0       -1.165677    1.854200   -0.050425
     12          8           0       -1.089148    2.932778    0.508933
     13          1           0        4.566581   -0.135307    1.026364
     14          1           0        3.481124    1.278606    1.110997
     15          1           0        4.333346    0.936024   -0.392915
     16          1           0        1.467039    1.258921   -0.598912
     17          1           0        2.234969    0.370843   -1.895198
     18          1           0       -0.140088   -0.130032   -1.992470
     19          1           0        0.687083   -1.587635   -1.462468
     20          1           0        0.037887   -1.256526    0.868098
     21          1           0       -1.167266    0.683054    1.740442
     22          1           0       -2.264117    0.037687   -1.943443
     23          1           0       -2.914526   -1.562017   -1.579058
     24          1           0       -3.722822   -0.113030   -0.960507
     25          1           0       -2.750680   -2.548057    0.792237
     26          1           0       -2.004155   -1.587993    2.080761
     27          1           0       -3.588581   -1.122504    1.434183
     28          1           0       -1.216968    1.808158   -1.159634
 ---------------------------------------------------------------------

 SCF Done:  E(UB3LYP) =  -541.310740055     A.U. after   33 cycles
 SCF Done:  E(UB3LYP) =  -541.310740055     a.u. after    1 cycles

 The electronic state is 2-A.
 Alpha  occ. eigenvalues --  -18.99474 -18.99085 -10.13558 -10.13444 -10.09559
 Alpha  occ. eigenvalues --  -10.07796 -10.07522 -10.07253 -10.06470 -10.06456
 Alpha  occ. eigenvalues --  -10.06380 -10.06351  -0.92564  -0.92477  -0.77983
 Alpha  occ. eigenvalues --   -0.67988  -0.64196  -0.62551  -0.59988  -0.56374
 Alpha  occ. eigenvalues --   -0.52692  -0.44609  -0.44319  -0.41078  -0.38585
 Alpha  occ. eigenvalues --   -0.37170  -0.35604  -0.35420  -0.33659  -0.33114
 Alpha  occ. eigenvalues --   -0.31814  -0.31354  -0.30580  -0.29491  -0.29041
 Alpha  occ. eigenvalues --   -0.28877  -0.27743  -0.26354  -0.26066  -0.25725
 Alpha  occ. eigenvalues --   -0.24572  -0.22746  -0.18475  -0.17385  -0.13854
 Alpha  occ. eigenvalues --   -0.13682   0.04689
 Alpha virt. eigenvalues --    0.06616   0.07063   0.07903   0.08418   0.09330
 Alpha virt. eigenvalues --    0.09511   0.10188   0.10934   0.11150   0.11834
 Alpha virt. eigenvalues --    0.12018   0.12580   0.13085   0.14219   0.14245

  Beta  occ. eigenvalues --  -18.99342 -18.98955 -10.13387 -10.13324 -10.09541
  Beta  occ. eigenvalues --  -10.07772 -10.07536 -10.07245 -10.06458 -10.06415
  Beta  occ. eigenvalues --  -10.06378 -10.06342  -0.92292  -0.92226  -0.77943
  Beta  occ. eigenvalues --   -0.67886  -0.64089  -0.62474  -0.59932  -0.56235
  Beta  occ. eigenvalues --   -0.52521  -0.44475  -0.44211  -0.40827  -0.38501
  Beta  occ. eigenvalues --   -0.37060  -0.35495  -0.35245  -0.33472  -0.33004
  Beta  occ. eigenvalues --   -0.31688  -0.31228  -0.30515  -0.29452  -0.28974
  Beta  occ. eigenvalues --   -0.28778  -0.27158  -0.26281  -0.26008  -0.25558
  Beta  occ. eigenvalues --   -0.24292  -0.22422  -0.18407  -0.17199  -0.13740
  Beta  occ. eigenvalues --   -0.13565
  Beta virt. eigenvalues --    0.06866   0.07751   0.08099   0.08486   0.09319
  Beta virt. eigenvalues --    0.09732   0.10067   0.10736   0.11238   0.11381
  Beta virt. eigenvalues --    0.12120   0.12250   0.13016   0.13142   0.14251

 Mulliken charges and spin densities:
               1          2
     1  C    0.327564  -1.026838
     2  C   -0.351155   0.631184
     3  O   -0.292851   0.044652
     4  C    0.348468  -0.664459
     5  C   -0.071901  -0.142181
     6  C    0.466377  -0.849770
     7  C   -0.152267  -0.040035
     8  C   -0.530243   1.197260
     9  C    0.904531  -1.409383
    10  C   -0.673046   0.195873
    11  C    0.006237  -0.302635
    12  O   -0.295350   0.052683
    13  H    0.034082   0.112984
    14  H    0.127236   0.023084
    15  H   -0.388046   0.560853
    16  H    0.280716  -0.076821
    17  H   -0.764310   0.975098
    18  H    0.025496   0.128544
    19  H    0.046280   0.142783
    20  H    0.296021  -0.042413
    21  H    0.206089   0.023376
    22  H   -0.480263   0.601748
    23  H   -0.090678   0.233310
    24  H   -0.180650   0.334872
    25  H    0.092632   0.043006
    26  H    0.063643   0.064679
    27  H    0.017621   0.131148
    28  H    0.027767   0.057399
 Sum of Mulliken charges =  -1.00000   1.00000

 Dipole moment (field-independent basis, Debye):
    X=             -2.1665    Y=             -2.2419    Z=              4.3457  Tot=              5.3484
 Quadrupole moment (field-independent basis, Debye-Ang):
   XX=           -138.0662   YY=           -113.1930   ZZ=           -107.2127
   XY=              5.8048   XZ=              4.1933   YZ=             -0.0714

 Summary of Natural Population Analysis:

                                       Natural Population
                Natural  -----------------------------------------------
    Atom  No    Charge         Core      Valence    Rydberg      Total
 -----------------------------------------------------------------------
      C    1   -0.33441      0.99962     2.32964    0.00515     3.33441
      C    2    0.31272      0.99969     1.66695    0.02064     2.68728
      O    3   -0.28868      0.99987     3.28267    0.00614     4.28868
      C    4   -0.23757      0.99958     2.22941    0.00859     3.23757
      C    5   -0.19619      0.99961     2.18529    0.01129     3.19619
      C    6   -0.08899      0.99952     2.07955    0.00992     3.08899
      C    7   -0.15912      0.99952     2.14858    0.01101     3.15912
      C    8   -0.02684      0.99953     2.01702    0.01030     3.02684
      C    9   -0.28529      0.99962     2.27929    0.00638     3.28529
      C   10   -0.27756      0.99962     2.27203    0.00591     3.27756
      C   11    0.22679      0.99967     1.75249    0.02105     2.77321
      O   12   -0.27602      0.99988     3.26985    0.00629     4.27602
      H   13    0.10555      0.00000     0.39348    0.00097     0.39445
      H   14    0.10765      0.00000     0.39156    0.00080     0.39235
      H   15    0.11118      0.00000     0.38631    0.00251     0.38882
      H   16    0.10683      0.00000     0.39180    0.00137     0.39317
      H   17    0.11754      0.00000     0.37728    0.00518     0.38246
      H   18    0.10187      0.00000     0.39651    0.00162     0.39813
      H   19    0.10854      0.00000     0.39029    0.00117     0.39146
      H   20    0.11333      0.00000     0.38536    0.00131     0.38667
      H   21    0.10648      0.00000     0.39206    0.00146     0.39352
      H   22    0.10484      0.00000     0.39366    0.00149     0.39516
      H   23    0.09992      0.00000     0.39912    0.00096     0.40008
      H   24    0.10204      0.00000     0.39671    0.00125     0.39796
      H   25    0.09866      0.00000     0.40059    0.00076     0.40134
      H   26    0.09912      0.00000     0.40017    0.00070     0.40088
      H   27    0.09898      0.00000     0.40017    0.00085     0.40102
      H   28    0.04865      0.00000     0.44880    0.00255     0.45135
 =======================================================================
   * Total *   -0.00000     11.99576    33.85665    0.14760    46.00000

 Normal termination of Gaussian 16 at Wed Dec  9 18:59:29 2020.
