 Gaussian 16, Revision A.03,

 -----------------------------------------------------------
 # opt freq B3LYP/6-31G(d) empiricaldispersion=gd3bj scf=xqc
 -----------------------------------------------------------

 ------------------------------
 CID_84723123_JID_5062_neutraal
 ------------------------------
 Symbolic Z-matrix:
 Charge =  0 Multiplicity = 1

 SCF Done:  E(RB3LYP) =  -728.551684005     A.U. after   15 cycles
 SCF Done:  E(RB3LYP) =  -728.554497586     A.U. after   12 cycles
 SCF Done:  E(RB3LYP) =  -728.553816841     A.U. after   13 cycles
 SCF Done:  E(RB3LYP) =  -728.555078935     A.U. after   13 cycles
 SCF Done:  E(RB3LYP) =  -728.555075808     A.U. after   12 cycles
 SCF Done:  E(RB3LYP) =  -728.555290757     A.U. after   12 cycles
 SCF Done:  E(RB3LYP) =  -728.555308353     A.U. after   11 cycles
 SCF Done:  E(RB3LYP) =  -728.555323963     A.U. after   10 cycles
 SCF Done:  E(RB3LYP) =  -728.555325036     A.U. after   10 cycles
 SCF Done:  E(RB3LYP) =  -728.555328074     A.U. after   10 cycles
 SCF Done:  E(RB3LYP) =  -728.555328555     A.U. after    7 cycles
 SCF Done:  E(RB3LYP) =  -728.555328663     A.U. after    8 cycles
 Optimization completed.
    -- Stationary point found.
 Normal termination of Gaussian 16 at Thu Dec 10 14:46:06 2020.

 --------------------------------------------------------------------
 #N Geom=AllCheck Guess=TCheck SCRF=Check GenChk RB3LYP/6-31G(d) Freq
 --------------------------------------------------------------------

 Structure from the checkpoint file:  "JID_5062.chk"
 ------------------------------
 CID_84723123_JID_5062_neutraal
 ------------------------------
 Charge =  0 Multiplicity = 1

 SCF Done:  E(RB3LYP) =  -728.555328663     A.U. after    1 cycles

  Exact polarizability: 133.940  -7.043 126.098  24.916   7.293  95.848
 Approx polarizability: 192.775  -4.056 215.992  51.431  19.721 150.996

                      1                      2                      3
                      A                      A                      A
 Frequencies --     35.1395                45.3096                67.0382
 Red. masses --      5.0448                 6.4849                 5.0373
 Frc consts  --      0.0037                 0.0078                 0.0133
 IR Inten    --      0.6010                 0.1769                 0.7928

                      4                      5                      6
                      A                      A                      A
 Frequencies --     88.6570               141.3807               189.7933
 Red. masses --      8.6040                 4.6402                 3.6888
 Frc consts  --      0.0398                 0.0546                 0.0783
 IR Inten    --      2.7972                 0.3406                 0.4309

                      7                      8                      9
                      A                      A                      A
 Frequencies --    230.4373               239.0003               245.7203
 Red. masses --      3.1420                 2.9098                 1.4675
 Frc consts  --      0.0983                 0.0979                 0.0522
 IR Inten    --      0.6193                 0.5624                 0.1723

                     10                     11                     12
                      A                      A                      A
 Frequencies --    266.3701               310.1149               315.6572
 Red. masses --      3.9673                 2.8773                 2.3899
 Frc consts  --      0.1659                 0.1630                 0.1403
 IR Inten    --      2.2433                 0.2166                 3.7349

                     13                     14                     15
                      A                      A                      A
 Frequencies --    364.2169               368.7008               396.6678
 Red. masses --      1.1880                 2.4950                 2.9613
 Frc consts  --      0.0929                 0.1998                 0.2745
 IR Inten    --     99.8695                35.7728                 7.8316

                     16                     17                     18
                      A                      A                      A
 Frequencies --    430.1072               454.0304               464.6240
 Red. masses --      3.0716                 2.9549                 1.1973
 Frc consts  --      0.3348                 0.3589                 0.1523
 IR Inten    --      0.6651                13.9157                74.4894

                     19                     20                     21
                      A                      A                      A
 Frequencies --    472.8903               528.1947               528.4725
 Red. masses --      4.1769                 5.0285                 4.0505
 Frc consts  --      0.5503                 0.8266                 0.6665
 IR Inten    --     16.6051                 7.7492                13.1501

                     22                     23                     24
                      A                      A                      A
 Frequencies --    548.5264               576.7955               612.0187
 Red. masses --      5.3832                 2.3202                 1.8709
 Frc consts  --      0.9543                 0.4548                 0.4129
 IR Inten    --      0.7661                23.8918                99.9604

                     25                     26                     27
                      A                      A                      A
 Frequencies --    642.5883               703.5126               725.9791
 Red. masses --      2.7234                 2.3021                 3.6284
 Frc consts  --      0.6626                 0.6713                 1.1267
 IR Inten    --     16.6868                14.3028                21.4102

                     28                     29                     30
                      A                      A                      A
 Frequencies --    746.6780               765.3874               796.3135
 Red. masses --      4.2623                 3.5581                 1.4334
 Frc consts  --      1.4001                 1.2281                 0.5355
 IR Inten    --     12.0305                38.8072                48.4495

                     31                     32                     33
                      A                      A                      A
 Frequencies --    839.3719               873.2226               891.5448
 Red. masses --      1.5637                 2.0948                 1.5188
 Frc consts  --      0.6491                 0.9411                 0.7113
 IR Inten    --     27.9936                 1.9305                 0.9178

                     34                     35                     36
                      A                      A                      A
 Frequencies --    921.2309               941.9659               967.8160
 Red. masses --      2.6538                 2.2559                 1.2548
 Frc consts  --      1.3270                 1.1793                 0.6925
 IR Inten    --      7.0146                10.0291                 0.4937

                     37                     38                     39
                      A                      A                      A
 Frequencies --    988.7131               995.8036              1019.6292
 Red. masses --      1.9640                 1.9588                 6.1407
 Frc consts  --      1.1312                 1.1444                 3.7614
 IR Inten    --      5.1937                23.6954                 4.5803

                     40                     41                     42
                      A                      A                      A
 Frequencies --   1045.8981              1101.1103              1129.4276
 Red. masses --      2.2892                 1.6828                 1.6502
 Frc consts  --      1.4754                 1.2021                 1.2402
 IR Inten    --      6.8381                20.6825                 6.6379

                     43                     44                     45
                      A                      A                      A
 Frequencies --   1163.1568              1181.7736              1197.8406
 Red. masses --      3.1630                 2.1305                 1.2013
 Frc consts  --      2.5213                 1.7531                 1.0155
 IR Inten    --    165.5159                25.4516                59.4855

                     46                     47                     48
                      A                      A                      A
 Frequencies --   1204.2579              1216.2731              1223.1078
 Red. masses --      1.7688                 1.3229                 1.8926
 Frc consts  --      1.5114                 1.1530                 1.6682
 IR Inten    --     63.1503               114.3218                20.5481

                     49                     50                     51
                      A                      A                      A
 Frequencies --   1235.1379              1284.5689              1326.7380
 Red. masses --      1.2724                 1.4134                 3.3860
 Frc consts  --      1.1437                 1.3741                 3.5116
 IR Inten    --     25.1729                 1.6917                80.2659

                     52                     53                     54
                      A                      A                      A
 Frequencies --   1355.2804              1366.2139              1373.0364
 Red. masses --      1.4627                 1.7596                 2.5899
 Frc consts  --      1.5830                 1.9351                 2.8768
 IR Inten    --     42.5955                11.9754                 8.6987

                     55                     56                     57
                      A                      A                      A
 Frequencies --   1393.8197              1402.4029              1439.6819
 Red. masses --      1.5269                 1.6190                 1.4487
 Frc consts  --      1.7477                 1.8760                 1.7691
 IR Inten    --     19.4231                17.0027                 9.8858

                     58                     59                     60
                      A                      A                      A
 Frequencies --   1460.9074              1504.6826              1510.6769
 Red. masses --      1.7114                 1.7064                 1.2219
 Frc consts  --      2.1521                 2.2762                 1.6429
 IR Inten    --     35.6445                43.3062                34.3185

                     61                     62                     63
                      A                      A                      A
 Frequencies --   1516.5597              1526.2415              1531.9356
 Red. masses --      1.2068                 1.1159                 1.0915
 Frc consts  --      1.6353                 1.5315                 1.5093
 IR Inten    --     13.2830                 3.2782                11.6400

                     64                     65                     66
                      A                      A                      A
 Frequencies --   1556.7876              1662.9093              1669.6981
 Red. masses --      2.4405                 5.7248                 5.9837
 Frc consts  --      3.4848                 9.3271                 9.8288
 IR Inten    --      8.7510                35.7283                81.5544

                     67                     68                     69
                      A                      A                      A
 Frequencies --   1819.0461              3039.9370              3059.2016
 Red. masses --     10.0644                 1.0656                 1.0607
 Frc consts  --     19.6213                 5.8019                 5.8486
 IR Inten    --    188.0169                24.4292                20.5025

                     70                     71                     72
                      A                      A                      A
 Frequencies --   3073.5527              3085.4771              3105.6135
 Red. masses --      1.0374                 1.0971                 1.1028
 Frc consts  --      5.7740                 6.1537                 6.2668
 IR Inten    --     10.8710                14.0974                32.6457

                     73                     74                     75
                      A                      A                      A
 Frequencies --   3144.6828              3157.5484              3163.4606
 Red. masses --      1.1021                 1.0899                 1.1021
 Frc consts  --      6.4212                 6.4025                 6.4983
 IR Inten    --     15.8452                19.4980                16.8276

                     76                     77                     78
                      A                      A                      A
 Frequencies --   3190.7219              3207.2683              3220.2124
 Red. masses --      1.0864                 1.0922                 1.0947
 Frc consts  --      6.5168                 6.6192                 6.6885
 IR Inten    --      6.5567                12.8408                 8.4311

                     79                     80                     81
                      A                      A                      A
 Frequencies --   3677.5380              3689.7721              3750.7931
 Red. masses --      1.0639                 1.0651                 1.0659
 Frc consts  --      8.4775                 8.5433                 8.8349
 IR Inten    --     38.8779                29.2953                36.8422

 - Thermochemistry -
 -------------------
 Temperature   298.150 Kelvin.  Pressure   1.00000 Atm.
 Atom     1 has atomic number  6 and mass  12.00000

 Molecular mass:   210.08921 amu.
 Principal axes and moments of inertia in atomic units:
                           1         2         3
     Eigenvalues --  1708.408174306.975404426.90473
           X            0.99980  -0.01893   0.00710
           Y            0.01819   0.99552   0.09278
           Z           -0.00883  -0.09263   0.99566
 This molecule is an asymmetric top.
 Rotational symmetry number  1.
 Warning -- assumption of classical behavior for rotation
           may cause significant error
 Rotational temperatures (Kelvin)      0.05070     0.02011     0.01957
 Rotational constants (GHZ):           1.05639     0.41903     0.40768
 Zero-point vibrational energy     626272.4 (Joules/Mol)
                                  149.68270 (Kcal/Mol)
 Warning -- explicit consideration of  24 degrees of freedom as
           vibrations may cause significant error
 Vibrational temperatures:     50.56    65.19    96.45   127.56   203.42
          (Kelvin)            273.07   331.55   343.87   353.54   383.25
                              446.19   454.16   524.03   530.48   570.72
                              618.83   653.25   668.49   680.38   759.95
                              760.35   789.21   829.88   880.56   924.54
                             1012.20  1044.52  1074.30  1101.22  1145.72
                             1207.67  1256.37  1282.73  1325.45  1355.28
                             1392.47  1422.54  1432.74  1467.02  1504.81
                             1584.25  1624.99  1673.52  1700.31  1723.43
                             1732.66  1749.95  1759.78  1777.09  1848.21
                             1908.88  1949.95  1965.68  1975.49  2005.40
                             2017.74  2071.38  2101.92  2164.90  2173.53
                             2181.99  2195.92  2204.11  2239.87  2392.56
                             2402.32  2617.20  4373.79  4401.51  4422.16
                             4439.31  4468.29  4524.50  4543.01  4551.51
                             4590.74  4614.54  4633.17  5291.16  5308.76
                             5396.55

 Zero-point correction=                           0.238535 (Hartree/Particle)
 Thermal correction to Energy=                    0.252963
 Thermal correction to Enthalpy=                  0.253907
 Thermal correction to Gibbs Free Energy=         0.197142
 Sum of electronic and zero-point Energies=           -728.316794
 Sum of electronic and thermal Energies=              -728.302366
 Sum of electronic and thermal Enthalpies=            -728.301422
 Sum of electronic and thermal Free Energies=         -728.358186

                     E (Thermal)             CV                S
                      KCal/Mol        Cal/Mol-Kelvin    Cal/Mol-Kelvin
 Total                  158.737             56.154            119.471
 Electronic               0.000              0.000              0.000
 Translational            0.889              2.981             41.931
 Rotational               0.889              2.981             31.855
 Vibrational            156.959             50.193             45.685
 Vibration     1          0.594              1.982              5.516
 Vibration     2          0.595              1.979              5.012
 Vibration     3          0.598              1.970              4.238
 Vibration     4          0.601              1.957              3.689
 Vibration     5          0.615              1.912              2.785
 Vibration     6          0.633              1.854              2.230
 Vibration     7          0.652              1.794              1.876
 Vibration     8          0.657              1.781              1.810
 Vibration     9          0.660              1.770              1.761
 Vibration    10          0.672              1.735              1.620
 Vibration    11          0.699              1.654              1.362
 Vibration    12          0.703              1.644              1.333
 Vibration    13          0.738              1.546              1.104
 Vibration    14          0.741              1.537              1.085
 Vibration    15          0.763              1.477              0.975
 Vibration    16          0.791              1.405              0.858
 Vibration    17          0.812              1.352              0.784
 Vibration    18          0.822              1.329              0.753
 Vibration    19          0.830              1.310              0.729
 Vibration    20          0.883              1.188              0.591
 Vibration    21          0.883              1.187              0.591
 Vibration    22          0.904              1.143              0.547
 Vibration    23          0.933              1.081              0.491
 Vibration    24          0.971              1.006              0.429

 Optimization completed.
    -- Stationary point found.
 Normal termination of Gaussian 16 at Thu Dec 10 14:55:53 2020.

 ----------------------------------------------------------------------
 # B3LYP/6-311++G(d,p) empiricaldispersion=gd3bj scf=xqc pop=npa geom=c
 heck
 ----------------------------------------------------------------------

 --------------------------------------
 CID_84723123_JID_5062_Energie_neutraal
 --------------------------------------
 Structure from the checkpoint file:  "JID_5062.chk"
 Charge =  0 Multiplicity = 1

 SCF Done:  E(RB3LYP) =  -728.786495996     A.U. after   15 cycles
 Normal termination of Gaussian 16 at Thu Dec 10 14:59:32 2020.

 ----------------------------------------------------------------------
 # B3LYP/6-311++G(d,p) empiricaldispersion=gd3bj scf=xqc pop=npa geom=c
 heck
 ----------------------------------------------------------------------

 ------------------------------------
 CID_84723123_JID_5062_Energie_kation
 ------------------------------------
 Structure from the checkpoint file:  "JID_5062.chk"
 Charge =  1 Multiplicity = 2

 SCF Done:  E(UB3LYP) =  -728.479771521     A.U. after   25 cycles
 Normal termination of Gaussian 16 at Thu Dec 10 15:10:00 2020.
 Gaussian 16:  ES64L-G16RevA.03 25-Dec-2016

 ----------------------------------------------------------------------
 # B3LYP/6-311++G(d,p) empiricaldispersion=gd3bj scf=xqc pop=npa geom=c
 heck
 ----------------------------------------------------------------------

 -----------------------------------
 CID_84723123_JID_5062_Energie_anion
 -----------------------------------
 Structure from the checkpoint file:  "JID_5062.chk"
 Charge = -1 Multiplicity = 2

                         Standard orientation:
 ---------------------------------------------------------------------
 Center     Atomic      Atomic             Coordinates (Angstroms)
 Number     Number       Type             X           Y           Z
 ---------------------------------------------------------------------
      1          6           0       -2.072579    1.652897    0.869208
      2          6           0       -2.175181    0.306986    0.163851
      3          6           0       -1.809451    0.386059   -1.340889
      4          6           0       -0.462314    1.025074   -1.727234
      5          6           0        0.751165    0.349162   -1.127046
      6          6           0        1.632784    1.074740   -0.321925
      7          6           0        2.712740    0.446451    0.303077
      8          6           0        2.928966   -0.922501    0.122090
      9          6           0        2.064172   -1.641302   -0.700517
     10          6           0        0.985914   -1.016432   -1.327267
     11          8           0        3.584932    1.120697    1.112086
     12          6           0       -1.351485   -0.802466    0.835367
     13          8           0       -1.579912   -1.978146    0.627139
     14          8           0       -0.390019   -0.376173    1.668926
     15          8           0       -3.537849   -0.113343    0.259388
     16          1           0       -1.042418    2.014257    0.885085
     17          1           0       -2.426337    1.563907    1.899450
     18          1           0       -2.701573    2.381590    0.348240
     19          1           0       -1.869605   -0.631475   -1.744754
     20          1           0       -2.619859    0.957723   -1.806707
     21          1           0       -0.393157    1.001588   -2.823037
     22          1           0       -0.464655    2.083932   -1.446137
     23          1           0        1.459363    2.137136   -0.156304
     24          1           0        3.770941   -1.394709    0.617373
     25          1           0        2.232222   -2.703914   -0.851582
     26          1           0        0.312818   -1.597552   -1.949849
     27          1           0        3.311802    2.049905    1.160216
     28          1           0        0.113471   -1.166033    1.944383
     29          1           0       -3.528613   -1.072643    0.091027
 ---------------------------------------------------------------------

 SCF Done:  E(UB3LYP) =  -728.776641673     A.U. after   33 cycles
 SCF Done:  E(UB3LYP) =  -728.776641673     a.u. after    1 cycles

 The electronic state is 2-A.
 Alpha  occ. eigenvalues --  -19.08254 -19.04575 -19.03334 -19.02812 -10.21496
 Alpha  occ. eigenvalues --  -10.15100 -10.13162 -10.07935 -10.07906 -10.07667
 Alpha  occ. eigenvalues --  -10.07562 -10.06695 -10.06625 -10.06456 -10.06390
 Alpha  occ. eigenvalues --   -1.02554  -0.95633  -0.94763  -0.92614  -0.75678
 Alpha  occ. eigenvalues --   -0.71128  -0.66872  -0.63882  -0.62262  -0.57651
 Alpha  occ. eigenvalues --   -0.55233  -0.52121  -0.49405  -0.47098  -0.44802
 Alpha  occ. eigenvalues --   -0.43422  -0.40315  -0.40170  -0.38813  -0.37412
 Alpha  occ. eigenvalues --   -0.35578  -0.33822  -0.33586  -0.32903  -0.32463
 Alpha  occ. eigenvalues --   -0.30908  -0.29988  -0.29892  -0.28974  -0.28759
 Alpha  occ. eigenvalues --   -0.27458  -0.27016  -0.25724  -0.23967  -0.23770
 Alpha  occ. eigenvalues --   -0.22976  -0.22948  -0.20493  -0.18425  -0.14967
 Alpha  occ. eigenvalues --   -0.12390   0.04430
 Alpha virt. eigenvalues --    0.06740   0.07105   0.07459   0.08149   0.08935
 Alpha virt. eigenvalues --    0.09215   0.09386   0.09836   0.10092   0.10689
 Alpha virt. eigenvalues --    0.11159   0.11894   0.12616   0.13664   0.13797

  Beta  occ. eigenvalues --  -19.08234 -19.04522 -19.03323 -19.02801 -10.21468
  Beta  occ. eigenvalues --  -10.15100 -10.13164 -10.07893 -10.07889 -10.07657
  Beta  occ. eigenvalues --  -10.07545 -10.06657 -10.06604 -10.06413 -10.06381
  Beta  occ. eigenvalues --   -1.02513  -0.95533  -0.94738  -0.92591  -0.75613
  Beta  occ. eigenvalues --   -0.71088  -0.66809  -0.63816  -0.62203  -0.57591
  Beta  occ. eigenvalues --   -0.55170  -0.52041  -0.49340  -0.47024  -0.44771
  Beta  occ. eigenvalues --   -0.43341  -0.40278  -0.40115  -0.38753  -0.37343
  Beta  occ. eigenvalues --   -0.35524  -0.33781  -0.33541  -0.32859  -0.32401
  Beta  occ. eigenvalues --   -0.30855  -0.29926  -0.29861  -0.28935  -0.28723
  Beta  occ. eigenvalues --   -0.27418  -0.26969  -0.25682  -0.23932  -0.23720
  Beta  occ. eigenvalues --   -0.22913  -0.22871  -0.20470  -0.18394  -0.14787
  Beta  occ. eigenvalues --   -0.12276
  Beta virt. eigenvalues --    0.06784   0.07262   0.07864   0.08169   0.08650
  Beta virt. eigenvalues --    0.09344   0.09463   0.09683   0.09996   0.10361
  Beta virt. eigenvalues --    0.11044   0.11440   0.12263   0.12873   0.13985

 Mulliken charges and spin densities:
               1          2
     1  C    0.231914  -0.853827
     2  C   -0.728668   0.597730
     3  C    0.467675  -0.583719
     4  C    2.786612  -3.380394
     5  C   -1.158825   1.889048
     6  C   -1.824628   1.980886
     7  C    0.916088  -1.632830
     8  C    2.525354  -2.425102
     9  C   -0.683586   0.390109
    10  C   -1.418324   0.872439
    11  O   -0.271896   0.059045
    12  C    0.287362  -0.336863
    13  O   -0.279030   0.030957
    14  O   -0.019610   0.022046
    15  O   -0.181108   0.011127
    16  H    0.078884   0.126414
    17  H    0.053224   0.122665
    18  H   -0.104056   0.264942
    19  H    0.083953   0.066707
    20  H   -0.013141   0.210878
    21  H   -0.376699   0.578621
    22  H   -0.147746   0.311204
    23  H   -1.008853   1.165342
    24  H    0.097098   0.069431
    25  H   -0.046676   0.207371
    26  H   -0.054351   0.197030
    27  H   -0.473046   0.761194
    28  H    0.033033   0.233584
    29  H    0.229047   0.043961
 Sum of Mulliken charges =  -1.00000   1.00000

 Dipole moment (field-independent basis, Debye):
    X=             -2.8674    Y=             -5.9275    Z=             -0.0506  Tot=              6.5848
 Quadrupole moment (field-independent basis, Debye-Ang):
   XX=           -146.0796   YY=           -135.2372   ZZ=           -124.7866
   XY=            -11.1926   XZ=             -5.6743   YZ=             -0.5322

 Summary of Natural Population Analysis:

                                       Natural Population
                Natural  -----------------------------------------------
    Atom  No    Charge         Core      Valence    Rydberg      Total
 -----------------------------------------------------------------------
      C    1   -0.29356      0.99962     2.28572    0.00822     3.29356
      C    2    0.09080      0.99950     1.89429    0.01541     2.90920
      C    3   -0.19242      0.99958     2.18126    0.01157     3.19242
      C    4   -0.20097      0.99959     2.19058    0.01080     3.20097
      C    5   -0.00534      0.99951     1.99365    0.01217     3.00534
      C    6   -0.13006      0.99945     2.11846    0.01215     3.13006
      C    7    0.16312      0.99938     1.82350    0.01399     2.83688
      C    8   -0.13044      0.99951     2.12121    0.00972     3.13044
      C    9   -0.09333      0.99956     2.08435    0.00941     3.09333
      C   10   -0.12205      0.99950     2.11342    0.00913     3.12205
      O   11   -0.34108      0.99988     3.33419    0.00702     4.34108
      C   12    0.41085      0.99964     1.56307    0.02644     2.58915
      O   13   -0.32071      0.99987     3.31447    0.00638     4.32071
      O   14   -0.33201      0.99987     3.32457    0.00758     4.33201
      O   15   -0.37321      0.99989     3.36653    0.00679     4.37321
      H   16    0.11104      0.00000     0.38732    0.00164     0.38896
      H   17    0.10600      0.00000     0.39300    0.00099     0.39400
      H   18    0.10348      0.00000     0.39553    0.00099     0.39652
      H   19    0.10091      0.00000     0.39775    0.00134     0.39909
      H   20    0.10766      0.00000     0.39107    0.00127     0.39234
      H   21    0.10912      0.00000     0.38920    0.00168     0.39088
      H   22    0.10383      0.00000     0.39416    0.00201     0.39617
      H   23    0.10521      0.00000     0.39104    0.00374     0.39479
      H   24    0.10394      0.00000     0.39517    0.00089     0.39606
      H   25    0.09778      0.00000     0.40141    0.00081     0.40222
      H   26    0.10090      0.00000     0.39782    0.00129     0.39910
      H   27    0.24165      0.00000     0.24459    0.01376     0.25835
      H   28    0.24314      0.00000     0.25291    0.00395     0.25686
      H   29    0.23575      0.00000     0.26139    0.00285     0.26425
 =======================================================================
   * Total *    0.00000     14.99436    40.80164    0.20400    56.00000

 Normal termination of Gaussian 16 at Thu Dec 10 15:23:33 2020.
