 Gaussian 16, Revision A.03,

 -----------------------------------------------------------
 # opt freq B3LYP/6-31G(d) empiricaldispersion=gd3bj scf=xqc
 -----------------------------------------------------------

 ------------------------------
 CID_69787716_JID_1720_neutraal
 ------------------------------
 Symbolic Z-matrix:
 Charge =  0 Multiplicity = 1

 SCF Done:  E(RB3LYP) =  -507.796530654     A.U. after   15 cycles
 SCF Done:  E(RB3LYP) =  -507.801312509     A.U. after   14 cycles
 SCF Done:  E(RB3LYP) =  -507.806062570     A.U. after   13 cycles
 SCF Done:  E(RB3LYP) =  -507.807095929     A.U. after   13 cycles
 SCF Done:  E(RB3LYP) =  -507.804999390     A.U. after   13 cycles
 SCF Done:  E(RB3LYP) =  -507.808303097     A.U. after   12 cycles
 SCF Done:  E(RB3LYP) =  -507.808826236     A.U. after   12 cycles
 SCF Done:  E(RB3LYP) =  -507.808888305     A.U. after   12 cycles
 SCF Done:  E(RB3LYP) =  -507.808920408     A.U. after   11 cycles
 SCF Done:  E(RB3LYP) =  -507.808932855     A.U. after   10 cycles
 SCF Done:  E(RB3LYP) =  -507.808934298     A.U. after    8 cycles
 SCF Done:  E(RB3LYP) =  -507.808934896     A.U. after    8 cycles
 SCF Done:  E(RB3LYP) =  -507.808935238     A.U. after    8 cycles
 Optimization completed.
    -- Stationary point found.
 Normal termination of Gaussian 16 at Tue Dec  8 20:52:09 2020.

 --------------------------------------------------------------------
 #N Geom=AllCheck Guess=TCheck SCRF=Check GenChk RB3LYP/6-31G(d) Freq
 --------------------------------------------------------------------

 Structure from the checkpoint file:  "JID_1720.chk"
 ------------------------------
 CID_69787716_JID_1720_neutraal
 ------------------------------
 Charge =  0 Multiplicity = 1

 SCF Done:  E(RB3LYP) =  -507.808935238     A.U. after    1 cycles

  Exact polarizability: 144.269   6.877 122.630  -1.673  -0.323  40.786
 Approx polarizability: 242.247  22.697 215.289  -2.547   1.071  62.498

                      1                      2                      3
                      A                      A                      A
 Frequencies --     53.4192               118.5085               238.6374
 Red. masses --      4.5156                 3.9186                 3.4967
 Frc consts  --      0.0076                 0.0324                 0.1173
 IR Inten    --      1.4957                 1.5167                 4.0742

                      4                      5                      6
                      A                      A                      A
 Frequencies --    253.7520               309.5313               321.6275
 Red. masses --      4.8645                 2.8047                 1.6118
 Frc consts  --      0.1845                 0.1583                 0.0982
 IR Inten    --      1.9227                33.8198                69.9353

                      7                      8                      9
                      A                      A                      A
 Frequencies --    335.8184               396.0399               422.9466
 Red. masses --      3.2856                 3.0368                 3.0089
 Frc consts  --      0.2183                 0.2806                 0.3171
 IR Inten    --     15.8720                21.1096                44.6365

                     10                     11                     12
                      A                      A                      A
 Frequencies --    442.1680               453.0468               499.3912
 Red. masses --      4.1043                 1.2763                 1.5833
 Frc consts  --      0.4728                 0.1543                 0.2326
 IR Inten    --      8.1131               165.1643                62.0226

                     13                     14                     15
                      A                      A                      A
 Frequencies --    541.5030               572.9091               590.7269
 Red. masses --      3.4559                 3.7269                 3.6182
 Frc consts  --      0.5970                 0.7207                 0.7439
 IR Inten    --     44.4960                18.1002                29.3488

                     16                     17                     18
                      A                      A                      A
 Frequencies --    627.9921               638.2147               695.8707
 Red. masses --      2.8012                 4.1869                 1.6748
 Frc consts  --      0.6509                 1.0048                 0.4778
 IR Inten    --     77.6257                15.0999               204.3458

                     19                     20                     21
                      A                      A                      A
 Frequencies --    713.9216               736.9529               788.0883
 Red. masses --      5.3187                 1.2551                 2.8638
 Frc consts  --      1.5972                 0.4016                 1.0479
 IR Inten    --      1.0606               170.4497                10.0438

                     22                     23                     24
                      A                      A                      A
 Frequencies --    811.7260               880.0520               910.5612
 Red. masses --      1.7606                 5.3114                 1.3793
 Frc consts  --      0.6835                 2.4237                 0.6738
 IR Inten    --     28.7081                 2.7090                 0.9659

                     25                     26                     27
                      A                      A                      A
 Frequencies --    962.2456               979.5056              1073.8469
 Red. masses --      1.2870                 1.4904                 3.3014
 Frc consts  --      0.7021                 0.8425                 2.2430
 IR Inten    --      0.9706               179.5770                29.5592

                     28                     29                     30
                      A                      A                      A
 Frequencies --   1105.2663              1108.6927              1177.5729
 Red. masses --      2.1352                 1.6599                 1.7400
 Frc consts  --      1.5368                 1.2022                 1.4216
 IR Inten    --     45.1219                 8.1008                37.6398

                     31                     32                     33
                      A                      A                      A
 Frequencies --   1189.2356              1227.6147              1274.6280
 Red. masses --      1.5825                 2.1207                 1.9855
 Frc consts  --      1.3187                 1.8830                 1.9006
 IR Inten    --     28.7414                37.1301                 3.5988

                     34                     35                     36
                      A                      A                      A
 Frequencies --   1336.1847              1355.3418              1368.3126
 Red. masses --      4.4199                 2.6927                 1.5803
 Frc consts  --      4.6494                 2.9143                 1.7432
 IR Inten    --     56.6115                39.3861                 3.0750

                     37                     38                     39
                      A                      A                      A
 Frequencies --   1386.1623              1494.0703              1508.7750
 Red. masses --      2.0402                 2.8198                 2.6969
 Frc consts  --      2.3097                 3.7086                 3.6171
 IR Inten    --     19.5034                46.5977                53.4063

                     40                     41                     42
                      A                      A                      A
 Frequencies --   1607.8683              1627.0837              1637.7733
 Red. masses --      3.9939                 3.1194                 1.2082
 Frc consts  --      6.0834                 4.8656                 1.9094
 IR Inten    --      4.1839                39.8771                12.2551

                     43                     44                     45
                      A                      A                      A
 Frequencies --   1664.0648              1670.3699              1683.5902
 Red. masses --      1.9752                 1.3796                 1.8173
 Frc consts  --      3.2225                 2.2679                 3.0349
 IR Inten    --      4.1446               166.2822                87.5487

                     46                     47                     48
                      A                      A                      A
 Frequencies --   3176.0923              3181.6422              3212.4754
 Red. masses --      1.0877                 1.0900                 1.0965
 Frc consts  --      6.4647                 6.5011                 6.6672
 IR Inten    --      9.9565                26.4759                25.5384

                     49                     50                     51
                      A                      A                      A
 Frequencies --   3426.3701              3448.4764              3470.4164
 Red. masses --      1.0501                 1.0527                 1.0556
 Frc consts  --      7.2635                 7.3760                 7.4908
 IR Inten    --     18.2854                 7.6744               120.3073

                     52                     53                     54
                      A                      A                      A
 Frequencies --   3554.5427              3620.1821              3638.6780
 Red. masses --      1.0896                 1.0958                 1.0927
 Frc consts  --      8.1108                 8.4614                 8.5241
 IR Inten    --      6.2514                18.4246                35.7643

 - Thermochemistry -
 -------------------
 Temperature   298.150 Kelvin.  Pressure   1.00000 Atm.
 Atom     1 has atomic number  6 and mass  12.00000

 Molecular mass:   151.08580 amu.
 Principal axes and moments of inertia in atomic units:
                           1         2         3
     Eigenvalues --  1065.024571751.147292776.30110
           X            1.00000  -0.00235   0.00044
           Y            0.00235   0.99999  -0.00455
           Z           -0.00043   0.00455   0.99999
 This molecule is an asymmetric top.
 Rotational symmetry number  1.
 Warning -- assumption of classical behavior for rotation
           may cause significant error
 Rotational temperatures (Kelvin)      0.08133     0.04946     0.03120
 Rotational constants (GHZ):           1.69455     1.03061     0.65005
 Zero-point vibrational energy     427787.5 (Joules/Mol)
                                  102.24367 (Kcal/Mol)
 Warning -- explicit consideration of  15 degrees of freedom as
           vibrations may cause significant error
 Vibrational temperatures:     76.86   170.51   343.35   365.09   445.35
          (Kelvin)            462.75   483.17   569.81   608.53   636.18
                              651.83   718.51   779.10   824.29   849.92
                              903.54   918.25  1001.20  1027.17  1060.31
                             1133.88  1167.89  1266.20  1310.09  1384.46
                             1409.29  1545.03  1590.23  1595.16  1694.26
                             1711.04  1766.26  1833.91  1922.47  1950.03
                             1968.70  1994.38  2149.63  2170.79  2313.36
                             2341.01  2356.39  2394.22  2403.29  2422.31
                             4569.69  4577.67  4622.04  4929.78  4961.59
                             4993.16  5114.19  5208.63  5235.25

 Zero-point correction=                           0.162936 (Hartree/Particle)
 Thermal correction to Energy=                    0.172507
 Thermal correction to Enthalpy=                  0.173451
 Thermal correction to Gibbs Free Energy=         0.128354
 Sum of electronic and zero-point Energies=           -507.646000
 Sum of electronic and thermal Energies=              -507.636428
 Sum of electronic and thermal Enthalpies=            -507.635484
 Sum of electronic and thermal Free Energies=         -507.680582

                     E (Thermal)             CV                S
                      KCal/Mol        Cal/Mol-Kelvin    Cal/Mol-Kelvin
 Total                  108.250             38.476             94.916
 Electronic               0.000              0.000              0.000
 Translational            0.889              2.981             40.948
 Rotational               0.889              2.981             30.027
 Vibrational            106.472             32.514             23.941
 Vibration     1          0.596              1.976              4.687
 Vibration     2          0.609              1.934              3.125
 Vibration     3          0.657              1.781              1.813
 Vibration     4          0.665              1.756              1.704
 Vibration     5          0.699              1.656              1.365
 Vibration     6          0.707              1.632              1.302
 Vibration     7          0.717              1.604              1.232
 Vibration     8          0.763              1.479              0.977
 Vibration     9          0.785              1.420              0.882
 Vibration    10          0.802              1.378              0.820
 Vibration    11          0.812              1.354              0.787
 Vibration    12          0.855              1.251              0.660
 Vibration    13          0.897              1.158              0.562
 Vibration    14          0.929              1.090              0.499
 Vibration    15          0.948              1.052              0.466

 Optimization completed.
    -- Stationary point found.
 Normal termination of Gaussian 16 at Tue Dec  8 20:56:32 2020.

 ----------------------------------------------------------------------
 # B3LYP/6-311++G(d,p) empiricaldispersion=gd3bj scf=xqc pop=npa geom=c
 heck
 ----------------------------------------------------------------------

 --------------------------------------
 CID_69787716_JID_1720_Energie_neutraal
 --------------------------------------
 Structure from the checkpoint file:  "JID_1720.chk"
 Charge =  0 Multiplicity = 1

 SCF Done:  E(RB3LYP) =  -507.965926081     A.U. after   15 cycles
 Normal termination of Gaussian 16 at Tue Dec  8 20:58:59 2020.

 ----------------------------------------------------------------------
 # B3LYP/6-311++G(d,p) empiricaldispersion=gd3bj scf=xqc pop=npa geom=c
 heck
 ----------------------------------------------------------------------

 ------------------------------------
 CID_69787716_JID_1720_Energie_kation
 ------------------------------------
 Structure from the checkpoint file:  "JID_1720.chk"
 Charge =  1 Multiplicity = 2

 SCF Done:  E(UB3LYP) =  -507.704696468     A.U. after   21 cycles
 Normal termination of Gaussian 16 at Tue Dec  8 21:05:12 2020.
 Gaussian 16:  ES64L-G16RevA.03 25-Dec-2016

 ----------------------------------------------------------------------
 # B3LYP/6-311++G(d,p) empiricaldispersion=gd3bj scf=xqc pop=npa geom=c
 heck
 ----------------------------------------------------------------------

 -----------------------------------
 CID_69787716_JID_1720_Energie_anion
 -----------------------------------
 Structure from the checkpoint file:  "JID_1720.chk"
 Charge = -1 Multiplicity = 2

                         Standard orientation:
 ---------------------------------------------------------------------
 Center     Atomic      Atomic             Coordinates (Angstroms)
 Number     Number       Type             X           Y           Z
 ---------------------------------------------------------------------
      1          6           0        2.575077   -1.037043   -0.029270
      2          6           0        2.392908    0.332859    0.083980
      3          6           0        1.103169    0.890717    0.072933
      4          6           0        0.001719   -0.013277   -0.084236
      5          7           0        0.213119   -1.342598   -0.173762
      6          6           0        1.446406   -1.844918   -0.145989
      7          6           0       -1.414017    0.418232   -0.096826
      8          7           0       -2.475519   -0.300962    0.075323
      9          7           0       -2.445391   -1.654331    0.192828
     10          7           0       -1.668673    1.826909   -0.227270
     11          7           0        0.959388    2.260133    0.181591
     12          1           0        3.570774   -1.469663   -0.021193
     13          1           0        3.247652    0.997627    0.186747
     14          1           0        1.529554   -2.926535   -0.221059
     15          1           0       -1.525850   -2.064432    0.357152
     16          1           0       -3.204652   -1.975608    0.779811
     17          1           0       -1.408104    2.157042   -1.157695
     18          1           0       -2.673737    1.955329   -0.123834
     19          1           0        0.025020    2.577469    0.430042
     20          1           0        1.727303    2.745295    0.625503
 ---------------------------------------------------------------------

 SCF Done:  E(UB3LYP) =  -507.957369822     A.U. after   33 cycles
 SCF Done:  E(UB3LYP) =  -507.957369822     a.u. after    1 cycles

 The electronic state is 2-A.
 Alpha  occ. eigenvalues --  -14.18846 -14.18580 -14.17850 -14.17765 -14.14951
 Alpha  occ. eigenvalues --  -10.08523 -10.08020 -10.05791 -10.05258 -10.02570
 Alpha  occ. eigenvalues --  -10.02480  -0.85352  -0.80138  -0.77619  -0.76494
 Alpha  occ. eigenvalues --   -0.64656  -0.63726  -0.60166  -0.51069  -0.48106
 Alpha  occ. eigenvalues --   -0.44430  -0.39994  -0.39590  -0.38320  -0.36866
 Alpha  occ. eigenvalues --   -0.34379  -0.33089  -0.30884  -0.29656  -0.27824
 Alpha  occ. eigenvalues --   -0.25485  -0.24720  -0.23587  -0.19802  -0.17315
 Alpha  occ. eigenvalues --   -0.15002  -0.14057  -0.10507  -0.09353  -0.05799
 Alpha  occ. eigenvalues --    0.05614
 Alpha virt. eigenvalues --    0.07980   0.08955   0.09324   0.10177   0.10973
 Alpha virt. eigenvalues --    0.12242   0.12797   0.12961   0.14731   0.15843
 Alpha virt. eigenvalues --    0.16081   0.16931   0.18274   0.18861   0.19671

  Beta  occ. eigenvalues --  -14.18773 -14.18580 -14.17744 -14.17546 -14.14599
  Beta  occ. eigenvalues --  -10.08552 -10.08074 -10.05612 -10.05329 -10.02382
  Beta  occ. eigenvalues --  -10.02293  -0.85019  -0.79869  -0.77391  -0.76368
  Beta  occ. eigenvalues --   -0.64300  -0.63391  -0.59896  -0.50580  -0.47997
  Beta  occ. eigenvalues --   -0.44248  -0.39851  -0.39486  -0.38217  -0.36733
  Beta  occ. eigenvalues --   -0.34256  -0.33001  -0.30734  -0.29495  -0.27062
  Beta  occ. eigenvalues --   -0.25312  -0.24135  -0.23276  -0.19274  -0.17058
  Beta  occ. eigenvalues --   -0.14562  -0.12735  -0.10124  -0.08738  -0.05024
  Beta virt. eigenvalues --    0.08562   0.09062   0.09627   0.10472   0.10636
  Beta virt. eigenvalues --    0.11278   0.12295   0.13083   0.13203   0.14893
  Beta virt. eigenvalues --    0.15971   0.16147   0.17105   0.18478   0.18977

 Mulliken charges and spin densities:
               1          2
     1  C    0.762886  -0.747895
     2  C    0.282888  -0.539483
     3  C   -0.347142   0.628935
     4  C   -0.062174   0.117914
     5  N   -0.089939   0.173841
     6  C   -0.435573   0.268532
     7  C    0.069589  -0.767947
     8  N   -0.171761   0.146258
     9  N   -0.374096   0.022408
    10  N   -0.435907  -0.045532
    11  N   -0.386617   0.005009
    12  H    0.001054   0.114143
    13  H   -0.733396   0.860014
    14  H    0.064909   0.064465
    15  H    0.276690   0.000799
    16  H    0.214556  -0.001578
    17  H    0.194429   0.046110
    18  H    0.257199   0.008342
    19  H    0.182371   0.133386
    20  H   -0.269966   0.512277
 Sum of Mulliken charges =  -1.00000   1.00000

 Dipole moment (field-independent basis, Debye):
    X=             -3.6392    Y=             -1.7312    Z=             -0.1057  Tot=              4.0314
 Quadrupole moment (field-independent basis, Debye-Ang):
   XX=           -106.0419   YY=            -90.9756   ZZ=            -79.2251
   XY=            -10.7910   XZ=             -4.3180   YZ=             -7.8255

 Summary of Natural Population Analysis:

                                       Natural Population
                Natural  -----------------------------------------------
    Atom  No    Charge         Core      Valence    Rydberg      Total
 -----------------------------------------------------------------------
      C    1   -0.08844      0.99956     2.07801    0.01086     3.08844
      C    2   -0.08636      0.99953     2.07623    0.01059     3.08636
      C    3    0.07430      0.99949     1.91450    0.01171     2.92570
      C    4    0.07003      0.99947     1.91740    0.01310     2.92997
      N    5   -0.20687      0.99967     2.69440    0.01280     3.70687
      C    6   -0.01041      0.99959     1.99690    0.01391     3.01041
      C    7    0.15225      0.99957     1.82889    0.01929     2.84775
      N    8   -0.13101      0.99961     2.61552    0.01589     3.63101
      N    9   -0.30618      0.99975     2.79240    0.01402     3.80618
      N   10   -0.42935      0.99975     2.91922    0.01038     3.92935
      N   11   -0.41036      0.99970     2.89998    0.01068     3.91036
      H   12    0.09298      0.00000     0.40616    0.00086     0.40702
      H   13    0.09339      0.00000     0.40433    0.00229     0.40661
      H   14    0.08055      0.00000     0.41839    0.00106     0.41945
      H   15    0.19179      0.00000     0.30587    0.00234     0.30821
      H   16    0.16652      0.00000     0.33181    0.00167     0.33348
      H   17    0.17706      0.00000     0.32097    0.00198     0.32294
      H   18    0.18277      0.00000     0.31395    0.00328     0.31723
      H   19    0.20274      0.00000     0.29491    0.00235     0.29726
      H   20    0.18460      0.00000     0.31129    0.00411     0.31540
 =======================================================================
   * Total *   -0.00000     10.99569    28.84114    0.16317    40.00000

 Normal termination of Gaussian 16 at Tue Dec  8 21:11:39 2020.
