 Gaussian 16, Revision A.03,

 -----------------------------------------------------------
 # opt freq B3LYP/6-31G(d) empiricaldispersion=gd3bj scf=xqc
 -----------------------------------------------------------

 -------------------------------
 CID_114958535_JID_2164_neutraal
 -------------------------------
 Symbolic Z-matrix:
 Charge =  0 Multiplicity = 1

 SCF Done:  E(RB3LYP) =  -950.516191579     A.U. after   14 cycles
 SCF Done:  E(RB3LYP) =  -950.525387436     A.U. after   12 cycles
 SCF Done:  E(RB3LYP) =  -950.526625923     A.U. after   12 cycles
 SCF Done:  E(RB3LYP) =  -950.526912282     A.U. after   12 cycles
 SCF Done:  E(RB3LYP) =  -950.527117791     A.U. after   11 cycles
 SCF Done:  E(RB3LYP) =  -950.527325799     A.U. after   10 cycles
 SCF Done:  E(RB3LYP) =  -950.527381110     A.U. after   10 cycles
 SCF Done:  E(RB3LYP) =  -950.527385597     A.U. after    8 cycles
 SCF Done:  E(RB3LYP) =  -950.527387839     A.U. after    8 cycles
 SCF Done:  E(RB3LYP) =  -950.527388952     A.U. after    8 cycles
 SCF Done:  E(RB3LYP) =  -950.527389331     A.U. after    8 cycles
 SCF Done:  E(RB3LYP) =  -950.527390217     A.U. after    8 cycles
 SCF Done:  E(RB3LYP) =  -950.527390849     A.U. after    9 cycles
 SCF Done:  E(RB3LYP) =  -950.527391097     A.U. after    7 cycles
 Optimization completed.
    -- Stationary point found.
 Normal termination of Gaussian 16 at Wed Dec  9 16:52:54 2020.

 --------------------------------------------------------------------
 #N Geom=AllCheck Guess=TCheck SCRF=Check GenChk RB3LYP/6-31G(d) Freq
 --------------------------------------------------------------------

 Structure from the checkpoint file:  "JID_2164.chk"
 -------------------------------
 CID_114958535_JID_2164_neutraal
 -------------------------------
 Charge =  0 Multiplicity = 1

 SCF Done:  E(RB3LYP) =  -950.527391097     A.U. after    1 cycles

  Exact polarizability: 112.430   0.033  99.317  -3.109  -2.752  93.108
 Approx polarizability: 147.168  -4.306 150.245  -0.668  -2.116 141.190

                      1                      2                      3
                      A                      A                      A
 Frequencies --     38.1299                57.2756                78.6308
 Red. masses --      3.4605                 4.9238                 2.5229
 Frc consts  --      0.0030                 0.0095                 0.0092
 IR Inten    --      1.0583                 4.6216                 4.9509

                      4                      5                      6
                      A                      A                      A
 Frequencies --    141.9178               187.7563               209.4083
 Red. masses --      3.1251                 3.2700                 4.1352
 Frc consts  --      0.0371                 0.0679                 0.1068
 IR Inten    --      0.5575                 8.1717                 2.6260

                      7                      8                      9
                      A                      A                      A
 Frequencies --    239.6094               253.4135               289.8753
 Red. masses --      1.5842                 1.4027                 3.0348
 Frc consts  --      0.0536                 0.0531                 0.1502
 IR Inten    --     17.7196                 2.1011                 1.3902

                     10                     11                     12
                      A                      A                      A
 Frequencies --    291.4030               328.0662               357.7050
 Red. masses --      1.9280                 2.6128                 3.5708
 Frc consts  --      0.0965                 0.1657                 0.2692
 IR Inten    --      0.8618                 6.6126                 2.1129

                     13                     14                     15
                      A                      A                      A
 Frequencies --    391.4233               413.8666               432.1519
 Red. masses --      2.4740                 2.1947                 2.2186
 Frc consts  --      0.2233                 0.2215                 0.2441
 IR Inten    --      5.6584                35.3815                12.3270

                     16                     17                     18
                      A                      A                      A
 Frequencies --    469.2209               495.0731               509.4630
 Red. masses --      5.2839                 2.2607                 8.7189
 Frc consts  --      0.6854                 0.3265                 1.3333
 IR Inten    --     12.4496                 9.4722                 7.7152

                     19                     20                     21
                      A                      A                      A
 Frequencies --    552.6695               684.9253               695.4080
 Red. masses --      5.3320                 5.1039                 2.0538
 Frc consts  --      0.9596                 1.4107                 0.5852
 IR Inten    --     67.9555                31.0750               103.1006

                     22                     23                     24
                      A                      A                      A
 Frequencies --    713.2170               768.0327               799.5630
 Red. masses --      3.0182                 1.6841                 2.3820
 Frc consts  --      0.9046                 0.5853                 0.8972
 IR Inten    --    156.5936                39.7698                16.3405

                     25                     26                     27
                      A                      A                      A
 Frequencies --    875.8319               884.6233               893.5978
 Red. masses --      1.7977                 2.1979                 1.9003
 Frc consts  --      0.8125                 1.0134                 0.8940
 IR Inten    --     19.7189                 6.5524                37.7017

                     28                     29                     30
                      A                      A                      A
 Frequencies --    933.9661               954.4362               977.7802
 Red. masses --      2.6257                 2.1300                 2.1549
 Frc consts  --      1.3494                 1.1432                 1.2138
 IR Inten    --    128.1402                39.5875                12.5954

                     31                     32                     33
                      A                      A                      A
 Frequencies --   1038.1104              1072.6991              1100.6981
 Red. masses --      2.1017                 1.8956                 2.3823
 Frc consts  --      1.3345                 1.2851                 1.7005
 IR Inten    --      4.9103                17.9001                39.5780

                     34                     35                     36
                      A                      A                      A
 Frequencies --   1109.3502              1115.0766              1133.0281
 Red. masses --      1.5752                 1.9254                 2.5805
 Frc consts  --      1.1421                 1.4105                 1.9518
 IR Inten    --      7.1218                54.3726                15.6275

                     37                     38                     39
                      A                      A                      A
 Frequencies --   1153.1508              1170.3998              1191.7446
 Red. masses --      2.2554                 1.5159                 1.4567
 Frc consts  --      1.7671                 1.2234                 1.2189
 IR Inten    --    143.8966                26.2867                 5.0756

                     40                     41                     42
                      A                      A                      A
 Frequencies --   1214.8199              1234.1153              1255.2768
 Red. masses --      1.9939                 1.6153                 1.8619
 Frc consts  --      1.7338                 1.4495                 1.7285
 IR Inten    --     13.2027                24.8061                10.4599

                     43                     44                     45
                      A                      A                      A
 Frequencies --   1320.2340              1335.8552              1360.7319
 Red. masses --      1.2456                 3.9679                 1.5979
 Frc consts  --      1.2792                 4.1719                 1.7431
 IR Inten    --     39.0880               167.0311                29.4799

                     46                     47                     48
                      A                      A                      A
 Frequencies --   1364.8856              1383.3789              1394.8928
 Red. masses --      1.4451                 1.2420                 1.4155
 Frc consts  --      1.5861                 1.4004                 1.6227
 IR Inten    --      4.3944                 1.7028                 7.9058

                     49                     50                     51
                      A                      A                      A
 Frequencies --   1404.4513              1422.7811              1428.7741
 Red. masses --      1.4657                 1.3083                 1.3493
 Frc consts  --      1.7034                 1.5604                 1.6229
 IR Inten    --      3.9338                 8.8205                 3.3949

                     52                     53                     54
                      A                      A                      A
 Frequencies --   1490.8748              1503.7811              1512.5219
 Red. masses --      1.1651                 1.1003                 1.0872
 Frc consts  --      1.5258                 1.4660                 1.4654
 IR Inten    --      3.2315                 7.8072                 4.4087

                     55                     56                     57
                      A                      A                      A
 Frequencies --   1519.1909              1524.3791              1532.6322
 Red. masses --      1.0854                 1.1417                 1.0864
 Frc consts  --      1.4760                 1.5631                 1.5035
 IR Inten    --      1.1129                 0.6495                 9.9750

                     58                     59                     60
                      A                      A                      A
 Frequencies --   1536.9261              1554.8866              1625.5369
 Red. masses --      1.1124                 1.0974                 1.1001
 Frc consts  --      1.5482                 1.5632                 1.7127
 IR Inten    --      8.2183                10.8805                52.3573

                     61                     62                     63
                      A                      A                      A
 Frequencies --   2988.7491              3008.7840              3011.3965
 Red. masses --      1.0568                 1.0749                 1.0719
 Frc consts  --      5.5617                 5.7334                 5.7270
 IR Inten    --     72.4530                 6.8208                34.5674

                     64                     65                     66
                      A                      A                      A
 Frequencies --   3016.3426              3033.1325              3058.6103
 Red. masses --      1.0716                 1.0775                 1.0677
 Frc consts  --      5.7443                 5.8404                 5.8851
 IR Inten    --     11.4870               100.6451                25.1529

                     67                     68                     69
                      A                      A                      A
 Frequencies --   3071.0558              3085.7942              3110.2848
 Red. masses --      1.0940                 1.0799                 1.1001
 Frc consts  --      6.0792                 6.0583                 6.2700
 IR Inten    --     47.5078                60.7594                33.3368

                     70                     71                     72
                      A                      A                      A
 Frequencies --   3137.6171              3146.1239              3169.7875
 Red. masses --      1.0996                 1.0925                 1.0911
 Frc consts  --      6.3782                 6.3710                 6.4593
 IR Inten    --     25.2166                 7.4564                 1.5512

                     73                     74                     75
                      A                      A                      A
 Frequencies --   3493.4852              3507.0132              3603.8561
 Red. masses --      1.0469                 1.0739                 1.0977
 Frc consts  --      7.5278                 7.7820                 8.3996
 IR Inten    --     26.3571                 1.4848                28.6721

 - Thermochemistry -
 -------------------
 Temperature   298.150 Kelvin.  Pressure   1.00000 Atm.
 Atom     1 has atomic number  6 and mass  12.00000

 Molecular mass:   193.08850 amu.
 Principal axes and moments of inertia in atomic units:
                           1         2         3
     Eigenvalues --  1321.594522927.943873326.97483
           X            0.99995   0.00312  -0.00950
           Y           -0.00347   0.99931  -0.03705
           Z            0.00938   0.03708   0.99927
 This molecule is an asymmetric top.
 Rotational symmetry number  1.
 Warning -- assumption of classical behavior for rotation
           may cause significant error
 Rotational temperatures (Kelvin)      0.06554     0.02958     0.02603
 Rotational constants (GHZ):           1.36558     0.61639     0.54246
 Zero-point vibrational energy     612282.6 (Joules/Mol)
                                  146.33905 (Kcal/Mol)
 Warning -- explicit consideration of  19 degrees of freedom as
           vibrations may cause significant error
 Vibrational temperatures:     54.86    82.41   113.13   204.19   270.14
          (Kelvin)            301.29   344.74   364.61   417.07   419.26
                              472.01   514.66   563.17   595.46   621.77
                              675.10   712.30   733.00   795.17   985.45
                             1000.54  1026.16  1105.03  1150.39  1260.13
                             1272.78  1285.69  1343.77  1373.22  1406.81
                             1493.61  1543.37  1583.66  1596.11  1604.35
                             1630.17  1659.13  1683.94  1714.65  1747.85
                             1775.62  1806.06  1899.52  1922.00  1957.79
                             1963.77  1990.37  2006.94  2020.69  2047.06
                             2055.69  2145.04  2163.61  2176.18  2185.78
                             2193.24  2205.12  2211.29  2237.13  2338.79
                             4300.14  4328.97  4332.73  4339.84  4364.00
                             4400.66  4418.56  4439.77  4475.01  4514.33
                             4526.57  4560.62  5026.35  5045.81  5185.15

 Zero-point correction=                           0.233206 (Hartree/Particle)
 Thermal correction to Energy=                    0.245816
 Thermal correction to Enthalpy=                  0.246760
 Thermal correction to Gibbs Free Energy=         0.194130
 Sum of electronic and zero-point Energies=           -950.294185
 Sum of electronic and thermal Energies=              -950.281575
 Sum of electronic and thermal Enthalpies=            -950.280631
 Sum of electronic and thermal Free Energies=         -950.333261

                     E (Thermal)             CV                S
                      KCal/Mol        Cal/Mol-Kelvin    Cal/Mol-Kelvin
 Total                  154.252             48.123            110.769
 Electronic               0.000              0.000              0.000
 Translational            0.889              2.981             41.679
 Rotational               0.889              2.981             30.932
 Vibrational            152.474             42.161             38.157
 Vibration     1          0.594              1.982              5.354
 Vibration     2          0.596              1.975              4.549
 Vibration     3          0.600              1.964              3.925
 Vibration     4          0.615              1.911              2.778
 Vibration     5          0.632              1.857              2.250
 Vibration     6          0.642              1.826              2.049
 Vibration     7          0.657              1.780              1.806
 Vibration     8          0.665              1.757              1.707
 Vibration     9          0.686              1.693              1.475
 Vibration    10          0.687              1.690              1.466
 Vibration    11          0.711              1.619              1.270
 Vibration    12          0.733              1.559              1.132
 Vibration    13          0.759              1.489              0.995
 Vibration    14          0.777              1.440              0.913
 Vibration    15          0.793              1.400              0.852
 Vibration    16          0.826              1.318              0.740
 Vibration    17          0.851              1.261              0.671
 Vibration    18          0.865              1.229              0.635
 Vibration    19          0.908              1.134              0.539

 Optimization completed.
    -- Stationary point found.
 Normal termination of Gaussian 16 at Wed Dec  9 16:59:50 2020.

 ----------------------------------------------------------------------
 # B3LYP/6-311++G(d,p) empiricaldispersion=gd3bj scf=xqc pop=npa geom=c
 heck
 ----------------------------------------------------------------------

 ---------------------------------------
 CID_114958535_JID_2164_Energie_neutraal
 ---------------------------------------
 Structure from the checkpoint file:  "JID_2164.chk"
 Charge =  0 Multiplicity = 1

 SCF Done:  E(RB3LYP) =  -950.724685965     A.U. after   14 cycles
 Normal termination of Gaussian 16 at Wed Dec  9 17:02:52 2020.

 ----------------------------------------------------------------------
 # B3LYP/6-311++G(d,p) empiricaldispersion=gd3bj scf=xqc pop=npa geom=c
 heck
 ----------------------------------------------------------------------

 -------------------------------------
 CID_114958535_JID_2164_Energie_kation
 -------------------------------------
 Structure from the checkpoint file:  "JID_2164.chk"
 Charge =  1 Multiplicity = 2

 SCF Done:  E(UB3LYP) =  -950.419445292     A.U. after   20 cycles
 Normal termination of Gaussian 16 at Wed Dec  9 17:10:05 2020.
 Gaussian 16:  ES64L-G16RevA.03 25-Dec-2016

 ----------------------------------------------------------------------
 # B3LYP/6-311++G(d,p) empiricaldispersion=gd3bj scf=xqc pop=npa geom=c
 heck
 ----------------------------------------------------------------------

 ------------------------------------
 CID_114958535_JID_2164_Energie_anion
 ------------------------------------
 Structure from the checkpoint file:  "JID_2164.chk"
 Charge = -1 Multiplicity = 2

                         Standard orientation:
 ---------------------------------------------------------------------
 Center     Atomic      Atomic             Coordinates (Angstroms)
 Number     Number       Type             X           Y           Z
 ---------------------------------------------------------------------
      1          6           0        1.706541   -1.797435    1.058473
      2          7           0        2.478268   -1.369598   -0.105170
      3          6           0        2.085217   -0.174564   -0.858511
      4          6           0        2.472518    1.197327   -0.251934
      5          6           0        1.514651    1.690266    0.838841
      6          6           0        0.065209    1.627796    0.358936
      7          7           0       -0.220370    0.249775   -0.075247
      8          6           0        0.596856   -0.192683   -1.222684
      9         16           0       -1.842100   -0.156230   -0.153696
     10          8           0       -2.677479    0.901042   -0.727217
     11          8           0       -1.897836   -1.516602   -0.692053
     12          7           0       -2.177513   -0.124142    1.503118
     13          1           0        0.699231   -2.086324    0.748942
     14          1           0        1.606461   -1.058651    1.870574
     15          1           0        2.193063   -2.688832    1.469349
     16          1           0        3.459006   -1.282510    0.148973
     17          1           0        2.621907   -0.253133   -1.814346
     18          1           0        3.500506    1.148966    0.129008
     19          1           0        2.479106    1.933882   -1.068926
     20          1           0        1.613445    1.082979    1.744136
     21          1           0        1.754713    2.724462    1.114100
     22          1           0       -0.624035    1.881565    1.165678
     23          1           0       -0.102445    2.330912   -0.471806
     24          1           0        0.430357    0.472915   -2.083524
     25          1           0        0.291947   -1.201113   -1.499841
     26          1           0       -3.178360    0.017586    1.625907
     27          1           0       -1.877426   -0.995033    1.937431
 ---------------------------------------------------------------------

 SCF Done:  E(UB3LYP) =  -950.715917420     A.U. after   25 cycles

 The electronic state is 2-A.
 Alpha  occ. eigenvalues --  -88.97782 -19.01933 -19.01859 -14.24572 -14.24017
 Alpha  occ. eigenvalues --  -14.19490 -10.10867 -10.10661 -10.10552 -10.07911
 Alpha  occ. eigenvalues --  -10.07223 -10.06901  -8.03755  -6.00013  -5.99981
 Alpha  occ. eigenvalues --   -5.99940  -1.03010  -0.91296  -0.85219  -0.81051
 Alpha  occ. eigenvalues --   -0.79666  -0.69467  -0.66260  -0.59661  -0.57430
 Alpha  occ. eigenvalues --   -0.52065  -0.51370  -0.45711  -0.44881  -0.42224
 Alpha  occ. eigenvalues --   -0.40999  -0.39458  -0.37098  -0.36884  -0.35188
 Alpha  occ. eigenvalues --   -0.34893  -0.33748  -0.31903  -0.30565  -0.29947
 Alpha  occ. eigenvalues --   -0.27798  -0.26616  -0.25803  -0.25646  -0.25130
 Alpha  occ. eigenvalues --   -0.23776  -0.23340  -0.22297  -0.21077  -0.19372
 Alpha  occ. eigenvalues --   -0.15634  -0.11947   0.04121
 Alpha virt. eigenvalues --    0.06044   0.07484   0.07941   0.08967   0.09928
 Alpha virt. eigenvalues --    0.10309   0.10946   0.11335   0.11851   0.12731
 Alpha virt. eigenvalues --    0.13376   0.13823   0.14600   0.15337   0.15703

  Beta  occ. eigenvalues --  -88.97773 -19.01921 -19.01839 -14.24552 -14.23935
  Beta  occ. eigenvalues --  -14.19472 -10.10856 -10.10648 -10.10548 -10.07884
  Beta  occ. eigenvalues --  -10.07202 -10.06870  -8.03743  -6.00002  -5.99974
  Beta  occ. eigenvalues --   -5.99932  -1.02963  -0.91248  -0.85185  -0.80932
  Beta  occ. eigenvalues --   -0.79614  -0.69420  -0.66226  -0.59596  -0.57379
  Beta  occ. eigenvalues --   -0.52006  -0.51298  -0.45658  -0.44821  -0.42141
  Beta  occ. eigenvalues --   -0.40962  -0.39407  -0.37061  -0.36850  -0.35154
  Beta  occ. eigenvalues --   -0.34850  -0.33719  -0.31858  -0.30534  -0.29920
  Beta  occ. eigenvalues --   -0.27759  -0.26581  -0.25767  -0.25609  -0.25093
  Beta  occ. eigenvalues --   -0.23734  -0.23302  -0.22258  -0.21046  -0.19315
  Beta  occ. eigenvalues --   -0.15601  -0.11922
  Beta virt. eigenvalues --    0.06539   0.07487   0.08089   0.08535   0.09654
  Beta virt. eigenvalues --    0.10579   0.10638   0.11263   0.11542   0.12538
  Beta virt. eigenvalues --    0.13243   0.13577   0.14080   0.14750   0.15466

 Mulliken charges and spin densities:
               1          2
     1  C    0.451001  -0.880484
     2  N   -0.182648   0.011650
     3  C   -0.083251   0.320270
     4  C    0.561722  -1.166757
     5  C   -0.573821   0.391777
     6  C    0.173181  -0.690849
     7  N   -0.182271   0.172024
     8  C   -0.321978  -0.393431
     9  S    1.600256  -1.310711
    10  O   -0.217941   0.029962
    11  O   -0.172506   0.012029
    12  N   -0.447249   0.018710
    13  H   -0.104223   0.284316
    14  H   -0.083945   0.204524
    15  H   -0.179553   0.312559
    16  H    0.052020   0.170848
    17  H   -0.277364   0.509090
    18  H   -0.633202   0.802061
    19  H    0.013482   0.110048
    20  H    0.104791   0.029012
    21  H   -0.312714   0.491871
    22  H   -0.077562   0.284481
    23  H    0.131151   0.052901
    24  H    0.003430   0.156050
    25  H    0.290132  -0.046612
    26  H   -0.246803   0.552568
    27  H   -0.284135   0.572093
 Sum of Mulliken charges =  -1.00000   1.00000

 Dipole moment (field-independent basis, Debye):
    X=             -0.1164    Y=              0.6020    Z=             -2.1519  Tot=              2.2375
 Quadrupole moment (field-independent basis, Debye-Ang):
   XX=           -146.7974   YY=           -119.5683   ZZ=           -117.1595
   XY=             -3.3264   XZ=              2.4681   YZ=              0.5145

 Summary of Natural Population Analysis:

                                       Natural Population
                Natural  -----------------------------------------------
    Atom  No    Charge         Core      Valence    Rydberg      Total
 -----------------------------------------------------------------------
      C    1   -0.17905      0.99964     2.17090    0.00851     3.17905
      N    2   -0.34284      0.99974     2.83052    0.01258     3.84284
      C    3   -0.01149      0.99958     1.99649    0.01543     3.01149
      C    4   -0.19672      0.99960     2.18743    0.00968     3.19672
      C    5   -0.19529      0.99962     2.18660    0.00907     3.19529
      C    6   -0.08730      0.99960     2.07587    0.01184     3.08730
      N    7   -0.37507      0.99971     2.86024    0.01512     3.87507
      C    8   -0.09266      0.99957     2.08282    0.01027     3.09266
      S    9    1.16218      4.99931     1.73414    0.10437     6.83782
      O   10   -0.46254      0.99990     3.45736    0.00528     4.46254
      O   11   -0.46156      0.99990     3.45615    0.00550     4.46156
      N   12   -0.50734      0.99978     2.99692    0.01063     4.00734
      H   13    0.09567      0.00000     0.40242    0.00191     0.40433
      H   14    0.07959      0.00000     0.41840    0.00201     0.42041
      H   15    0.09162      0.00000     0.40746    0.00091     0.40838
      H   16    0.17317      0.00000     0.32394    0.00288     0.32683
      H   17    0.09806      0.00000     0.40066    0.00127     0.40194
      H   18    0.10292      0.00000     0.39480    0.00228     0.39708
      H   19    0.09642      0.00000     0.40200    0.00158     0.40358
      H   20    0.10023      0.00000     0.39791    0.00186     0.39977
      H   21    0.10199      0.00000     0.39681    0.00120     0.39801
      H   22    0.11325      0.00000     0.38526    0.00149     0.38675
      H   23    0.08904      0.00000     0.40977    0.00119     0.41096
      H   24    0.09243      0.00000     0.40641    0.00116     0.40757
      H   25    0.11918      0.00000     0.37955    0.00127     0.38082
      H   26    0.19753      0.00000     0.29790    0.00457     0.30247
      H   27    0.19856      0.00000     0.29560    0.00584     0.30144
 =======================================================================
   * Total *   -0.00000     15.99596    35.75433    0.24970    52.00000

 Normal termination of Gaussian 16 at Wed Dec  9 17:19:03 2020.
