 Gaussian 16, Revision A.03,

 -----------------------------------------------------------
 # opt freq B3LYP/6-31G(d) empiricaldispersion=gd3bj scf=xqc
 -----------------------------------------------------------

 ------------------------------
 CID_90407819_JID_1995_neutraal
 ------------------------------
 Symbolic Z-matrix:
 Charge =  0 Multiplicity = 1

 SCF Done:  E(RB3LYP) =  -1378.94921394     A.U. after   16 cycles
 SCF Done:  E(RB3LYP) =  -1378.96565642     A.U. after   14 cycles
 SCF Done:  E(RB3LYP) =  -1378.95858539     A.U. after   17 cycles
 SCF Done:  E(RB3LYP) =  -1378.97073502     A.U. after   15 cycles
 SCF Done:  E(RB3LYP) =  -1378.97407292     A.U. after   16 cycles
 SCF Done:  E(RB3LYP) =  -1378.97662155     A.U. after   13 cycles
 SCF Done:  E(RB3LYP) =  -1378.97791328     A.U. after   13 cycles
 SCF Done:  E(RB3LYP) =  -1378.97806533     A.U. after   14 cycles
 SCF Done:  E(RB3LYP) =  -1378.97865893     A.U. after   14 cycles
 SCF Done:  E(RB3LYP) =  -1378.97895979     A.U. after   13 cycles
 SCF Done:  E(RB3LYP) =  -1378.97929115     A.U. after   10 cycles
 SCF Done:  E(RB3LYP) =  -1378.97929637     A.U. after   10 cycles
 SCF Done:  E(RB3LYP) =  -1378.97929821     A.U. after    9 cycles
 SCF Done:  E(RB3LYP) =  -1378.97929915     A.U. after    8 cycles
 SCF Done:  E(RB3LYP) =  -1378.97929996     A.U. after    9 cycles
 SCF Done:  E(RB3LYP) =  -1378.97930030     A.U. after    9 cycles
 Optimization completed.
    -- Stationary point found.
 Normal termination of Gaussian 16 at Tue Dec  8 21:54:48 2020.

 --------------------------------------------------------------------
 #N Geom=AllCheck Guess=TCheck SCRF=Check GenChk RB3LYP/6-31G(d) Freq
 --------------------------------------------------------------------

 Structure from the checkpoint file:  "JID_1995.chk"
 ------------------------------
 CID_90407819_JID_1995_neutraal
 ------------------------------
 Charge =  0 Multiplicity = 1

 SCF Done:  E(RB3LYP) =  -1378.97930030     A.U. after    1 cycles

  Exact polarizability:  81.128  -5.906  96.475   4.692   1.831  81.227
 Approx polarizability: 115.259 -12.401 174.813   8.872   9.108 168.358

                      1                      2                      3
                      A                      A                      A
 Frequencies --     44.8900                48.0299                78.3863
 Red. masses --      4.0442                 9.7711                 7.6321
 Frc consts  --      0.0048                 0.0133                 0.0276
 IR Inten    --      1.8493                 2.8783                 1.4613

                      4                      5                      6
                      A                      A                      A
 Frequencies --     83.1307               101.3259               116.9213
 Red. masses --      6.6214                 6.2611                 4.9655
 Frc consts  --      0.0270                 0.0379                 0.0400
 IR Inten    --     12.2104                10.4552                 3.8234

                      7                      8                      9
                      A                      A                      A
 Frequencies --    142.0464               166.9430               197.7534
 Red. masses --     12.6615                 9.5167                13.4052
 Frc consts  --      0.1505                 0.1563                 0.3089
 IR Inten    --      5.0698                 1.6440                 7.5226

                     10                     11                     12
                      A                      A                      A
 Frequencies --    227.8678               253.1776               284.9956
 Red. masses --      2.3526                 4.1871                 2.6083
 Frc consts  --      0.0720                 0.1581                 0.1248
 IR Inten    --     35.5995                19.1143                31.0857

                     13                     14                     15
                      A                      A                      A
 Frequencies --    358.9373               375.9696               409.9368
 Red. masses --      1.1325                12.0002                 3.5914
 Frc consts  --      0.0860                 0.9994                 0.3556
 IR Inten    --     68.3460                47.4457                31.4900

                     16                     17                     18
                      A                      A                      A
 Frequencies --    424.4065               443.9564               471.4404
 Red. masses --      2.3933                 3.4505                 3.9042
 Frc consts  --      0.2540                 0.4007                 0.5113
 IR Inten    --     32.6871                27.2072                21.7314

                     19                     20                     21
                      A                      A                      A
 Frequencies --    517.5613               558.1453               573.1161
 Red. masses --      2.3342                 2.8743                17.8091
 Frc consts  --      0.3684                 0.5276                 3.4465
 IR Inten    --     15.3608                10.8900                38.1311

                     22                     23                     24
                      A                      A                      A
 Frequencies --    623.4768               752.2069               779.5058
 Red. masses --      2.4036                12.5776                 1.3161
 Frc consts  --      0.5505                 4.1930                 0.4712
 IR Inten    --    100.3797               415.5780                65.9866

                     25                     26                     27
                      A                      A                      A
 Frequencies --    848.5313               880.3405               903.9086
 Red. masses --      5.1068                 2.9905                 1.7190
 Frc consts  --      2.1664                 1.3655                 0.8275
 IR Inten    --    198.3525               162.4519               175.6194

                     28                     29                     30
                      A                      A                      A
 Frequencies --    951.2092              1070.6045              1113.3370
 Red. masses --      1.5746                 1.2501                 4.3686
 Frc consts  --      0.8394                 0.8442                 3.1904
 IR Inten    --    114.9164                71.9559                55.5059

                     31                     32                     33
                      A                      A                      A
 Frequencies --   1132.6834              1148.0877              1163.3543
 Red. masses --      1.5020                 1.5951                 1.1842
 Frc consts  --      1.1354                 1.2388                 0.9443
 IR Inten    --     70.7254               139.2634               105.4603

                     34                     35                     36
                      A                      A                      A
 Frequencies --   1183.2971              1234.8698              1342.3762
 Red. masses --      7.4262                 1.4241                 8.8208
 Frc consts  --      6.1264                 1.2795                 9.3650
 IR Inten    --    106.2887                10.5131               159.9306

                     37                     38                     39
                      A                      A                      A
 Frequencies --   1433.2577              1445.1915              1664.6315
 Red. masses --      1.7021                 1.4000                 1.1186
 Frc consts  --      2.0601                 1.7228                 1.8263
 IR Inten    --    184.0043                18.5988                84.8051

                     40                     41                     42
                      A                      A                      A
 Frequencies --   1676.3779              1790.2235              2601.8330
 Red. masses --      1.1878                 4.6714                 1.0779
 Frc consts  --      1.9666                 8.8208                 4.2990
 IR Inten    --     38.8300               166.1345              1787.6099

                     43                     44                     45
                      A                      A                      A
 Frequencies --   3490.6377              3511.8135              3520.3256
 Red. masses --      1.0499                 1.0758                 1.0502
 Frc consts  --      7.5373                 7.8171                 7.6682
 IR Inten    --     17.6695                 4.5465                17.3639

                     46                     47                     48
                      A                      A                      A
 Frequencies --   3586.1111              3614.6285              3692.2677
 Red. masses --      1.0951                 1.0936                 1.0660
 Frc consts  --      8.2973                 8.4186                 8.5628
 IR Inten    --     19.6639                23.0602               117.2350

 - Thermochemistry -
 -------------------
 Temperature   298.150 Kelvin.  Pressure   1.00000 Atm.
 Atom     1 has atomic number  6 and mass  12.00000

 Molecular mass:   204.98271 amu.
 Principal axes and moments of inertia in atomic units:
                           1         2         3
     Eigenvalues --  1674.637722554.725673147.98841
           X            0.99990  -0.00916   0.01101
           Y            0.00912   0.99995   0.00397
           Z           -0.01104  -0.00386   0.99993
 This molecule is an asymmetric top.
 Rotational symmetry number  1.
 Warning -- assumption of classical behavior for rotation
           may cause significant error
 Rotational temperatures (Kelvin)      0.05172     0.03390     0.02751
 Rotational constants (GHZ):           1.07769     0.70643     0.57330
 Zero-point vibrational energy     317213.9 (Joules/Mol)
                                   75.81595 (Kcal/Mol)
 Warning -- explicit consideration of  21 degrees of freedom as
           vibrations may cause significant error
 Vibrational temperatures:     64.59    69.10   112.78   119.61   145.79
          (Kelvin)            168.22   204.37   240.19   284.52   327.85
                              364.27   410.05   516.43   540.94   589.81
                              610.63   638.75   678.30   744.66   803.05
                              824.59   897.04  1082.26  1121.54  1220.85
                             1266.61  1300.52  1368.58  1540.36  1601.84
                             1629.68  1651.84  1673.81  1702.50  1776.70
                             1931.38  2062.14  2079.31  2395.03  2411.93
                             2575.73  3743.46  5022.25  5052.72  5064.96
                             5159.61  5200.64  5312.35

 Zero-point correction=                           0.120820 (Hartree/Particle)
 Thermal correction to Energy=                    0.134671
 Thermal correction to Enthalpy=                  0.135615
 Thermal correction to Gibbs Free Energy=         0.079235
 Sum of electronic and zero-point Energies=          -1378.858480
 Sum of electronic and thermal Energies=             -1378.844629
 Sum of electronic and thermal Enthalpies=           -1378.843685
 Sum of electronic and thermal Free Energies=        -1378.900065

                     E (Thermal)             CV                S
                      KCal/Mol        Cal/Mol-Kelvin    Cal/Mol-Kelvin
 Total                   84.507             47.228            118.661
 Electronic               0.000              0.000              0.000
 Translational            0.889              2.981             41.857
 Rotational               0.889              2.981             30.977
 Vibrational             82.730             41.266             45.826
 Vibration     1          0.595              1.979              5.031
 Vibration     2          0.595              1.978              4.897
 Vibration     3          0.600              1.964              3.931
 Vibration     4          0.600              1.961              3.816
 Vibration     5          0.604              1.948              3.429
 Vibration     6          0.608              1.935              3.151
 Vibration     7          0.616              1.911              2.776
 Vibration     8          0.624              1.883              2.470
 Vibration     9          0.637              1.843              2.154
 Vibration    10          0.651              1.799              1.896
 Vibration    11          0.664              1.757              1.708
 Vibration    12          0.683              1.702              1.504
 Vibration    13          0.734              1.557              1.127
 Vibration    14          0.747              1.521              1.055
 Vibration    15          0.774              1.449              0.927
 Vibration    16          0.786              1.417              0.877
 Vibration    17          0.803              1.374              0.814
 Vibration    18          0.828              1.313              0.734
 Vibration    19          0.873              1.211              0.616
 Vibration    20          0.914              1.122              0.528
 Vibration    21          0.929              1.089              0.498

                           ! Non-Optimized Parameters !
 Normal termination of Gaussian 16 at Tue Dec  8 21:58:24 2020.

 ----------------------------------------------------------------------
 # B3LYP/6-311++G(d,p) empiricaldispersion=gd3bj scf=xqc pop=npa geom=c
 heck
 ----------------------------------------------------------------------

 --------------------------------------
 CID_90407819_JID_1995_Energie_neutraal
 --------------------------------------
 Structure from the checkpoint file:  "JID_1995.chk"
 Charge =  0 Multiplicity = 1

 SCF Done:  E(RB3LYP) =  -1379.24614525     A.U. after   16 cycles
 Normal termination of Gaussian 16 at Tue Dec  8 22:00:03 2020.

 ----------------------------------------------------------------------
 # B3LYP/6-311++G(d,p) empiricaldispersion=gd3bj scf=xqc pop=npa geom=c
 heck
 ----------------------------------------------------------------------

 ------------------------------------
 CID_90407819_JID_1995_Energie_kation
 ------------------------------------
 Structure from the checkpoint file:  "JID_1995.chk"
 Charge =  1 Multiplicity = 2

 SCF Done:  E(UB3LYP) =  -1378.90180582     A.U. after   26 cycles
 Normal termination of Gaussian 16 at Tue Dec  8 22:03:46 2020.
 Gaussian 16:  ES64L-G16RevA.03 25-Dec-2016

 ----------------------------------------------------------------------
 # B3LYP/6-311++G(d,p) empiricaldispersion=gd3bj scf=xqc pop=npa geom=c
 heck
 ----------------------------------------------------------------------

 -----------------------------------
 CID_90407819_JID_1995_Energie_anion
 -----------------------------------
 Structure from the checkpoint file:  "JID_1995.chk"
 Charge = -1 Multiplicity = 2

                         Standard orientation:
 ---------------------------------------------------------------------
 Center     Atomic      Atomic             Coordinates (Angstroms)
 Number     Number       Type             X           Y           Z
 ---------------------------------------------------------------------
      1          6           0       -2.301806   -0.399280    0.206595
      2          7           0       -2.014703   -0.499159    1.441105
      3          7           0       -2.650858   -1.498923   -0.568376
      4          7           0       -2.308955    0.815690   -0.566926
      5          8           0        0.136049    1.573654   -1.328479
      6         16           0        0.946919    1.544181    0.060393
      7          8           0        0.049134    1.828869    1.204909
      8         16           0        1.224216   -0.782391    0.036570
      9          8           0        1.413965   -1.320830    1.386206
     10          8           0        0.337448   -1.399921   -0.952750
     11          8           0        2.722327   -0.766296   -0.679363
     12          1           0       -1.837211    0.408084    1.871562
     13          1           0       -2.119365   -1.543178   -1.434309
     14          1           0       -2.491334   -2.346992   -0.033037
     15          1           0       -2.430607    1.625659    0.037332
     16          1           0       -3.049760    0.800095   -1.266520
     17          1           0       -0.814692    1.191703   -1.175295
     18          1           0        3.365875   -0.975385    0.024486
 ---------------------------------------------------------------------

 SCF Done:  E(UB3LYP) =  -1379.28101599     A.U. after   21 cycles

 The electronic state is 2-A.
 Alpha  occ. eigenvalues --  -88.85853 -88.78835 -19.01551 -18.99752 -18.96073
 Alpha  occ. eigenvalues --  -18.95697 -18.95077 -14.23793 -14.20875 -14.15935
 Alpha  occ. eigenvalues --  -10.15990  -7.92797  -7.86676  -5.89091  -5.88940
 Alpha  occ. eigenvalues --   -5.88535  -5.83070  -5.82733  -5.82332  -0.97456
 Alpha  occ. eigenvalues --   -0.93063  -0.87665  -0.87008  -0.85303  -0.84868
 Alpha  occ. eigenvalues --   -0.77400  -0.73871  -0.53991  -0.49478  -0.48608
 Alpha  occ. eigenvalues --   -0.43350  -0.42416  -0.39725  -0.36688  -0.34911
 Alpha  occ. eigenvalues --   -0.34309  -0.33490  -0.32180  -0.30540  -0.28658
 Alpha  occ. eigenvalues --   -0.27877  -0.25340  -0.23126  -0.20944  -0.19612
 Alpha  occ. eigenvalues --   -0.18808  -0.18032  -0.16750  -0.16123  -0.15388
 Alpha  occ. eigenvalues --   -0.14965  -0.13718  -0.09463   0.03626
 Alpha virt. eigenvalues --    0.07449   0.10162   0.10585   0.11465   0.13075
 Alpha virt. eigenvalues --    0.14193   0.14563   0.14930   0.15379   0.16164
 Alpha virt. eigenvalues --    0.17538   0.18034   0.18268   0.18739   0.19409

  Beta  occ. eigenvalues --  -88.85639 -88.78456 -19.01473 -18.99644 -18.95919
  Beta  occ. eigenvalues --  -18.95463 -18.94717 -14.23792 -14.20870 -14.15934
  Beta  occ. eigenvalues --  -10.15977  -7.92552  -7.86322  -5.88912  -5.88785
  Beta  occ. eigenvalues --   -5.88148  -5.82843  -5.82181  -5.81559  -0.96999
  Beta  occ. eigenvalues --   -0.92505  -0.87331  -0.86963  -0.84777  -0.84342
  Beta  occ. eigenvalues --   -0.77392  -0.73865  -0.52716  -0.49392  -0.47926
  Beta  occ. eigenvalues --   -0.43330  -0.42403  -0.38847  -0.36307  -0.34817
  Beta  occ. eigenvalues --   -0.34228  -0.32871  -0.31868  -0.30227  -0.28249
  Beta  occ. eigenvalues --   -0.27508  -0.24137  -0.22395  -0.20696  -0.18731
  Beta  occ. eigenvalues --   -0.18546  -0.17846  -0.16494  -0.15768  -0.15104
  Beta  occ. eigenvalues --   -0.14374  -0.13650  -0.07608
  Beta virt. eigenvalues --    0.07394   0.09550   0.10543   0.11423   0.12013
  Beta virt. eigenvalues --    0.13337   0.14176   0.14663   0.15027   0.15510
  Beta virt. eigenvalues --    0.16266   0.17945   0.18108   0.18337   0.18848

 Mulliken charges and spin densities:
               1          2
     1  C   -0.380478  -0.130850
     2  N   -0.178749   0.002256
     3  N   -0.253074   0.014820
     4  N   -0.527820   0.015767
     5  O   -0.354119  -0.015168
     6  S    0.177851   0.485716
     7  O   -0.475371   0.092206
     8  S   -0.119956   0.269607
     9  O   -0.355751   0.025665
    10  O   -0.169907   0.006557
    11  O   -0.305950   0.043875
    12  H    0.228625   0.005655
    13  H    0.226480   0.042660
    14  H    0.256295   0.019177
    15  H    0.292468  -0.004755
    16  H    0.234496   0.006474
    17  H    0.520581   0.024462
    18  H    0.184379   0.095876
 Sum of Mulliken charges =  -1.00000   1.00000

 Dipole moment (field-independent basis, Debye):
    X=             -3.8971    Y=              1.0803    Z=             -2.1892  Tot=              4.5986
 Quadrupole moment (field-independent basis, Debye-Ang):
   XX=            -87.8463   YY=            -99.2038   ZZ=            -98.9138
   XY=             -5.3312   XZ=              7.5768   YZ=              1.4912

 Summary of Natural Population Analysis:

                                       Natural Population
                Natural  -----------------------------------------------
    Atom  No    Charge         Core      Valence    Rydberg      Total
 -----------------------------------------------------------------------
      C    1    0.29695      0.99974     1.68514    0.01817     2.70305
      N    2   -0.36034      0.99968     2.85046    0.01020     3.86034
      N    3   -0.42063      0.99971     2.91143    0.00950     3.92063
      N    4   -0.43248      0.99973     2.92328    0.00946     3.93248
      O    5   -0.45238      0.99991     3.44378    0.00869     4.45238
      S    6    0.75810      4.99960     2.17207    0.07022     7.24190
      O    7   -0.44078      0.99992     3.43178    0.00908     4.44078
      S    8    0.99379      4.99954     1.90249    0.10418     7.00621
      O    9   -0.46047      0.99991     3.45310    0.00746     4.46047
      O   10   -0.46421      0.99990     3.45505    0.00926     4.46421
      O   11   -0.44918      0.99991     3.44187    0.00740     4.44918
      H   12    0.17814      0.00000     0.31934    0.00252     0.32186
      H   13    0.19417      0.00000     0.30351    0.00232     0.30583
      H   14    0.19258      0.00000     0.30501    0.00241     0.30742
      H   15    0.19746      0.00000     0.30105    0.00149     0.30254
      H   16    0.18736      0.00000     0.31090    0.00174     0.31264
      H   17    0.24571      0.00000     0.24937    0.00493     0.25429
      H   18    0.23623      0.00000     0.25895    0.00482     0.26377
 =======================================================================
   * Total *    0.00000     18.99756    33.71859    0.28385    53.00000

 Normal termination of Gaussian 16 at Tue Dec  8 22:06:51 2020.
