 Gaussian 16, Revision A.03,

 -----------------------------------------------------------
 # opt freq B3LYP/6-31G(d) empiricaldispersion=gd3bj scf=xqc
 -----------------------------------------------------------

 -------------------------------
 CID_132096985_JID_9027_neutraal
 -------------------------------
 Symbolic Z-matrix:
 Charge =  0 Multiplicity = 1

 SCF Done:  E(RB3LYP) =  -848.685327840     A.U. after   15 cycles
 SCF Done:  E(RB3LYP) =  -848.689661736     A.U. after   13 cycles
 SCF Done:  E(RB3LYP) =  -848.690315794     A.U. after   12 cycles
 SCF Done:  E(RB3LYP) =  -848.691660633     A.U. after   12 cycles
 SCF Done:  E(RB3LYP) =  -848.692024617     A.U. after   12 cycles
 SCF Done:  E(RB3LYP) =  -848.692636463     A.U. after   11 cycles
 SCF Done:  E(RB3LYP) =  -848.693060463     A.U. after   11 cycles
 SCF Done:  E(RB3LYP) =  -848.693972146     A.U. after   12 cycles
 SCF Done:  E(RB3LYP) =  -848.692417575     A.U. after   12 cycles
 SCF Done:  E(RB3LYP) =  -848.695953409     A.U. after   13 cycles
 SCF Done:  E(RB3LYP) =  -848.701763069     A.U. after    9 cycles
 SCF Done:  E(RB3LYP) =  -848.701765228     A.U. after    9 cycles
 SCF Done:  E(RB3LYP) =  -848.701767181     A.U. after    9 cycles
 SCF Done:  E(RB3LYP) =  -848.701768021     A.U. after    8 cycles
 SCF Done:  E(RB3LYP) =  -848.701768266     A.U. after    7 cycles
 Optimization completed.
    -- Stationary point found.
 Normal termination of Gaussian 16 at Thu Dec 17 20:28:26 2020.

 --------------------------------------------------------------------
 #N Geom=AllCheck Guess=TCheck SCRF=Check GenChk RB3LYP/6-31G(d) Freq
 --------------------------------------------------------------------

 Structure from the checkpoint file:  "JID_9027.chk"
 -------------------------------
 CID_132096985_JID_9027_neutraal
 -------------------------------
 Charge =  0 Multiplicity = 1

 SCF Done:  E(RB3LYP) =  -848.701768266     A.U. after    1 cycles

  Exact polarizability: 194.695  30.125 148.765  -1.775  -0.105 153.247
 Approx polarizability: 244.769  46.736 212.081  -2.573   6.568 276.318

                      1                      2                      3
                      A                      A                      A
 Frequencies --     18.5845                34.8374                46.0994
 Red. masses --      4.4284                 3.8200                 4.4133
 Frc consts  --      0.0009                 0.0027                 0.0055
 IR Inten    --      0.0058                 0.2777                 0.2306

                      4                      5                      6
                      A                      A                      A
 Frequencies --     64.4990               106.4967               122.2735
 Red. masses --      3.8621                 5.3344                 2.7520
 Frc consts  --      0.0095                 0.0356                 0.0242
 IR Inten    --      1.3959                 0.9630                 1.1290

                      7                      8                      9
                      A                      A                      A
 Frequencies --    130.7604               162.0501               179.0388
 Red. masses --      4.2827                 4.1054                 4.1538
 Frc consts  --      0.0431                 0.0635                 0.0785
 IR Inten    --      1.2235                 1.5195                 2.9109

                     10                     11                     12
                      A                      A                      A
 Frequencies --    197.9036               231.7226               237.5535
 Red. masses --      4.5497                 1.4511                 1.9902
 Frc consts  --      0.1050                 0.0459                 0.0662
 IR Inten    --      5.2785                 0.2903                 0.6787

                     13                     14                     15
                      A                      A                      A
 Frequencies --    255.8976               274.2890               320.8588
 Red. masses --      2.6152                 2.4283                 3.6828
 Frc consts  --      0.1009                 0.1076                 0.2234
 IR Inten    --      1.6222                 1.1877                 2.0945

                     16                     17                     18
                      A                      A                      A
 Frequencies --    329.3947               353.5231               384.7895
 Red. masses --      2.4379                 2.3590                 2.4620
 Frc consts  --      0.1558                 0.1737                 0.2148
 IR Inten    --      0.5656                 1.3000                 0.6148

                     19                     20                     21
                      A                      A                      A
 Frequencies --    416.4517               419.3741               450.6179
 Red. masses --      3.0189                 3.3526                 3.4729
 Frc consts  --      0.3085                 0.3474                 0.4155
 IR Inten    --      0.5840                 2.2723                 2.6717

                     22                     23                     24
                      A                      A                      A
 Frequencies --    463.4527               480.2084               509.0390
 Red. masses --      2.4931                 3.3805                 2.6407
 Frc consts  --      0.3155                 0.4593                 0.4032
 IR Inten    --      7.9597                 7.3413                 7.0524

                     25                     26                     27
                      A                      A                      A
 Frequencies --    522.0819               583.7436               610.9444
 Red. masses --      2.9534                 3.0795                 4.8172
 Frc consts  --      0.4743                 0.6183                 1.0594
 IR Inten    --      2.1680                 3.3374                 9.8435

                     28                     29                     30
                      A                      A                      A
 Frequencies --    636.1517               638.9593               665.9618
 Red. masses --      6.3566                 3.3666                 2.4483
 Frc consts  --      1.5156                 0.8098                 0.6398
 IR Inten    --      0.0903                 1.0345                14.6729

                     31                     32                     33
                      A                      A                      A
 Frequencies --    713.4920               749.3163               770.0016
 Red. masses --      2.3931                 1.4987                 1.8239
 Frc consts  --      0.7178                 0.4958                 0.6371
 IR Inten    --     14.8367                37.1571                 3.5973

                     34                     35                     36
                      A                      A                      A
 Frequencies --    806.6471               823.9290               828.1609
 Red. masses --      3.6576                 3.9611                 3.4576
 Frc consts  --      1.4022                 1.5843                 1.3972
 IR Inten    --      4.9557                 3.9920                10.1035

                     37                     38                     39
                      A                      A                      A
 Frequencies --    864.8899               870.4413               899.2850
 Red. masses --      1.2546                 2.2767                 1.7395
 Frc consts  --      0.5529                 1.0163                 0.8288
 IR Inten    --      1.1124                10.5180                 2.3307

                     40                     41                     42
                      A                      A                      A
 Frequencies --    909.8713               925.7162               939.1650
 Red. masses --      2.1344                 1.6676                 2.2249
 Frc consts  --      1.0411                 0.8420                 1.1562
 IR Inten    --      3.5598                12.9910                 2.7041

                     43                     44                     45
                      A                      A                      A
 Frequencies --    954.8625               966.4852               970.8921
 Red. masses --      2.0605                 1.9159                 1.3452
 Frc consts  --      1.1069                 1.0544                 0.7471
 IR Inten    --      5.5273                 1.0147                 0.4507

                     46                     47                     48
                      A                      A                      A
 Frequencies --    993.3882               996.4614              1019.2607
 Red. masses --      1.9999                 1.2855                 3.3712
 Frc consts  --      1.1628                 0.7521                 2.0635
 IR Inten    --      4.7010                 1.8958                24.1818

                     49                     50                     51
                      A                      A                      A
 Frequencies --   1023.2056              1044.8589              1055.7966
 Red. masses --      3.9982                 2.4279                 2.1655
 Frc consts  --      2.4663                 1.5617                 1.4222
 IR Inten    --     10.2582                 4.6062                23.0605

                     52                     53                     54
                      A                      A                      A
 Frequencies --   1059.9795              1088.1801              1098.3662
 Red. masses --      2.1492                 1.9388                 2.9097
 Frc consts  --      1.4228                 1.3527                 2.0682
 IR Inten    --      1.1171                 4.7713                56.2282

                     55                     56                     57
                      A                      A                      A
 Frequencies --   1116.1763              1116.9564              1131.1510
 Red. masses --      2.7648                 1.5762                 3.4265
 Frc consts  --      2.0294                 1.1586                 2.5831
 IR Inten    --     10.5393                 1.2928               195.2012

                     58                     59                     60
                      A                      A                      A
 Frequencies --   1142.8013              1176.3703              1193.0675
 Red. masses --      1.6114                 2.0722                 1.1017
 Frc consts  --      1.2400                 1.6895                 0.9240
 IR Inten    --     48.9010                58.4648                 0.2345

                     61                     62                     63
                      A                      A                      A
 Frequencies --   1202.0201              1209.9321              1226.7550
 Red. masses --      1.8842                 1.1455                 1.4628
 Frc consts  --      1.6040                 0.9880                 1.2971
 IR Inten    --     39.6982                 2.3898                88.5670

                     64                     65                     66
                      A                      A                      A
 Frequencies --   1231.7071              1263.1988              1271.3355
 Red. masses --      2.6191                 1.6276                 1.5639
 Frc consts  --      2.3410                 1.5301                 1.4893
 IR Inten    --      1.2426                84.2337                61.2392

                     67                     68                     69
                      A                      A                      A
 Frequencies --   1292.6706              1313.5459              1320.5943
 Red. masses --      1.3583                 1.3326                 1.2577
 Frc consts  --      1.3373                 1.3547                 1.2923
 IR Inten    --     46.3610                18.5601                 0.4568

                     70                     71                     72
                      A                      A                      A
 Frequencies --   1337.1704              1348.5114              1366.3467
 Red. masses --      1.2233                 1.8408                 2.0098
 Frc consts  --      1.2887                 1.9723                 2.2107
 IR Inten    --     24.6012                 9.6291                 1.8816

                     73                     74                     75
                      A                      A                      A
 Frequencies --   1367.2356              1373.8167              1400.1728
 Red. masses --      1.3334                 1.3457                 1.3281
 Frc consts  --      1.4686                 1.4965                 1.5340
 IR Inten    --      1.5536                12.4185                 5.3003

                     76                     77                     78
                      A                      A                      A
 Frequencies --   1410.0739              1414.6794              1419.7381
 Red. masses --      1.3268                 1.3918                 1.3817
 Frc consts  --      1.5543                 1.6411                 1.6409
 IR Inten    --      1.6579                13.9972                11.6968

                     79                     80                     81
                      A                      A                      A
 Frequencies --   1427.5565              1429.0799              1433.4778
 Red. masses --      1.3539                 1.2934                 1.2761
 Frc consts  --      1.6256                 1.5563                 1.5449
 IR Inten    --     10.0122                13.1625                19.5050

                     82                     83                     84
                      A                      A                      A
 Frequencies --   1439.6600              1494.9967              1503.6254
 Red. masses --      1.3140                 1.0895                 2.1372
 Frc consts  --      1.6045                 1.4347                 2.8469
 IR Inten    --     13.8595                 7.1463                 8.3261

                     85                     86                     87
                      A                      A                      A
 Frequencies --   1512.4129              1514.6555              1517.4512
 Red. masses --      1.0561                 1.0801                 1.0971
 Frc consts  --      1.4233                 1.4599                 1.4884
 IR Inten    --      3.6596                 0.4903                 3.5656

                     88                     89                     90
                      A                      A                      A
 Frequencies --   1519.6463              1525.2309              1533.5841
 Red. masses --      1.0814                 1.0927                 1.0822
 Frc consts  --      1.4714                 1.4977                 1.4995
 IR Inten    --      4.0325                10.6835                 9.5555

                     91                     92                     93
                      A                      A                      A
 Frequencies --   1538.6275              1547.4309              1648.5096
 Red. masses --      1.0529                 2.1578                 5.6177
 Frc consts  --      1.4687                 3.0443                 8.9948
 IR Inten    --      5.7832                 6.9592                 0.7397

                     94                     95                     96
                      A                      A                      A
 Frequencies --   1668.0226              1815.2863              3025.9472
 Red. masses --      5.5512                10.9748                 1.0574
 Frc consts  --      9.1000                21.3077                 5.7046
 IR Inten    --      2.5196               175.2317                36.9725

                     97                     98                     99
                      A                      A                      A
 Frequencies --   3029.9585              3052.1225              3060.8373
 Red. masses --      1.0616                 1.0664                 1.0763
 Frc consts  --      5.7421                 5.8528                 5.9413
 IR Inten    --     23.7750                15.9289                45.1062

                    100                    101                    102
                      A                      A                      A
 Frequencies --   3061.2581              3063.4238              3066.0711
 Red. masses --      1.0448                 1.1018                 1.0866
 Frc consts  --      5.7686                 6.0922                 6.0183
 IR Inten    --     21.5693                20.0632                28.4806

                    103                    104                    105
                      A                      A                      A
 Frequencies --   3072.4081              3072.7288              3076.9373
 Red. masses --      1.0772                 1.0763                 1.0779
 Frc consts  --      5.9911                 5.9873                 6.0127
 IR Inten    --     24.0503                 4.1578                11.5868

                    106                    107                    108
                      A                      A                      A
 Frequencies --   3085.5124              3106.7085              3121.9854
 Red. masses --      1.0741                 1.0978                 1.0955
 Frc consts  --      6.0250                 6.2428                 6.2910
 IR Inten    --     41.9869                11.5584                13.6306

                    109                    110                    111
                      A                      A                      A
 Frequencies --   3124.7715              3125.4985              3136.7623
 Red. masses --      1.1013                 1.0974                 1.0998
 Frc consts  --      6.3355                 6.3164                 6.3756
 IR Inten    --     28.0773                27.1381                12.4815

                    112                    113                    114
                      A                      A                      A
 Frequencies --   3172.3374              3176.0891              3183.6431
 Red. masses --      1.0869                 1.0998                 1.0865
 Frc consts  --      6.4446                 6.5364                 6.4884
 IR Inten    --      8.9926                 8.6736                 0.3743

                    115                    116                    117
                      A                      A                      A
 Frequencies --   3194.0494              3206.4129              3213.8170
 Red. masses --      1.0912                 1.0944                 1.0955
 Frc consts  --      6.5591                 6.6295                 6.6664
 IR Inten    --     26.0988                30.0964                10.3593

 - Thermochemistry -
 -------------------
 Temperature   298.150 Kelvin.  Pressure   1.00000 Atm.
 Atom     1 has atomic number  6 and mass  12.00000

 Molecular mass:   262.15689 amu.
 Principal axes and moments of inertia in atomic units:
                           1         2         3
     Eigenvalues --  2519.854318489.781179708.13143
           X            0.99987   0.01569   0.00280
           Y           -0.01564   0.99968  -0.01991
           Z           -0.00312   0.01986   0.99980
 This molecule is an asymmetric top.
 Rotational symmetry number  1.
 Warning -- assumption of classical behavior for rotation
           may cause significant error
 Rotational temperatures (Kelvin)      0.03437     0.01020     0.00892
 Rotational constants (GHZ):           0.71621     0.21258     0.18590
 Zero-point vibrational energy     941250.4 (Joules/Mol)
                                  224.96424 (Kcal/Mol)
 Warning -- explicit consideration of  27 degrees of freedom as
           vibrations may cause significant error
 Vibrational temperatures:     26.74    50.12    66.33    92.80   153.23
          (Kelvin)            175.92   188.14   233.15   257.60   284.74
                              333.40   341.79   368.18   394.64   461.64
                              473.93   508.64   553.63   599.18   603.39
                              648.34   666.81   690.91   732.39   751.16
                              839.88   879.01   915.28   919.32   958.17
                             1026.56  1078.10  1107.86  1160.59  1185.45
                             1191.54  1244.38  1252.37  1293.87  1309.10
                             1331.90  1351.25  1373.83  1390.56  1396.90
                             1429.26  1433.69  1466.49  1472.16  1503.32
                             1519.06  1525.07  1565.65  1580.30  1605.93
                             1607.05  1627.47  1644.24  1692.53  1716.56
                             1729.44  1740.82  1765.03  1772.15  1817.46
                             1829.17  1859.86  1889.90  1900.04  1923.89
                             1940.21  1965.87  1967.15  1976.62  2014.54
                             2028.78  2035.41  2042.69  2053.94  2056.13
                             2062.45  2071.35  2150.97  2163.38  2176.02
                             2179.25  2183.27  2186.43  2194.47  2206.49
                             2213.74  2226.41  2371.84  2399.91  2611.79
                             4353.66  4359.43  4391.32  4403.86  4404.47
                             4407.58  4411.39  4420.51  4420.97  4427.03
                             4439.36  4469.86  4491.84  4495.85  4496.90
                             4513.10  4564.29  4569.68  4580.55  4595.52
                             4613.31  4623.97

 Zero-point correction=                           0.358503 (Hartree/Particle)
 Thermal correction to Energy=                    0.376172
 Thermal correction to Enthalpy=                  0.377116
 Thermal correction to Gibbs Free Energy=         0.311804
 Sum of electronic and zero-point Energies=           -848.343265
 Sum of electronic and thermal Energies=              -848.325596
 Sum of electronic and thermal Enthalpies=            -848.324652
 Sum of electronic and thermal Free Energies=         -848.389964

                     E (Thermal)             CV                S
                      KCal/Mol        Cal/Mol-Kelvin    Cal/Mol-Kelvin
 Total                  236.052             69.369            137.461
 Electronic               0.000              0.000              0.000
 Translational            0.889              2.981             42.591
 Rotational               0.889              2.981             33.695
 Vibrational            234.274             63.408             61.174
 Vibration     1          0.593              1.986              6.780
 Vibration     2          0.594              1.983              5.533
 Vibration     3          0.595              1.979              4.978
 Vibration     4          0.597              1.971              4.315
 Vibration     5          0.605              1.944              3.332
 Vibration     6          0.610              1.931              3.064
 Vibration     7          0.612              1.923              2.935
 Vibration     8          0.622              1.889              2.526
 Vibration     9          0.629              1.868              2.338
 Vibration    10          0.637              1.843              2.152
 Vibration    11          0.653              1.792              1.866
 Vibration    12          0.656              1.783              1.821
 Vibration    13          0.666              1.753              1.690
 Vibration    14          0.677              1.721              1.569
 Vibration    15          0.706              1.634              1.306
 Vibration    16          0.712              1.617              1.263
 Vibration    17          0.730              1.568              1.150
 Vibration    18          0.754              1.503              1.020
 Vibration    19          0.780              1.435              0.904
 Vibration    20          0.782              1.428              0.894
 Vibration    21          0.809              1.360              0.794
 Vibration    22          0.821              1.331              0.756
 Vibration    23          0.837              1.294              0.710
 Vibration    24          0.864              1.230              0.636
 Vibration    25          0.877              1.201              0.605
 Vibration    26          0.941              1.067              0.478
 Vibration    27          0.970              1.009              0.431

 Optimization completed.
    -- Stationary point found.
 Normal termination of Gaussian 16 at Thu Dec 17 20:50:42 2020.

 ----------------------------------------------------------------------
 # B3LYP/6-311++G(d,p) empiricaldispersion=gd3bj scf=xqc pop=npa geom=c
 heck
 ----------------------------------------------------------------------

 ---------------------------------------
 CID_132096985_JID_9027_Energie_neutraal
 ---------------------------------------
 Structure from the checkpoint file:  "JID_9027.chk"
 Charge =  0 Multiplicity = 1

 SCF Done:  E(RB3LYP) =  -848.935618816     A.U. after   15 cycles
 Normal termination of Gaussian 16 at Thu Dec 17 21:01:08 2020.

 ----------------------------------------------------------------------
 # B3LYP/6-311++G(d,p) empiricaldispersion=gd3bj scf=xqc pop=npa geom=c
 heck
 ----------------------------------------------------------------------

 -------------------------------------
 CID_132096985_JID_9027_Energie_kation
 -------------------------------------
 Structure from the checkpoint file:  "JID_9027.chk"
 Charge =  1 Multiplicity = 2

 SCF Done:  E(UB3LYP) =  -848.622306266     A.U. after   31 cycles
 Normal termination of Gaussian 16 at Thu Dec 17 21:30:36 2020.
 Gaussian 16:  ES64L-G16RevA.03 25-Dec-2016

 ----------------------------------------------------------------------
 # B3LYP/6-311++G(d,p) empiricaldispersion=gd3bj scf=xqc pop=npa geom=c
 heck
 ----------------------------------------------------------------------

 ------------------------------------
 CID_132096985_JID_9027_Energie_anion
 ------------------------------------
 Structure from the checkpoint file:  "JID_9027.chk"
 Charge = -1 Multiplicity = 2

                         Standard orientation:
 ---------------------------------------------------------------------
 Center     Atomic      Atomic             Coordinates (Angstroms)
 Number     Number       Type             X           Y           Z
 ---------------------------------------------------------------------
      1          6           0       -0.817065    3.056891   -0.250220
      2          6           0       -1.011763    1.636089   -0.762276
      3          6           0       -0.122646    0.594461   -0.072486
      4          6           0       -0.515591   -0.864214   -0.421099
      5          6           0       -1.474599   -1.507178    0.619257
      6          6           0       -2.758361   -2.146014    0.058255
      7          6           0       -3.768923   -1.209901   -0.630633
      8          6           0       -4.194646    0.023503    0.190154
      9          6           0       -3.052019    0.998356    0.410606
     10          8           0       -2.734199    1.479248    1.477829
     11          8           0       -2.407948    1.215668   -0.756334
     12          8           0        0.617794   -1.715523   -0.659485
     13          6           0        1.580425   -1.804682    0.381518
     14          6           0        2.740613   -0.841229    0.220327
     15          6           0        3.360169   -0.278883    1.339297
     16          6           0        4.452949    0.577075    1.191927
     17          6           0        4.932199    0.884310   -0.081494
     18          6           0        4.314478    0.329026   -1.204817
     19          6           0        3.227794   -0.530692   -1.054384
     20          1           0       -1.016019    3.117243    0.820403
     21          1           0       -1.489520    3.744579   -0.773219
     22          1           0        0.214636    3.372617   -0.443091
     23          1           0       -0.792851    1.607783   -1.834705
     24          1           0        0.895854    0.785615   -0.418713
     25          1           0       -0.128169    0.752109    1.011137
     26          1           0       -1.004521   -0.857024   -1.400444
     27          1           0       -1.736583   -0.786137    1.397563
     28          1           0       -0.919525   -2.300111    1.132379
     29          1           0       -3.264935   -2.651838    0.891593
     30          1           0       -2.481663   -2.934247   -0.654581
     31          1           0       -4.667122   -1.794120   -0.865596
     32          1           0       -3.369346   -0.859651   -1.587001
     33          1           0       -4.585178   -0.250695    1.174522
     34          1           0       -4.992944    0.550710   -0.348159
     35          1           0        1.122501   -1.671546    1.371157
     36          1           0        1.958044   -2.834840    0.343862
     37          1           0        2.980660   -0.505607    2.333356
     38          1           0        4.921826    1.011328    2.070699
     39          1           0        5.778426    1.555335   -0.199246
     40          1           0        4.681298    0.566921   -2.199740
     41          1           0        2.731874   -0.955079   -1.921843
 ---------------------------------------------------------------------

 SCF Done:  E(UB3LYP) =  -848.922921815     A.U. after   33 cycles
 SCF Done:  E(UB3LYP) =  -848.922921815     a.u. after    1 cycles

 The electronic state is 2-A.
 Alpha  occ. eigenvalues --  -19.07269 -19.03900 -19.02208 -10.21198 -10.15295
 Alpha  occ. eigenvalues --  -10.13953 -10.13945 -10.09797 -10.09249 -10.09200
 Alpha  occ. eigenvalues --  -10.09146 -10.09095 -10.08897 -10.08753 -10.08376
 Alpha  occ. eigenvalues --  -10.08273 -10.08232 -10.07963 -10.07737  -1.01532
 Alpha  occ. eigenvalues --   -0.95020  -0.93277  -0.77538  -0.72828  -0.72639
 Alpha  occ. eigenvalues --   -0.68769  -0.66473  -0.66211  -0.64177  -0.60141
 Alpha  occ. eigenvalues --   -0.59249  -0.54989  -0.53204  -0.52108  -0.50402
 Alpha  occ. eigenvalues --   -0.47708  -0.44692  -0.43252  -0.42428  -0.41472
 Alpha  occ. eigenvalues --   -0.40315  -0.38936  -0.38436  -0.37401  -0.36537
 Alpha  occ. eigenvalues --   -0.35987  -0.35520  -0.35280  -0.33850  -0.33763
 Alpha  occ. eigenvalues --   -0.33252  -0.32626  -0.31639  -0.30367  -0.29882
 Alpha  occ. eigenvalues --   -0.29392  -0.28577  -0.27858  -0.27209  -0.26889
 Alpha  occ. eigenvalues --   -0.26274  -0.25370  -0.24754  -0.24492  -0.23416
 Alpha  occ. eigenvalues --   -0.21920  -0.21672  -0.18375  -0.17738  -0.17201
 Alpha  occ. eigenvalues --   -0.16414   0.03861
 Alpha virt. eigenvalues --    0.05070   0.06044   0.06411   0.06640   0.06987
 Alpha virt. eigenvalues --    0.07017   0.07810   0.08042   0.08154   0.08807
 Alpha virt. eigenvalues --    0.09368   0.09536   0.10092   0.10477   0.10887

  Beta  occ. eigenvalues --  -19.07266 -19.03897 -19.02186 -10.21163 -10.15289
  Beta  occ. eigenvalues --  -10.13951 -10.13938 -10.09797 -10.09236 -10.09191
  Beta  occ. eigenvalues --  -10.09135 -10.09082 -10.08882 -10.08747 -10.08373
  Beta  occ. eigenvalues --  -10.08251 -10.08218 -10.07959 -10.07723  -1.01498
  Beta  occ. eigenvalues --   -0.95014  -0.93245  -0.77520  -0.72796  -0.72620
  Beta  occ. eigenvalues --   -0.68748  -0.66448  -0.66185  -0.64149  -0.60119
  Beta  occ. eigenvalues --   -0.59213  -0.54960  -0.53174  -0.52076  -0.50365
  Beta  occ. eigenvalues --   -0.47677  -0.44652  -0.43209  -0.42395  -0.41449
  Beta  occ. eigenvalues --   -0.40264  -0.38891  -0.38411  -0.37371  -0.36518
  Beta  occ. eigenvalues --   -0.35961  -0.35487  -0.35255  -0.33823  -0.33736
  Beta  occ. eigenvalues --   -0.33226  -0.32581  -0.31614  -0.30340  -0.29864
  Beta  occ. eigenvalues --   -0.29359  -0.28542  -0.27840  -0.27184  -0.26858
  Beta  occ. eigenvalues --   -0.26248  -0.25349  -0.24726  -0.24468  -0.23378
  Beta  occ. eigenvalues --   -0.21879  -0.21649  -0.18350  -0.17729  -0.17190
  Beta  occ. eigenvalues --   -0.16405
  Beta virt. eigenvalues --    0.05790   0.06209   0.06235   0.06646   0.06706
  Beta virt. eigenvalues --    0.07421   0.07559   0.08036   0.08358   0.08615
  Beta virt. eigenvalues --    0.09243   0.09643   0.09818   0.10312   0.10540

 Mulliken charges and spin densities:
               1          2
     1  C    0.164648  -0.628579
     2  C   -0.039827  -0.212536
     3  C   -0.334333   0.157796
     4  C   -0.833617   0.088267
     5  C   -0.022275   0.095802
     6  C    0.299308  -0.727384
     7  C   -0.477203   0.268490
     8  C    0.657704  -1.110053
     9  C   -0.356471   0.183398
    10  O   -0.188115   0.016972
    11  O    0.089662   0.032942
    12  O   -0.009643   0.008886
    13  C    1.276991  -2.044263
    14  C    0.518601   0.273553
    15  C   -1.366563   1.040797
    16  C   -0.081020  -0.281565
    17  C    1.519882  -1.926897
    18  C   -0.153099  -0.096048
    19  C   -0.723959   0.875467
    20  H    0.167515   0.029713
    21  H    0.018665   0.127041
    22  H   -0.105212   0.265540
    23  H   -0.136729   0.324438
    24  H    0.798010  -0.602113
    25  H    0.206030   0.018552
    26  H    0.140565   0.109296
    27  H    0.162659   0.015761
    28  H    0.181544   0.006956
    29  H   -0.144615   0.296069
    30  H    0.010770   0.151284
    31  H   -0.695431   0.899375
    32  H    0.162342  -0.008786
    33  H    0.105765   0.077267
    34  H   -0.269671   0.468709
    35  H    0.033946   0.147242
    36  H    0.110361   0.098217
    37  H   -0.073963   0.217283
    38  H   -0.552911   0.741901
    39  H   -0.488768   0.655440
    40  H   -0.540728   0.728504
    41  H   -0.030817   0.217267
 Sum of Mulliken charges =  -1.00000   1.00000

 Dipole moment (field-independent basis, Debye):
    X=             -1.1748    Y=             -1.5081    Z=              1.0276  Tot=              2.1704
 Quadrupole moment (field-independent basis, Debye-Ang):
   XX=           -245.6572   YY=           -161.0916   ZZ=           -152.9750
   XY=            -18.8680   XZ=             -1.3882   YZ=             -3.5808

 Summary of Natural Population Analysis:

                                       Natural Population
                Natural  -----------------------------------------------
    Atom  No    Charge         Core      Valence    Rydberg      Total
 -----------------------------------------------------------------------
      C    1   -0.29827      0.99964     2.29396    0.00467     3.29827
      C    2    0.06981      0.99953     1.91711    0.01354     2.93019
      C    3   -0.22232      0.99957     2.21505    0.00770     3.22232
      C    4    0.06888      0.99953     1.91796    0.01363     2.93112
      C    5   -0.21206      0.99959     2.20397    0.00850     3.21206
      C    6   -0.18689      0.99963     2.17824    0.00903     3.18689
      C    7   -0.18950      0.99962     2.18138    0.00850     3.18950
      C    8   -0.23760      0.99957     2.22892    0.00911     3.23760
      C    9    0.41624      0.99968     1.55705    0.02703     2.58376
      O   10   -0.30795      0.99987     3.30302    0.00506     4.30795
      O   11   -0.29562      0.99985     3.28620    0.00957     4.29562
      O   12   -0.30236      0.99988     3.29376    0.00872     4.30236
      C   13   -0.01889      0.99951     2.00741    0.01197     3.01889
      C   14   -0.03346      0.99949     2.02390    0.01007     3.03346
      C   15   -0.10340      0.99951     2.09397    0.00993     3.10340
      C   16   -0.09738      0.99956     2.08696    0.01086     3.09738
      C   17   -0.10255      0.99956     2.09267    0.01033     3.10255
      C   18   -0.09679      0.99956     2.08647    0.01076     3.09679
      C   19   -0.10317      0.99950     2.09340    0.01027     3.10317
      H   20    0.11189      0.00000     0.38711    0.00100     0.38811
      H   21    0.10226      0.00000     0.39681    0.00093     0.39774
      H   22    0.10377      0.00000     0.39533    0.00090     0.39623
      H   23    0.09239      0.00000     0.40627    0.00134     0.40761
      H   24    0.11709      0.00000     0.38140    0.00151     0.38291
      H   25    0.10304      0.00000     0.39569    0.00128     0.39696
      H   26    0.09320      0.00000     0.40470    0.00210     0.40680
      H   27    0.10290      0.00000     0.39562    0.00147     0.39710
      H   28    0.10520      0.00000     0.39375    0.00105     0.39480
      H   29    0.09618      0.00000     0.40281    0.00101     0.40382
      H   30    0.09881      0.00000     0.40006    0.00113     0.40119
      H   31    0.10360      0.00000     0.39423    0.00217     0.39640
      H   32    0.10138      0.00000     0.39721    0.00140     0.39862
      H   33    0.10680      0.00000     0.39222    0.00097     0.39320
      H   34    0.11685      0.00000     0.38145    0.00170     0.38315
      H   35    0.08512      0.00000     0.41300    0.00188     0.41488
      H   36    0.09546      0.00000     0.40355    0.00098     0.40454
      H   37    0.09982      0.00000     0.39915    0.00103     0.40018
      H   38    0.10275      0.00000     0.39595    0.00130     0.39725
      H   39    0.10401      0.00000     0.39405    0.00194     0.39599
      H   40    0.10264      0.00000     0.39611    0.00125     0.39736
      H   41    0.10812      0.00000     0.39061    0.00127     0.39188
 =======================================================================
   * Total *   -0.00000     18.99267    51.77847    0.22886    71.00000

 Normal termination of Gaussian 16 at Thu Dec 17 22:03:02 2020.
