 Gaussian 16, Revision A.03,

 -----------------------------------------------------------
 # opt freq B3LYP/6-31G(d) empiricaldispersion=gd3bj scf=xqc
 -----------------------------------------------------------

 -------------------------------
 CID_123975088_JID_3321_neutraal
 -------------------------------
 Symbolic Z-matrix:
 Charge =  0 Multiplicity = 1

 SCF Done:  E(RB3LYP) =  -558.229660335     A.U. after   14 cycles
 SCF Done:  E(RB3LYP) =  -558.232036847     A.U. after   12 cycles
 SCF Done:  E(RB3LYP) =  -558.232306743     A.U. after   11 cycles
 SCF Done:  E(RB3LYP) =  -558.232420378     A.U. after   11 cycles
 SCF Done:  E(RB3LYP) =  -558.232586819     A.U. after   12 cycles
 SCF Done:  E(RB3LYP) =  -558.232621724     A.U. after   11 cycles
 SCF Done:  E(RB3LYP) =  -558.232746060     A.U. after   10 cycles
 SCF Done:  E(RB3LYP) =  -558.234253164     A.U. after   15 cycles
 SCF Done:  E(RB3LYP) =  -558.235125541     A.U. after   12 cycles
 SCF Done:  E(RB3LYP) =  -558.237191487     A.U. after   12 cycles
 SCF Done:  E(RB3LYP) =  -558.238703696     A.U. after   12 cycles
 SCF Done:  E(RB3LYP) =  -558.238823687     A.U. after   11 cycles
 SCF Done:  E(RB3LYP) =  -558.238841391     A.U. after    9 cycles
 SCF Done:  E(RB3LYP) =  -558.238843503     A.U. after    8 cycles
 SCF Done:  E(RB3LYP) =  -558.238843835     A.U. after    7 cycles
 Optimization completed.
    -- Stationary point found.
 Normal termination of Gaussian 16 at Wed Dec  9 22:57:47 2020.

 --------------------------------------------------------------------
 #N Geom=AllCheck Guess=TCheck SCRF=Check GenChk RB3LYP/6-31G(d) Freq
 --------------------------------------------------------------------

 Structure from the checkpoint file:  "JID_3321.chk"
 -------------------------------
 CID_123975088_JID_3321_neutraal
 -------------------------------
 Charge =  0 Multiplicity = 1

 SCF Done:  E(RB3LYP) =  -558.238843835     A.U. after    1 cycles

  Exact polarizability: 154.111  -0.658 129.831   2.183   0.893  76.757
 Approx polarizability: 211.983   6.476 206.066   6.307   4.192 117.533

                      1                      2                      3
                      A                      A                      A
 Frequencies --     65.1021                84.4888               129.0999
 Red. masses --      3.0647                 2.7660                 3.3240
 Frc consts  --      0.0077                 0.0116                 0.0326
 IR Inten    --      1.3277                 0.6911                 0.7969

                      4                      5                      6
                      A                      A                      A
 Frequencies --    179.3940               197.9848               230.9823
 Red. masses --      2.4337                 3.3329                 1.3942
 Frc consts  --      0.0461                 0.0770                 0.0438
 IR Inten    --      3.6809                 1.8290                 0.2758

                      7                      8                      9
                      A                      A                      A
 Frequencies --    254.6604               261.9171               286.4764
 Red. masses --      1.2018                 2.2883                 2.1446
 Frc consts  --      0.0459                 0.0925                 0.1037
 IR Inten    --      0.4371                 0.3598                 2.5825

                     10                     11                     12
                      A                      A                      A
 Frequencies --    333.0069               345.8184               364.9170
 Red. masses --      3.5489                 2.3887                 2.9107
 Frc consts  --      0.2319                 0.1683                 0.2284
 IR Inten    --      1.2193                 0.7633                 1.2289

                     13                     14                     15
                      A                      A                      A
 Frequencies --    451.2495               479.6980               516.2637
 Red. masses --      2.9506                 4.1338                 3.9485
 Frc consts  --      0.3540                 0.5604                 0.6200
 IR Inten    --      1.6261                 0.1936                 0.9324

                     16                     17                     18
                      A                      A                      A
 Frequencies --    531.0603               566.8008               637.6274
 Red. masses --      3.6406                 4.1975                 2.4429
 Frc consts  --      0.6049                 0.7945                 0.5852
 IR Inten    --      2.5224                 1.7737                 1.2889

                     19                     20                     21
                      A                      A                      A
 Frequencies --    657.9746               696.2028               780.5554
 Red. masses --      4.5624                 3.7580                 3.6297
 Frc consts  --      1.1638                 1.0732                 1.3029
 IR Inten    --      3.1691                 3.5348                 0.7238

                     22                     23                     24
                      A                      A                      A
 Frequencies --    822.6614               826.2566               849.0861
 Red. masses --      1.9582                 2.4772                 2.7401
 Frc consts  --      0.7808                 0.9964                 1.1639
 IR Inten    --     16.6410                15.4069                 3.6787

                     25                     26                     27
                      A                      A                      A
 Frequencies --    877.2463               895.0806               915.4534
 Red. masses --      1.6876                 2.5399                 2.3770
 Frc consts  --      0.7652                 1.1989                 1.1737
 IR Inten    --      2.1640                10.3721                 7.3006

                     28                     29                     30
                      A                      A                      A
 Frequencies --    961.4916               994.1459              1007.1540
 Red. masses --      1.3477                 1.8107                 1.7490
 Frc consts  --      0.7340                 1.0544                 1.0453
 IR Inten    --      0.0850                 1.9614                 0.1330

                     31                     32                     33
                      A                      A                      A
 Frequencies --   1040.8629              1066.5385              1110.9360
 Red. masses --      2.0951                 1.9540                 2.9206
 Frc consts  --      1.3373                 1.3096                 2.1238
 IR Inten    --      3.5194                23.4422                66.0782

                     34                     35                     36
                      A                      A                      A
 Frequencies --   1132.7522              1137.8141              1159.3092
 Red. masses --      1.7897                 1.6709                 2.3742
 Frc consts  --      1.3530                 1.2745                 1.8801
 IR Inten    --      2.6876                 7.3175                46.8599

                     37                     38                     39
                      A                      A                      A
 Frequencies --   1185.8633              1196.8498              1217.6797
 Red. masses --      1.2743                 1.5669                 1.7394
 Frc consts  --      1.0558                 1.3224                 1.5196
 IR Inten    --      0.8097                 6.7244                 5.7574

                     40                     41                     42
                      A                      A                      A
 Frequencies --   1219.7060              1226.4389              1266.8570
 Red. masses --      1.5284                 1.6342                 1.7780
 Frc consts  --      1.3397                 1.4483                 1.6813
 IR Inten    --      0.1542                 6.8422                 1.4349

                     43                     44                     45
                      A                      A                      A
 Frequencies --   1301.2521              1313.1406              1340.9252
 Red. masses --      1.3788                 2.7334                 2.9574
 Frc consts  --      1.3755                 2.7770                 3.1331
 IR Inten    --     22.5498                57.2502                84.9486

                     46                     47                     48
                      A                      A                      A
 Frequencies --   1358.1709              1376.4712              1387.8860
 Red. masses --      1.3727                 1.8648                 1.5769
 Frc consts  --      1.4918                 2.0817                 1.7896
 IR Inten    --      1.8404                22.8259                15.4823

                     49                     50                     51
                      A                      A                      A
 Frequencies --   1393.4576              1407.7977              1428.3021
 Red. masses --      1.5600                 1.4902                 1.2503
 Frc consts  --      1.7847                 1.7401                 1.5028
 IR Inten    --      9.3798                 2.6457                 5.2426

                     52                     53                     54
                      A                      A                      A
 Frequencies --   1471.0470              1493.0868              1510.1311
 Red. masses --      2.9658                 1.3859                 1.1693
 Frc consts  --      3.7813                 1.8203                 1.5711
 IR Inten    --     15.5752                43.6523                 7.1128

                     55                     56                     57
                      A                      A                      A
 Frequencies --   1515.8383              1521.4151              1523.9874
 Red. masses --      1.0896                 1.0495                 1.4948
 Frc consts  --      1.4751                 1.4313                 2.0455
 IR Inten    --      6.0453                 6.0756                42.3806

                     58                     59                     60
                      A                      A                      A
 Frequencies --   1526.3843              1530.4416              1535.9523
 Red. masses --      1.1786                 1.1134                 1.1258
 Frc consts  --      1.6179                 1.5365                 1.5648
 IR Inten    --      4.4450                 6.0258                 9.9579

                     61                     62                     63
                      A                      A                      A
 Frequencies --   1542.1667              1631.5941              1637.8501
 Red. masses --      1.0786                 6.1493                 7.3492
 Frc consts  --      1.5114                 9.6449                11.6155
 IR Inten    --      7.9114               148.3358                71.8306

                     64                     65                     66
                      A                      A                      A
 Frequencies --   3019.7608              3029.9187              3034.3117
 Red. masses --      1.0721                 1.0662                 1.0341
 Frc consts  --      5.7602                 5.7668                 5.6095
 IR Inten    --     17.9671                25.0019                53.8615

                     67                     68                     69
                      A                      A                      A
 Frequencies --   3046.5314              3050.9614              3052.1941
 Red. masses --      1.0524                 1.0482                 1.0810
 Frc consts  --      5.7551                 5.7489                 5.9331
 IR Inten    --      8.3550                43.9875                20.2962

                     70                     71                     72
                      A                      A                      A
 Frequencies --   3077.5573              3082.9710              3090.2898
 Red. masses --      1.0973                 1.0896                 1.1033
 Frc consts  --      6.1234                 6.1020                 6.2080
 IR Inten    --     58.5324                34.2282                46.3906

                     73                     74                     75
                      A                      A                      A
 Frequencies --   3096.4937              3114.2444              3139.2898
 Red. masses --      1.1070                 1.1019                 1.1010
 Frc consts  --      6.2535                 6.2962                 6.3931
 IR Inten    --     38.0370                48.6147                17.6092

                     76                     77                     78
                      A                      A                      A
 Frequencies --   3162.8902              3164.0520              3234.1492
 Red. masses --      1.0912                 1.0992                 1.0919
 Frc consts  --      6.4317                 6.4837                 6.7288
 IR Inten    --     46.5845                10.8606                12.5650

 - Thermochemistry -
 -------------------
 Temperature   298.150 Kelvin.  Pressure   1.00000 Atm.
 Atom     1 has atomic number  6 and mass  12.00000

 Molecular mass:   177.11536 amu.
 Principal axes and moments of inertia in atomic units:
                           1         2         3
     Eigenvalues --  1314.570942848.100603905.67112
           X            0.99997  -0.00683  -0.00298
           Y            0.00680   0.99995  -0.00757
           Z            0.00303   0.00755   0.99997
 This molecule is an asymmetric top.
 Rotational symmetry number  1.
 Warning -- assumption of classical behavior for rotation
           may cause significant error
 Rotational temperatures (Kelvin)      0.06589     0.03041     0.02218
 Rotational constants (GHZ):           1.37287     0.63366     0.46208
 Zero-point vibrational energy     641822.7 (Joules/Mol)
                                  153.39931 (Kcal/Mol)
 Warning -- explicit consideration of  17 degrees of freedom as
           vibrations may cause significant error
 Vibrational temperatures:     93.67   121.56   185.75   258.11   284.86
          (Kelvin)            332.33   366.40   376.84   412.18   479.12
                              497.56   525.03   649.25   690.18   742.79
                              764.08   815.50   917.40   946.68  1001.68
                             1123.05  1183.63  1188.80  1221.65  1262.16
                             1287.82  1317.13  1383.37  1430.35  1449.07
                             1497.57  1534.51  1598.39  1629.78  1637.06
                             1667.99  1706.19  1722.00  1751.97  1754.88
                             1764.57  1822.72  1872.21  1889.32  1929.29
                             1954.10  1980.44  1996.86  2004.87  2025.51
                             2055.01  2116.51  2148.22  2172.74  2180.95
                             2188.98  2192.68  2196.13  2201.96  2209.89
                             2218.83  2347.50  2356.50  4344.76  4359.38
                             4365.70  4383.28  4389.65  4391.43  4427.92
                             4435.71  4446.24  4455.16  4480.70  4516.74
                             4550.69  4552.37  4653.22

 Zero-point correction=                           0.244457 (Hartree/Particle)
 Thermal correction to Energy=                    0.256114
 Thermal correction to Enthalpy=                  0.257058
 Thermal correction to Gibbs Free Energy=         0.207202
 Sum of electronic and zero-point Energies=           -557.994386
 Sum of electronic and thermal Energies=              -557.982730
 Sum of electronic and thermal Enthalpies=            -557.981786
 Sum of electronic and thermal Free Energies=         -558.031642

                     E (Thermal)             CV                S
                      KCal/Mol        Cal/Mol-Kelvin    Cal/Mol-Kelvin
 Total                  160.714             45.965            104.931
 Electronic               0.000              0.000              0.000
 Translational            0.889              2.981             41.422
 Rotational               0.889              2.981             31.059
 Vibrational            158.936             40.003             32.450
 Vibration     1          0.597              1.971              4.296
 Vibration     2          0.601              1.960              3.784
 Vibration     3          0.612              1.924              2.959
 Vibration     4          0.629              1.868              2.335
 Vibration     5          0.637              1.843              2.152
 Vibration     6          0.653              1.794              1.871
 Vibration     7          0.665              1.755              1.698
 Vibration     8          0.669              1.743              1.649
 Vibration     9          0.684              1.699              1.495
 Vibration    10          0.715              1.610              1.245
 Vibration    11          0.724              1.584              1.185
 Vibration    12          0.738              1.544              1.101
 Vibration    13          0.810              1.358              0.792
 Vibration    14          0.836              1.295              0.711
 Vibration    15          0.871              1.214              0.619
 Vibration    16          0.886              1.181              0.585
 Vibration    17          0.923              1.103              0.510

                           ! Non-Optimized Parameters !
 Normal termination of Gaussian 16 at Wed Dec  9 23:05:17 2020.

 ----------------------------------------------------------------------
 # B3LYP/6-311++G(d,p) empiricaldispersion=gd3bj scf=xqc pop=npa geom=c
 heck
 ----------------------------------------------------------------------

 ---------------------------------------
 CID_123975088_JID_3321_Energie_neutraal
 ---------------------------------------
 Structure from the checkpoint file:  "JID_3321.chk"
 Charge =  0 Multiplicity = 1

 SCF Done:  E(RB3LYP) =  -558.385883920     A.U. after   14 cycles
 Normal termination of Gaussian 16 at Wed Dec  9 23:07:58 2020.

 ----------------------------------------------------------------------
 # B3LYP/6-311++G(d,p) empiricaldispersion=gd3bj scf=xqc pop=npa geom=c
 heck
 ----------------------------------------------------------------------

 -------------------------------------
 CID_123975088_JID_3321_Energie_kation
 -------------------------------------
 Structure from the checkpoint file:  "JID_3321.chk"
 Charge =  1 Multiplicity = 2

 SCF Done:  E(UB3LYP) =  -558.075694603     A.U. after   28 cycles
 Normal termination of Gaussian 16 at Wed Dec  9 23:15:04 2020.
 Gaussian 16:  ES64L-G16RevA.03 25-Dec-2016

 ----------------------------------------------------------------------
 # B3LYP/6-311++G(d,p) empiricaldispersion=gd3bj scf=xqc pop=npa geom=c
 heck
 ----------------------------------------------------------------------

 ------------------------------------
 CID_123975088_JID_3321_Energie_anion
 ------------------------------------
 Structure from the checkpoint file:  "JID_3321.chk"
 Charge = -1 Multiplicity = 2

                         Standard orientation:
 ---------------------------------------------------------------------
 Center     Atomic      Atomic             Coordinates (Angstroms)
 Number     Number       Type             X           Y           Z
 ---------------------------------------------------------------------
      1          6           0        2.917961    0.941202   -0.968129
      2          6           0        2.224398    0.465753    0.321666
      3          6           0        2.548491   -0.999030    0.659012
      4          6           0        1.740274   -1.964014   -0.212066
      5          6           0        0.241496   -1.794713    0.051939
      6          6           0       -0.182916   -0.343263    0.088715
      7          6           0       -1.549632   -0.010376    0.005154
      8          6           0       -1.939870    1.328227    0.038847
      9          6           0       -0.935336    2.288931    0.166692
     10          7           0        0.361417    2.008112    0.260697
     11          6           0        0.727735    0.709773    0.224867
     12          8           0       -2.408191   -1.059672   -0.104504
     13          6           0       -3.796422   -0.779357   -0.208457
     14          1           0        4.007355    0.868854   -0.869095
     15          1           0        2.652504    1.982258   -1.171911
     16          1           0        2.613643    0.339710   -1.832218
     17          1           0        2.586504    1.106821    1.135070
     18          1           0        2.311138   -1.191362    1.714655
     19          1           0        3.624645   -1.173744    0.539861
     20          1           0        1.951276   -1.771436   -1.271606
     21          1           0        2.034853   -3.001711   -0.017576
     22          1           0       -0.349010   -2.327375   -0.701630
     23          1           0       -0.019631   -2.263865    1.012361
     24          1           0       -2.977567    1.631082   -0.026392
     25          1           0       -1.203493    3.344164    0.199154
     26          1           0       -4.165585   -0.255490    0.682082
     27          1           0       -4.016814   -0.178009   -1.099281
     28          1           0       -4.291275   -1.748098   -0.291756
 ---------------------------------------------------------------------

 SCF Done:  E(UB3LYP) =  -558.371398901     A.U. after   33 cycles
 SCF Done:  E(UB3LYP) =  -558.371398901     a.u. after    1 cycles

 The electronic state is 2-A.
 Alpha  occ. eigenvalues --  -19.06112 -14.19939 -10.14521 -10.11766 -10.10793
 Alpha  occ. eigenvalues --  -10.10482 -10.08224 -10.08035 -10.07457 -10.07337
 Alpha  occ. eigenvalues --  -10.07095 -10.07071 -10.06477  -0.97746  -0.84112
 Alpha  occ. eigenvalues --   -0.73850  -0.70787  -0.65892  -0.65586  -0.61139
 Alpha  occ. eigenvalues --   -0.58709  -0.53464  -0.52666  -0.49507  -0.45328
 Alpha  occ. eigenvalues --   -0.42765  -0.41727  -0.38120  -0.37091  -0.36086
 Alpha  occ. eigenvalues --   -0.35408  -0.34115  -0.32812  -0.32560  -0.31753
 Alpha  occ. eigenvalues --   -0.30474  -0.30105  -0.27738  -0.26959  -0.26199
 Alpha  occ. eigenvalues --   -0.24621  -0.24235  -0.23050  -0.22332  -0.21832
 Alpha  occ. eigenvalues --   -0.15793  -0.15341  -0.14342   0.04460
 Alpha virt. eigenvalues --    0.06031   0.07291   0.07833   0.08120   0.08393
 Alpha virt. eigenvalues --    0.08851   0.09056   0.09942   0.09992   0.10866
 Alpha virt. eigenvalues --    0.11186   0.11279   0.12524   0.12924   0.13677

  Beta  occ. eigenvalues --  -19.06100 -14.19934 -10.14516 -10.11695 -10.10790
  Beta  occ. eigenvalues --  -10.10473 -10.08225 -10.08033 -10.07437 -10.07327
  Beta  occ. eigenvalues --  -10.07081 -10.07055 -10.06464  -0.97721  -0.84099
  Beta  occ. eigenvalues --   -0.73832  -0.70766  -0.65868  -0.65559  -0.61056
  Beta  occ. eigenvalues --   -0.58681  -0.53432  -0.52628  -0.49461  -0.45275
  Beta  occ. eigenvalues --   -0.42733  -0.41689  -0.38093  -0.37049  -0.36043
  Beta  occ. eigenvalues --   -0.35379  -0.34080  -0.32777  -0.32520  -0.31727
  Beta  occ. eigenvalues --   -0.30443  -0.30081  -0.27710  -0.26933  -0.26174
  Beta  occ. eigenvalues --   -0.24582  -0.24185  -0.23028  -0.22306  -0.21807
  Beta  occ. eigenvalues --   -0.15780  -0.15320  -0.14316
  Beta virt. eigenvalues --    0.06429   0.07439   0.07680   0.08038   0.08414
  Beta virt. eigenvalues --    0.08632   0.09159   0.09494   0.10553   0.10693
  Beta virt. eigenvalues --    0.11190   0.11510   0.11649   0.12887   0.13289

 Mulliken charges and spin densities:
               1          2
     1  C    0.034847  -0.713162
     2  C   -0.245638   0.468929
     3  C   -0.163987  -0.240327
     4  C    0.055603  -0.325553
     5  C    0.415177  -0.970840
     6  C   -0.029311   0.412554
     7  C    0.077233   0.230543
     8  C   -0.005082  -0.106777
     9  C    0.914243  -1.022999
    10  N    0.004563   0.038928
    11  C   -0.966318   0.025175
    12  O   -0.233828   0.101493
    13  C    1.646833  -1.895884
    14  H   -0.049920   0.181962
    15  H    0.142294   0.010022
    16  H    0.051384   0.077362
    17  H    0.117200   0.099100
    18  H   -0.035169   0.158981
    19  H   -0.177491   0.354541
    20  H    0.067093   0.056205
    21  H   -0.298104   0.472172
    22  H    0.079204   0.104678
    23  H    0.065870   0.142039
    24  H   -0.467744   0.668348
    25  H   -0.113599   0.295601
    26  H   -0.536340   0.695291
    27  H   -0.504931   0.661297
    28  H   -0.844081   1.020321
 Sum of Mulliken charges =  -1.00000   1.00000

 Dipole moment (field-independent basis, Debye):
    X=              6.8869    Y=              1.3920    Z=              0.1806  Tot=              7.0284
 Quadrupole moment (field-independent basis, Debye-Ang):
   XX=           -169.7536   YY=           -124.1170   ZZ=           -106.0032
   XY=             -1.7046   XZ=             -3.0050   YZ=              0.3884

 Summary of Natural Population Analysis:

                                       Natural Population
                Natural  -----------------------------------------------
    Atom  No    Charge         Core      Valence    Rydberg      Total
 -----------------------------------------------------------------------
      C    1   -0.28036      0.99964     2.27613    0.00458     3.28036
      C    2   -0.12451      0.99957     2.11295    0.01199     3.12451
      C    3   -0.18844      0.99962     2.17922    0.00961     3.18844
      C    4   -0.19009      0.99963     2.18161    0.00886     3.19009
      C    5   -0.20906      0.99963     2.19647    0.01296     3.20906
      C    6    0.00067      0.99943     1.99447    0.00544     2.99933
      C    7    0.16705      0.99939     1.81452    0.01905     2.83295
      C    8   -0.16573      0.99951     2.15757    0.00865     3.16573
      C    9    0.03682      0.99960     1.94870    0.01489     2.96318
      N   10   -0.25471      0.99968     2.74433    0.01069     3.75471
      C   11    0.09788      0.99952     1.88518    0.01741     2.90212
      O   12   -0.26879      0.99986     3.25864    0.01028     4.26879
      C   13   -0.10036      0.99960     2.09175    0.00902     3.10036
      H   14    0.09496      0.00000     0.40403    0.00101     0.40504
      H   15    0.10667      0.00000     0.39221    0.00112     0.39333
      H   16    0.09561      0.00000     0.40328    0.00111     0.40439
      H   17    0.10414      0.00000     0.39396    0.00191     0.39586
      H   18    0.09660      0.00000     0.40216    0.00124     0.40340
      H   19    0.09879      0.00000     0.40013    0.00108     0.40121
      H   20    0.09378      0.00000     0.40490    0.00132     0.40622
      H   21    0.10035      0.00000     0.39841    0.00124     0.39965
      H   22    0.11035      0.00000     0.38807    0.00157     0.38965
      H   23    0.10368      0.00000     0.39483    0.00149     0.39632
      H   24    0.11269      0.00000     0.38541    0.00190     0.38731
      H   25    0.08829      0.00000     0.41055    0.00116     0.41171
      H   26    0.08846      0.00000     0.40811    0.00343     0.41154
      H   27    0.08779      0.00000     0.40912    0.00309     0.41221
      H   28    0.09763      0.00000     0.39988    0.00249     0.40237
 =======================================================================
   * Total *    0.00017     12.99468    34.83658    0.16857    47.99983

 Normal termination of Gaussian 16 at Wed Dec  9 23:23:21 2020.
