 Gaussian 16, Revision A.03,

 -----------------------------------------------------------
 # opt freq B3LYP/6-31G(d) empiricaldispersion=gd3bj scf=xqc
 -----------------------------------------------------------

 ------------------------------
 CID_84362549_JID_5366_neutraal
 ------------------------------
 Symbolic Z-matrix:
 Charge =  0 Multiplicity = 1

 SCF Done:  E(RB3LYP) =  -1029.00843350     A.U. after   15 cycles
 SCF Done:  E(RB3LYP) =  -1029.01478526     A.U. after   13 cycles
 SCF Done:  E(RB3LYP) =  -1029.01524080     A.U. after   13 cycles
 SCF Done:  E(RB3LYP) =  -1029.01571980     A.U. after   12 cycles
 SCF Done:  E(RB3LYP) =  -1029.01611155     A.U. after   11 cycles
 SCF Done:  E(RB3LYP) =  -1029.01681052     A.U. after   13 cycles
 SCF Done:  E(RB3LYP) =  -1029.01739623     A.U. after   15 cycles
 SCF Done:  E(RB3LYP) =  -1029.01784128     A.U. after   11 cycles
 SCF Done:  E(RB3LYP) =  -1029.01801791     A.U. after   11 cycles
 SCF Done:  E(RB3LYP) =  -1029.01806039     A.U. after   11 cycles
 SCF Done:  E(RB3LYP) =  -1029.01832830     A.U. after    9 cycles
 SCF Done:  E(RB3LYP) =  -1029.01833091     A.U. after   10 cycles
 SCF Done:  E(RB3LYP) =  -1029.01833128     A.U. after    8 cycles
 SCF Done:  E(RB3LYP) =  -1029.01833191     A.U. after    9 cycles
 SCF Done:  E(RB3LYP) =  -1029.01833218     A.U. after    8 cycles
 Optimization completed.
    -- Stationary point found.
 Normal termination of Gaussian 16 at Thu Dec 10 15:55:15 2020.

 --------------------------------------------------------------------
 #N Geom=AllCheck Guess=TCheck SCRF=Check GenChk RB3LYP/6-31G(d) Freq
 --------------------------------------------------------------------

 Structure from the checkpoint file:  "JID_5366.chk"
 ------------------------------
 CID_84362549_JID_5366_neutraal
 ------------------------------
 Charge =  0 Multiplicity = 1

 SCF Done:  E(RB3LYP) =  -1029.01833218     A.U. after    1 cycles

  Exact polarizability: 183.299  -5.154 142.090   7.532   5.873 107.689
 Approx polarizability: 253.910 -13.881 233.490  18.467  20.758 164.882

                      1                      2                      3
                      A                      A                      A
 Frequencies --     14.8501                27.2247                38.8256
 Red. masses --      3.9886                 3.2292                 2.8545
 Frc consts  --      0.0005                 0.0014                 0.0025
 IR Inten    --      0.0060                 0.5269                 0.1204

                      4                      5                      6
                      A                      A                      A
 Frequencies --     59.3091                77.4213               105.4500
 Red. masses --      3.2888                 3.9944                 4.2572
 Frc consts  --      0.0068                 0.0141                 0.0279
 IR Inten    --      1.1943                 0.9310                 0.8383

                      7                      8                      9
                      A                      A                      A
 Frequencies --    129.8876               141.4965               176.3343
 Red. masses --      4.4071                 4.7430                 3.7392
 Frc consts  --      0.0438                 0.0559                 0.0685
 IR Inten    --      2.1385                 3.5336                 0.4401

                     10                     11                     12
                      A                      A                      A
 Frequencies --    197.0304               230.5552               247.4609
 Red. masses --      3.3328                 1.3739                 1.4524
 Frc consts  --      0.0762                 0.0430                 0.0524
 IR Inten    --      3.0262                 0.1364                 1.8705

                     13                     14                     15
                      A                      A                      A
 Frequencies --    278.2340               280.8641               307.9345
 Red. masses --      1.9092                 1.4899                 1.3844
 Frc consts  --      0.0871                 0.0692                 0.0773
 IR Inten    --      2.5800                 3.0590                 6.2990

                     16                     17                     18
                      A                      A                      A
 Frequencies --    340.2603               349.6232               365.4708
 Red. masses --      3.1220                 5.3399                 2.0842
 Frc consts  --      0.2130                 0.3846                 0.1640
 IR Inten    --      2.0530                 6.7300                 3.5801

                     19                     20                     21
                      A                      A                      A
 Frequencies --    404.2719               439.1211               477.5503
 Red. masses --      4.7561                 2.2506                 3.6336
 Frc consts  --      0.4580                 0.2557                 0.4882
 IR Inten    --      2.1564                 1.0583                 4.2032

                     22                     23                     24
                      A                      A                      A
 Frequencies --    514.3090               545.7839               571.6737
 Red. masses --      3.8000                 2.2148                 3.4385
 Frc consts  --      0.5922                 0.3887                 0.6621
 IR Inten    --      2.5414                10.5615                33.2811

                     25                     26                     27
                      A                      A                      A
 Frequencies --    647.3268               650.7975               702.1635
 Red. masses --      3.0186                 2.8756                 7.2130
 Frc consts  --      0.7452                 0.7176                 2.0953
 IR Inten    --     39.3745                19.5589                 2.7777

                     28                     29                     30
                      A                      A                      A
 Frequencies --    729.5132               759.5702               801.4714
 Red. masses --      4.3169                 4.6146                 1.2730
 Frc consts  --      1.3536                 1.5686                 0.4818
 IR Inten    --     15.8021                10.0201                 3.7482

                     31                     32                     33
                      A                      A                      A
 Frequencies --    804.5601               816.5292               844.7821
 Red. masses --      2.8474                 1.5045                 4.2011
 Frc consts  --      1.0860                 0.5910                 1.7665
 IR Inten    --     15.2625                22.2943                14.0700

                     34                     35                     36
                      A                      A                      A
 Frequencies --    938.0681               949.9747               976.7617
 Red. masses --      3.3964                 2.0013                 2.2541
 Frc consts  --      1.7609                 1.0641                 1.2671
 IR Inten    --     27.8035                20.0758                 5.5530

                     37                     38                     39
                      A                      A                      A
 Frequencies --   1013.3811              1069.5665              1076.3792
 Red. masses --      2.4574                 3.2029                 1.8181
 Frc consts  --      1.4868                 2.1588                 1.2411
 IR Inten    --      3.2678                17.3771                29.4340

                     40                     41                     42
                      A                      A                      A
 Frequencies --   1083.7488              1091.3892              1101.9758
 Red. masses --      1.6622                 2.0612                 2.0894
 Frc consts  --      1.1502                 1.4465                 1.4949
 IR Inten    --      3.8305                21.4383                23.5509

                     43                     44                     45
                      A                      A                      A
 Frequencies --   1124.4379              1136.5092              1156.3509
 Red. masses --      2.0587                 1.2921                 2.2854
 Frc consts  --      1.5336                 0.9833                 1.8005
 IR Inten    --      0.3247                 5.6346                21.9392

                     46                     47                     48
                      A                      A                      A
 Frequencies --   1197.4498              1243.8977              1265.2427
 Red. masses --      1.6137                 2.3658                 1.5925
 Frc consts  --      1.3633                 2.1568                 1.5020
 IR Inten    --      7.8018                 9.0630                26.5418

                     49                     50                     51
                      A                      A                      A
 Frequencies --   1278.0936              1295.4573              1321.4790
 Red. masses --      1.2595                 1.2336                 2.1547
 Frc consts  --      1.2122                 1.2197                 2.2169
 IR Inten    --     14.7209                 9.9457                 6.7033

                     52                     53                     54
                      A                      A                      A
 Frequencies --   1352.4038              1360.2902              1367.4883
 Red. masses --      1.4290                 1.5724                 2.6192
 Frc consts  --      1.5399                 1.7143                 2.8858
 IR Inten    --     21.2367                58.2299                15.5342

                     55                     56                     57
                      A                      A                      A
 Frequencies --   1383.7917              1405.5321              1431.6951
 Red. masses --      1.4536                 2.7901                 1.2647
 Frc consts  --      1.6400                 3.2476                 1.5273
 IR Inten    --     56.0326               287.9750                 9.3246

                     58                     59                     60
                      A                      A                      A
 Frequencies --   1432.1903              1469.4472              1480.9209
 Red. masses --      1.3943                 1.1725                 2.1693
 Frc consts  --      1.6850                 1.4916                 2.8031
 IR Inten    --     10.4714                 9.2707                26.7301

                     61                     62                     63
                      A                      A                      A
 Frequencies --   1484.9880              1500.3737              1514.3239
 Red. masses --      2.6870                 1.1705                 1.0485
 Frc consts  --      3.4912                 1.5524                 1.4166
 IR Inten    --     25.7977                 1.5129                 9.9823

                     64                     65                     66
                      A                      A                      A
 Frequencies --   1520.2193              1522.2440              1525.3872
 Red. masses --      1.0773                 1.0830                 1.0488
 Frc consts  --      1.4669                 1.4786                 1.4378
 IR Inten    --      4.5472                 6.9212                14.1964

                     67                     68                     69
                      A                      A                      A
 Frequencies --   1532.7739              1534.8110              1539.0794
 Red. masses --      1.0592                 1.0840                 1.1101
 Frc consts  --      1.4662                 1.5046                 1.5493
 IR Inten    --      3.0032                13.9137                 7.1289

                     70                     71                     72
                      A                      A                      A
 Frequencies --   1542.1300              1545.8823              1572.7562
 Red. masses --      1.0789                 1.0641                 6.0875
 Frc consts  --      1.5118                 1.4982                 8.8718
 IR Inten    --     15.6941                29.5670               133.9396

                     73                     74                     75
                      A                      A                      A
 Frequencies --   1752.0212              2900.0857              2916.9713
 Red. masses --      7.8260                 1.0733                 1.0632
 Frc consts  --     14.1536                 5.3184                 5.3300
 IR Inten    --    335.9572                44.1175                70.7767

                     76                     77                     78
                      A                      A                      A
 Frequencies --   2942.7392              3051.9499              3058.6737
 Red. masses --      1.0622                 1.0368                 1.0594
 Frc consts  --      5.4193                 5.6900                 5.8394
 IR Inten    --    120.8417                28.3582                14.0718

                     79                     80                     81
                      A                      A                      A
 Frequencies --   3061.3492              3080.0194              3083.3815
 Red. masses --      1.0692                 1.0750                 1.0824
 Frc consts  --      5.9041                 6.0085                 6.0629
 IR Inten    --     17.3933                11.8399                51.9389

                     82                     83                     84
                      A                      A                      A
 Frequencies --   3096.4259              3101.6525              3118.5983
 Red. masses --      1.0701                 1.1053                 1.1011
 Frc consts  --      6.0448                 6.2647                 6.3095
 IR Inten    --     30.7086                16.0846                40.2636

                     85                     86                     87
                      A                      A                      A
 Frequencies --   3125.9848              3129.5056              3144.0730
 Red. masses --      1.1040                 1.1025                 1.1026
 Frc consts  --      6.3559                 6.3620                 6.4217
 IR Inten    --     31.7858                17.4020                27.6377

                     88                     89                     90
                      A                      A                      A
 Frequencies --   3161.9101              3241.8453              3588.2530
 Red. masses --      1.0942                 1.0939                 1.0755
 Frc consts  --      6.4454                 6.7733                 8.1589
 IR Inten    --      6.7087                 1.3327                32.0621

 - Thermochemistry -
 -------------------
 Temperature   298.150 Kelvin.  Pressure   1.00000 Atm.
 Atom     1 has atomic number  6 and mass  12.00000

 Molecular mass:   227.10923 amu.
 Principal axes and moments of inertia in atomic units:
                           1         2         3
     Eigenvalues --  1841.516037104.739557777.90306
           X            0.99994  -0.00991   0.00493
           Y            0.01010   0.99914  -0.04011
           Z           -0.00453   0.04015   0.99918
 This molecule is an asymmetric top.
 Rotational symmetry number  1.
 Warning -- assumption of classical behavior for rotation
           may cause significant error
 Rotational temperatures (Kelvin)      0.04703     0.01219     0.01114
 Rotational constants (GHZ):           0.98003     0.25402     0.23203
 Zero-point vibrational energy     711610.5 (Joules/Mol)
                                  170.07900 (Kcal/Mol)
 Warning -- explicit consideration of  24 degrees of freedom as
           vibrations may cause significant error
 Vibrational temperatures:     21.37    39.17    55.86    85.33   111.39
          (Kelvin)            151.72   186.88   203.58   253.71   283.48
                              331.72   356.04   400.32   404.10   443.05
                              489.56   503.03   525.83   581.66   631.80
                              687.09   739.98   785.26   822.51   931.36
                              936.35  1010.26  1049.61  1092.85  1153.14
                             1157.58  1174.80  1215.45  1349.67  1366.80
                             1405.34  1458.03  1538.87  1548.67  1559.27
                             1570.27  1585.50  1617.82  1635.18  1663.73
                             1722.86  1789.69  1820.40  1838.89  1863.87
                             1901.31  1945.81  1957.15  1967.51  1990.97
                             2022.25  2059.89  2060.60  2114.21  2130.71
                             2136.57  2158.70  2178.77  2187.26  2190.17
                             2194.69  2205.32  2208.25  2214.39  2218.78
                             2224.18  2262.85  2520.77  4172.58  4196.87
                             4233.95  4391.08  4400.75  4404.60  4431.46
                             4436.30  4455.07  4462.59  4486.97  4497.59
                             4502.66  4523.62  4549.28  4664.29  5162.70

 Zero-point correction=                           0.271038 (Hartree/Particle)
 Thermal correction to Energy=                    0.287561
 Thermal correction to Enthalpy=                  0.288506
 Thermal correction to Gibbs Free Energy=         0.224260
 Sum of electronic and zero-point Energies=          -1028.747294
 Sum of electronic and thermal Energies=             -1028.730771
 Sum of electronic and thermal Enthalpies=           -1028.729827
 Sum of electronic and thermal Free Energies=        -1028.794072

                     E (Thermal)             CV                S
                      KCal/Mol        Cal/Mol-Kelvin    Cal/Mol-Kelvin
 Total                  180.448             59.627            135.216
 Electronic               0.000              0.000              0.000
 Translational            0.889              2.981             42.163
 Rotational               0.889              2.981             32.987
 Vibrational            178.670             53.666             60.067
 Vibration     1          0.593              1.986              7.225
 Vibration     2          0.593              1.984              6.022
 Vibration     3          0.594              1.981              5.318
 Vibration     4          0.597              1.974              4.480
 Vibration     5          0.599              1.964              3.955
 Vibration     6          0.605              1.945              3.351
 Vibration     7          0.612              1.923              2.948
 Vibration     8          0.615              1.912              2.784
 Vibration     9          0.628              1.872              2.367
 Vibration    10          0.636              1.844              2.161
 Vibration    11          0.652              1.794              1.875
 Vibration    12          0.661              1.767              1.749
 Vibration    13          0.679              1.714              1.545
 Vibration    14          0.681              1.709              1.528
 Vibration    15          0.698              1.659              1.373
 Vibration    16          0.720              1.595              1.211
 Vibration    17          0.727              1.576              1.168
 Vibration    18          0.739              1.543              1.099
 Vibration    19          0.769              1.461              0.947
 Vibration    20          0.799              1.385              0.829
 Vibration    21          0.834              1.300              0.717
 Vibration    22          0.869              1.218              0.623
 Vibration    23          0.901              1.149              0.553
 Vibration    24          0.928              1.093              0.501

 Optimization completed.
    -- Stationary point found.
 Normal termination of Gaussian 16 at Thu Dec 10 16:04:14 2020.

 ----------------------------------------------------------------------
 # B3LYP/6-311++G(d,p) empiricaldispersion=gd3bj scf=xqc pop=npa geom=c
 heck
 ----------------------------------------------------------------------

 --------------------------------------
 CID_84362549_JID_5366_Energie_neutraal
 --------------------------------------
 Structure from the checkpoint file:  "JID_5366.chk"
 Charge =  0 Multiplicity = 1

 SCF Done:  E(RB3LYP) =  -1029.22389916     A.U. after   16 cycles
 Normal termination of Gaussian 16 at Thu Dec 10 16:09:52 2020.

 ----------------------------------------------------------------------
 # B3LYP/6-311++G(d,p) empiricaldispersion=gd3bj scf=xqc pop=npa geom=c
 heck
 ----------------------------------------------------------------------

 ------------------------------------
 CID_84362549_JID_5366_Energie_kation
 ------------------------------------
 Structure from the checkpoint file:  "JID_5366.chk"
 Charge =  1 Multiplicity = 2

 SCF Done:  E(UB3LYP) =  -1028.92380904     A.U. after   28 cycles
 Normal termination of Gaussian 16 at Thu Dec 10 16:23:08 2020.
 Gaussian 16:  ES64L-G16RevA.03 25-Dec-2016

 ----------------------------------------------------------------------
 # B3LYP/6-311++G(d,p) empiricaldispersion=gd3bj scf=xqc pop=npa geom=c
 heck
 ----------------------------------------------------------------------

 -----------------------------------
 CID_84362549_JID_5366_Energie_anion
 -----------------------------------
 Structure from the checkpoint file:  "JID_5366.chk"
 Charge = -1 Multiplicity = 2

                         Standard orientation:
 ---------------------------------------------------------------------
 Center     Atomic      Atomic             Coordinates (Angstroms)
 Number     Number       Type             X           Y           Z
 ---------------------------------------------------------------------
      1          6           0       -3.615360    1.906654   -1.434056
      2          6           0       -3.306857    1.480113    0.009926
      3          6           0       -2.687323    0.113319    0.063852
      4          6           0       -1.387324   -0.195173    0.410865
      5         16           0       -1.137785   -1.924571    0.279224
      6          6           0       -2.790788   -2.079186   -0.241357
      7          7           0       -3.459346   -0.966958   -0.317556
      8          6           0       -0.361236    0.749460    0.930824
      9          8           0       -0.674308    1.699717    1.644480
     10          7           0        0.952379    0.511965    0.613607
     11          6           0        1.472070   -0.225634   -0.542075
     12          6           0        2.826070    0.318736   -1.011860
     13          7           0        3.970916   -0.266916   -0.324532
     14          6           0        5.215991    0.140637   -0.960296
     15          6           0        3.997322    0.016519    1.103790
     16          1           0       -2.693965    1.987219   -2.022145
     17          1           0       -4.114123    2.881602   -1.449046
     18          1           0       -4.267345    1.176105   -1.923045
     19          1           0       -2.645216    2.194861    0.500279
     20          1           0       -4.240193    1.447794    0.585508
     21          1           0       -3.207901   -3.053175   -0.470753
     22          1           0        1.553407    1.231489    0.997783
     23          1           0        1.597524   -1.289433   -0.312181
     24          1           0        0.751991   -0.148044   -1.363214
     25          1           0        2.932125    0.075104   -2.074648
     26          1           0        2.814029    1.427657   -0.943643
     27          1           0        5.398965    1.231705   -0.901857
     28          1           0        6.056496   -0.369419   -0.478821
     29          1           0        5.203082   -0.145409   -2.017412
     30          1           0        4.041552    1.102193    1.330336
     31          1           0        3.114547   -0.401997    1.593451
     32          1           0        4.881002   -0.452164    1.547654
 ---------------------------------------------------------------------

 SCF Done:  E(UB3LYP) =  -1029.22664302     A.U. after   33 cycles
 SCF Done:  E(UB3LYP) =  -1029.22664302     a.u. after    1 cycles

 The electronic state is 2-A.
 Alpha  occ. eigenvalues --  -88.74096 -18.95161 -14.21874 -14.21048 -14.17748
 Alpha  occ. eigenvalues --  -10.13896 -10.10636 -10.10232 -10.09775 -10.09505
 Alpha  occ. eigenvalues --  -10.08542 -10.06924 -10.06055 -10.05093 -10.04837
 Alpha  occ. eigenvalues --   -7.82796  -5.79073  -5.78726  -5.78418  -0.90697
 Alpha  occ. eigenvalues --   -0.83969  -0.82697  -0.79759  -0.66851  -0.66598
 Alpha  occ. eigenvalues --   -0.65229  -0.61821  -0.59846  -0.55962  -0.52173
 Alpha  occ. eigenvalues --   -0.49725  -0.49319  -0.45497  -0.40861  -0.39807
 Alpha  occ. eigenvalues --   -0.38870  -0.37688  -0.36560  -0.34777  -0.33312
 Alpha  occ. eigenvalues --   -0.32717  -0.32222  -0.30534  -0.30357  -0.29661
 Alpha  occ. eigenvalues --   -0.28750  -0.28545  -0.28138  -0.27419  -0.26977
 Alpha  occ. eigenvalues --   -0.25660  -0.25249  -0.24650  -0.23051  -0.21585
 Alpha  occ. eigenvalues --   -0.15215  -0.14740  -0.14083  -0.13393  -0.12879
 Alpha  occ. eigenvalues --   -0.11419   0.04186
 Alpha virt. eigenvalues --    0.05541   0.07699   0.08126   0.08722   0.08900
 Alpha virt. eigenvalues --    0.09238   0.10451   0.11219   0.11626   0.11758
 Alpha virt. eigenvalues --    0.11940   0.12194   0.12575   0.13011   0.14015

  Beta  occ. eigenvalues --  -88.74041 -18.94978 -14.21871 -14.21025 -14.17798
  Beta  occ. eigenvalues --  -10.13748 -10.10630 -10.10228 -10.09743 -10.09482
  Beta  occ. eigenvalues --  -10.08154 -10.06759 -10.05903 -10.05077 -10.04849
  Beta  occ. eigenvalues --   -7.82745  -5.79046  -5.78703  -5.78235  -0.90375
  Beta  occ. eigenvalues --   -0.83949  -0.82436  -0.79633  -0.66631  -0.66380
  Beta  occ. eigenvalues --   -0.65177  -0.61774  -0.59470  -0.55887  -0.51912
  Beta  occ. eigenvalues --   -0.49539  -0.49126  -0.45208  -0.40657  -0.39762
  Beta  occ. eigenvalues --   -0.38742  -0.37615  -0.36437  -0.34676  -0.33160
  Beta  occ. eigenvalues --   -0.32570  -0.32043  -0.30463  -0.30226  -0.29494
  Beta  occ. eigenvalues --   -0.28574  -0.28242  -0.27827  -0.27244  -0.26824
  Beta  occ. eigenvalues --   -0.25574  -0.24870  -0.24092  -0.22976  -0.21385
  Beta  occ. eigenvalues --   -0.14682  -0.14475  -0.13809  -0.13205  -0.12557
  Beta  occ. eigenvalues --   -0.09963
  Beta virt. eigenvalues --    0.06189   0.07862   0.08231   0.08775   0.08872
  Beta virt. eigenvalues --    0.09296   0.09423   0.10574   0.11257   0.11579
  Beta virt. eigenvalues --    0.11829   0.12017   0.12193   0.12502   0.13680

 Mulliken charges and spin densities:
               1          2
     1  C   -0.585096  -0.026236
     2  C   -0.381860   0.015387
     3  C   -0.721233   0.014689
     4  C    0.982051   0.228804
     5  S   -0.363659   0.144199
     6  C    0.039301   0.270074
     7  N    0.035096  -0.036510
     8  C   -0.290925  -0.007306
     9  O   -0.363126   0.065893
    10  N   -0.079236  -0.002377
    11  C   -0.398428   0.172961
    12  C   -0.442925  -0.270210
    13  N   -0.037643   0.158714
    14  C    0.535495  -0.845259
    15  C   -0.082368  -0.345902
    16  H    0.115657  -0.003750
    17  H    0.098085   0.021697
    18  H    0.139230   0.005899
    19  H    0.188235   0.006464
    20  H    0.135989   0.005525
    21  H    0.208628  -0.018185
    22  H    0.358221  -0.033455
    23  H    0.175174  -0.003586
    24  H    0.115421   0.024696
    25  H    0.121958   0.054066
    26  H    0.087362   0.037676
    27  H   -0.143647   0.252767
    28  H   -0.254114   0.386913
    29  H   -0.199628   0.316159
    30  H    0.005174   0.092052
    31  H    0.074670   0.107317
    32  H   -0.071857   0.210822
 Sum of Mulliken charges =  -1.00000   1.00000

 Dipole moment (field-independent basis, Debye):
    X=             -0.3983    Y=             -0.6059    Z=             -1.8277  Tot=              1.9662
 Quadrupole moment (field-independent basis, Debye-Ang):
   XX=           -183.4350   YY=           -121.8029   ZZ=           -121.5654
   XY=              0.2422   XZ=              4.3522   YZ=             -3.9451

 Summary of Natural Population Analysis:

                                       Natural Population
                Natural  -----------------------------------------------
    Atom  No    Charge         Core      Valence    Rydberg      Total
 -----------------------------------------------------------------------
      C    1   -0.27924      0.99967     2.27563    0.00394     3.27924
      C    2   -0.20658      0.99960     2.19901    0.00797     3.20658
      C    3    0.11149      0.99946     1.87472    0.01433     2.88851
      C    4   -0.14146      0.99936     2.13057    0.01152     3.14146
      S    5    0.18757      4.99946     2.79256    0.02041     7.81243
      C    6    0.01511      0.99967     1.96809    0.01713     2.98489
      N    7   -0.26570      0.99967     2.75397    0.01206     3.76570
      C    8    0.34869      0.99959     1.62962    0.02210     2.65131
      O    9   -0.31338      0.99988     3.30819    0.00530     4.31338
      N   10   -0.32633      0.99967     2.81753    0.00913     3.82633
      C   11   -0.09746      0.99961     2.08797    0.00988     3.09746
      C   12   -0.08785      0.99961     2.07559    0.01265     3.08785
      N   13   -0.27797      0.99973     2.76537    0.01287     3.77797
      C   14   -0.17644      0.99965     2.16796    0.00883     3.17644
      C   15   -0.18465      0.99965     2.17558    0.00943     3.18465
      H   16    0.09354      0.00000     0.40538    0.00108     0.40646
      H   17    0.08946      0.00000     0.40950    0.00104     0.41054
      H   18    0.09927      0.00000     0.39955    0.00117     0.40073
      H   19    0.11610      0.00000     0.38277    0.00113     0.38390
      H   20    0.09799      0.00000     0.40073    0.00127     0.40201
      H   21    0.08553      0.00000     0.41310    0.00137     0.41447
      H   22    0.18658      0.00000     0.30990    0.00352     0.31342
      H   23    0.09879      0.00000     0.39939    0.00182     0.40121
      H   24    0.10237      0.00000     0.39631    0.00132     0.39763
      H   25    0.09816      0.00000     0.40074    0.00110     0.40184
      H   26    0.07927      0.00000     0.41906    0.00167     0.42073
      H   27    0.07954      0.00000     0.41877    0.00170     0.42046
      H   28    0.09595      0.00000     0.40278    0.00127     0.40405
      H   29    0.09458      0.00000     0.40418    0.00124     0.40542
      H   30    0.07780      0.00000     0.42069    0.00151     0.42220
      H   31    0.10314      0.00000     0.39529    0.00156     0.39686
      H   32    0.09612      0.00000     0.40289    0.00099     0.40388
 =======================================================================
   * Total *   -0.00000     18.99427    41.80341    0.20232    61.00000

 Normal termination of Gaussian 16 at Thu Dec 10 16:39:54 2020.
