 Gaussian 16, Revision A.03,

 -----------------------------------------------------------
 # opt freq B3LYP/6-31G(d) empiricaldispersion=gd3bj scf=xqc
 -----------------------------------------------------------

 -------------------------------
 CID_103285308_JID_6443_neutraal
 -------------------------------
 Symbolic Z-matrix:
 Charge =  0 Multiplicity = 1

 SCF Done:  E(RB3LYP) =  -1069.49811701     A.U. after   16 cycles
 SCF Done:  E(RB3LYP) =  -1069.50558772     A.U. after   13 cycles
 SCF Done:  E(RB3LYP) =  -1069.50755311     A.U. after   13 cycles
 SCF Done:  E(RB3LYP) =  -1069.50821656     A.U. after   13 cycles
 SCF Done:  E(RB3LYP) =  -1069.50877247     A.U. after   13 cycles
 SCF Done:  E(RB3LYP) =  -1069.50902872     A.U. after   13 cycles
 SCF Done:  E(RB3LYP) =  -1069.50907864     A.U. after   12 cycles
 SCF Done:  E(RB3LYP) =  -1069.50917150     A.U. after   11 cycles
 SCF Done:  E(RB3LYP) =  -1069.50919105     A.U. after   11 cycles
 SCF Done:  E(RB3LYP) =  -1069.50920267     A.U. after   10 cycles
 SCF Done:  E(RB3LYP) =  -1069.50926218     A.U. after    9 cycles
 SCF Done:  E(RB3LYP) =  -1069.50926225     A.U. after    7 cycles
 SCF Done:  E(RB3LYP) =  -1069.50926231     A.U. after    7 cycles
 SCF Done:  E(RB3LYP) =  -1069.50926233     A.U. after    7 cycles
 SCF Done:  E(RB3LYP) =  -1069.50926235     A.U. after    7 cycles
 Optimization completed.
    -- Stationary point found.
 Normal termination of Gaussian 16 at Thu Dec 10 22:57:27 2020.

 --------------------------------------------------------------------
 #N Geom=AllCheck Guess=TCheck SCRF=Check GenChk RB3LYP/6-31G(d) Freq
 --------------------------------------------------------------------

 Structure from the checkpoint file:  "JID_6443.chk"
 -------------------------------
 CID_103285308_JID_6443_neutraal
 -------------------------------
 Charge =  0 Multiplicity = 1

 SCF Done:  E(RB3LYP) =  -1069.50926235     A.U. after    1 cycles

  Exact polarizability: 182.476 -10.720 163.114  11.502   5.914 122.889
 Approx polarizability: 258.948 -25.803 263.778  29.766  24.351 199.421

                      1                      2                      3
                      A                      A                      A
 Frequencies --     21.0978                25.6418                38.3363
 Red. masses --      3.8651                 3.4463                 3.3299
 Frc consts  --      0.0010                 0.0013                 0.0029
 IR Inten    --      0.3184                 0.5594                 0.4728

                      4                      5                      6
                      A                      A                      A
 Frequencies --     46.8970                65.1944                93.2497
 Red. masses --      3.1420                 2.7409                 3.1048
 Frc consts  --      0.0041                 0.0069                 0.0159
 IR Inten    --      0.3020                 3.5367                 1.3104

                      7                      8                      9
                      A                      A                      A
 Frequencies --    102.2601               104.2186               131.3487
 Red. masses --      3.2413                 2.6822                 3.0774
 Frc consts  --      0.0200                 0.0172                 0.0313
 IR Inten    --      0.8489                 1.2959                 0.1253

                     10                     11                     12
                      A                      A                      A
 Frequencies --    185.7945               193.4519               216.0614
 Red. masses --      3.8303                 4.3469                 1.5087
 Frc consts  --      0.0779                 0.0958                 0.0415
 IR Inten    --      0.7663                11.3105                 0.2652

                     13                     14                     15
                      A                      A                      A
 Frequencies --    239.1126               261.2338               279.1774
 Red. masses --      1.1821                 1.2750                 1.9096
 Frc consts  --      0.0398                 0.0513                 0.0877
 IR Inten    --      2.4890                 1.6567                 1.2218

                     16                     17                     18
                      A                      A                      A
 Frequencies --    282.7100               307.5871               321.5939
 Red. masses --      2.2625                 4.4711                 3.2162
 Frc consts  --      0.1065                 0.2492                 0.1960
 IR Inten    --      1.7132                 2.9954                 0.8408

                     19                     20                     21
                      A                      A                      A
 Frequencies --    336.9963               358.9370               375.5176
 Red. masses --      2.2445                 3.7784                 3.7851
 Frc consts  --      0.1502                 0.2868                 0.3145
 IR Inten    --      8.5169                 9.2856                21.7638

                     22                     23                     24
                      A                      A                      A
 Frequencies --    396.2932               435.2537               475.0679
 Red. masses --      2.1449                 4.3231                 2.3837
 Frc consts  --      0.1985                 0.4825                 0.3170
 IR Inten    --      1.4858                 6.3156                 0.8231

                     25                     26                     27
                      A                      A                      A
 Frequencies --    493.0453               535.0408               548.9926
 Red. masses --      4.6678                 2.8010                 6.1443
 Frc consts  --      0.6686                 0.4724                 1.0911
 IR Inten    --     11.7033                11.5725                 6.1049

                     28                     29                     30
                      A                      A                      A
 Frequencies --    619.9774               650.0139               685.3690
 Red. masses --      4.6909                 1.8721                 7.9492
 Frc consts  --      1.0623                 0.4660                 2.2000
 IR Inten    --     22.9339                79.2704                 2.3258

                     31                     32                     33
                      A                      A                      A
 Frequencies --    716.8752               759.2930               824.5951
 Red. masses --      2.6872                 1.3598                 1.1907
 Frc consts  --      0.8137                 0.4619                 0.4770
 IR Inten    --     35.9698                 3.4454                 6.5323

                     34                     35                     36
                      A                      A                      A
 Frequencies --    831.5253               854.0034               863.1775
 Red. masses --      5.0845                 2.0167                 1.6415
 Frc consts  --      2.0713                 0.8666                 0.7206
 IR Inten    --     45.5888                 2.5422                 3.6001

                     37                     38                     39
                      A                      A                      A
 Frequencies --    891.5708               924.8690               943.4209
 Red. masses --      2.2107                 2.0268                 2.0553
 Frc consts  --      1.0353                 1.0215                 1.0778
 IR Inten    --      6.9045                 1.8784                 4.2116

                     40                     41                     42
                      A                      A                      A
 Frequencies --    951.0204               973.3471              1018.3375
 Red. masses --      1.9308                 1.7912                 3.0982
 Frc consts  --      1.0289                 0.9998                 1.8930
 IR Inten    --      4.6432                 4.5811                 6.5054

                     43                     44                     45
                      A                      A                      A
 Frequencies --   1028.8013              1036.9041              1065.2295
 Red. masses --      1.5762                 2.0127                 1.5879
 Frc consts  --      0.9829                 1.2750                 1.0616
 IR Inten    --      2.0385                 2.7476                11.1221

                     46                     47                     48
                      A                      A                      A
 Frequencies --   1081.4052              1088.0406              1102.6716
 Red. masses --      2.5234                 3.0332                 3.7326
 Frc consts  --      1.7387                 2.1156                 2.6740
 IR Inten    --      9.1996                 6.4759               118.1511

                     49                     50                     51
                      A                      A                      A
 Frequencies --   1152.0008              1169.6021              1180.9417
 Red. masses --      2.0538                 1.5918                 1.9873
 Frc consts  --      1.6059                 1.2830                 1.6329
 IR Inten    --      2.6008                 5.1262                 6.4757

                     52                     53                     54
                      A                      A                      A
 Frequencies --   1193.2629              1201.8063              1266.7046
 Red. masses --      2.0353                 2.5344                 1.4534
 Frc consts  --      1.7075                 2.1567                 1.3740
 IR Inten    --      0.9321                22.8049                 8.1543

                     55                     56                     57
                      A                      A                      A
 Frequencies --   1281.4060              1295.6003              1312.4680
 Red. masses --      1.4139                 1.2867                 1.1243
 Frc consts  --      1.3678                 1.2725                 1.1411
 IR Inten    --      2.7366                 1.1309                15.9829

                     58                     59                     60
                      A                      A                      A
 Frequencies --   1330.1714              1347.0787              1355.3666
 Red. masses --      1.2802                 1.3599                 1.6658
 Frc consts  --      1.3345                 1.4539                 1.8030
 IR Inten    --      2.1425                 1.6805                 3.2477

                     61                     62                     63
                      A                      A                      A
 Frequencies --   1372.9919              1379.6206              1381.1086
 Red. masses --      1.3070                 1.6664                 1.7450
 Frc consts  --      1.4517                 1.8688                 1.9611
 IR Inten    --      3.9512                15.7053               102.5350

                     64                     65                     66
                      A                      A                      A
 Frequencies --   1399.2644              1416.1346              1423.3549
 Red. masses --      1.3556                 1.4399                 2.3728
 Frc consts  --      1.5638                 1.7014                 2.8323
 IR Inten    --      7.6769                 0.3853                75.9573

                     67                     68                     69
                      A                      A                      A
 Frequencies --   1436.1732              1440.1872              1444.4691
 Red. masses --      1.2877                 1.2654                 1.4638
 Frc consts  --      1.5648                 1.5463                 1.7995
 IR Inten    --      0.0838                 3.8152                 2.2767

                     70                     71                     72
                      A                      A                      A
 Frequencies --   1447.3501              1451.8963              1488.9901
 Red. masses --      1.4004                 3.4681                 1.6080
 Frc consts  --      1.7284                 4.3074                 2.1004
 IR Inten    --     42.6684               156.3829                25.5802

                     73                     74                     75
                      A                      A                      A
 Frequencies --   1515.6156              1521.1681              1523.1764
 Red. masses --      1.0743                 1.0782                 1.0509
 Frc consts  --      1.4540                 1.4700                 1.4365
 IR Inten    --      2.0327                 1.7967                 8.4044

                     76                     77                     78
                      A                      A                      A
 Frequencies --   1524.7447              1527.8422              1530.4322
 Red. masses --      1.0789                 1.0588                 1.0556
 Frc consts  --      1.4778                 1.4562                 1.4567
 IR Inten    --      3.2766                 5.3674                12.3561

                     79                     80                     81
                      A                      A                      A
 Frequencies --   1531.8690              1535.0692              1540.8731
 Red. masses --      1.0473                 1.0588                 1.0685
 Frc consts  --      1.4480                 1.4700                 1.4947
 IR Inten    --      1.3754                 7.3171                 9.7605

                     82                     83                     84
                      A                      A                      A
 Frequencies --   1541.9968              1551.5942              1597.8232
 Red. masses --      1.0723                 1.0860                 3.0488
 Frc consts  --      1.5022                 1.5404                 4.5860
 IR Inten    --      7.8417                14.9029               247.7126

                     85                     86                     87
                      A                      A                      A
 Frequencies --   3000.7991              3013.6827              3025.8707
 Red. masses --      1.0704                 1.0681                 1.0697
 Frc consts  --      5.6790                 5.7156                 5.7705
 IR Inten    --     34.6956                23.3922                15.8721

                     88                     89                     90
                      A                      A                      A
 Frequencies --   3038.6103              3041.2010              3044.0439
 Red. masses --      1.0511                 1.0563                 1.0434
 Frc consts  --      5.7179                 5.7562                 5.6965
 IR Inten    --      9.3489                26.5440                 9.3132

                     91                     92                     93
                      A                      A                      A
 Frequencies --   3049.6933              3055.9904              3059.1663
 Red. masses --      1.0666                 1.0426                 1.0597
 Frc consts  --      5.8447                 5.7366                 5.8428
 IR Inten    --     64.1346                13.4564                37.2140

                     94                     95                     96
                      A                      A                      A
 Frequencies --   3065.6966              3068.2651              3095.0780
 Red. masses --      1.0871                 1.1008                 1.0952
 Frc consts  --      6.0197                 6.1056                 6.1814
 IR Inten    --     18.9575                17.4426                11.9751

                     97                     98                     99
                      A                      A                      A
 Frequencies --   3098.3461              3104.2900              3105.6032
 Red. masses --      1.0963                 1.1035                 1.1006
 Frc consts  --      6.2009                 6.2652                 6.2539
 IR Inten    --     31.9377                18.1004                29.1706

                    100                    101                    102
                      A                      A                      A
 Frequencies --   3110.7764              3113.4929              3123.9348
 Red. masses --      1.1016                 1.1017                 1.1007
 Frc consts  --      6.2807                 6.2925                 6.3290
 IR Inten    --     71.5833                45.1204                41.3592

                    103                    104                    105
                      A                      A                      A
 Frequencies --   3124.7724              3142.0575              3512.6215
 Red. masses --      1.1011                 1.1030                 1.0767
 Frc consts  --      6.3343                 6.4160                 7.8270
 IR Inten    --     26.6248                20.7955                99.4817

 - Thermochemistry -
 -------------------
 Temperature   298.150 Kelvin.  Pressure   1.00000 Atm.
 Atom     1 has atomic number  6 and mass  12.00000

 Molecular mass:   243.14053 amu.
 Principal axes and moments of inertia in atomic units:
                           1         2         3
     Eigenvalues --  2731.224916359.294668041.28709
           X            0.99945  -0.03297  -0.00247
           Y            0.03290   0.99915  -0.02491
           Z            0.00329   0.02482   0.99969
 This molecule is an asymmetric top.
 Rotational symmetry number  1.
 Warning -- assumption of classical behavior for rotation
           may cause significant error
 Rotational temperatures (Kelvin)      0.03171     0.01362     0.01077
 Rotational constants (GHZ):           0.66078     0.28380     0.22443
 Zero-point vibrational energy     845668.3 (Joules/Mol)
                                  202.11958 (Kcal/Mol)
 Warning -- explicit consideration of  28 degrees of freedom as
           vibrations may cause significant error
 Vibrational temperatures:     30.36    36.89    55.16    67.47    93.80
          (Kelvin)            134.17   147.13   149.95   188.98   267.32
                              278.33   310.86   344.03   375.86   401.67
                              406.76   442.55   462.70   484.86   516.43
                              540.29   570.18   626.23   683.52   709.38
                              769.80   789.88   892.01   935.23   986.09
                             1031.42  1092.45  1186.41  1196.38  1228.72
                             1241.92  1282.77  1330.68  1357.37  1368.31
                             1400.43  1465.16  1480.22  1491.87  1532.63
                             1555.90  1565.45  1586.50  1657.47  1682.80
                             1699.11  1716.84  1729.13  1822.51  1843.66
                             1864.08  1888.35  1913.82  1938.15  1950.07
                             1975.43  1984.97  1987.11  2013.23  2037.50
                             2047.89  2066.33  2072.11  2078.27  2082.41
                             2088.95  2142.32  2180.63  2188.62  2191.51
                             2193.77  2198.22  2201.95  2204.02  2208.62
                             2216.97  2218.59  2232.40  2298.91  4317.48
                             4336.02  4353.55  4371.88  4375.61  4379.70
                             4387.83  4396.89  4401.46  4410.85  4414.55
                             4453.13  4457.83  4466.38  4468.27  4475.71
                             4479.62  4494.65  4495.85  4520.72  5053.88

 Zero-point correction=                           0.322098 (Hartree/Particle)
 Thermal correction to Energy=                    0.340577
 Thermal correction to Enthalpy=                  0.341521
 Thermal correction to Gibbs Free Energy=         0.273191
 Sum of electronic and zero-point Energies=          -1069.187164
 Sum of electronic and thermal Energies=             -1069.168685
 Sum of electronic and thermal Enthalpies=           -1069.167741
 Sum of electronic and thermal Free Energies=        -1069.236071

                     E (Thermal)             CV                S
                      KCal/Mol        Cal/Mol-Kelvin    Cal/Mol-Kelvin
 Total                  213.715             66.998            143.813
 Electronic               0.000              0.000              0.000
 Translational            0.889              2.981             42.366
 Rotational               0.889              2.981             33.301
 Vibrational            211.938             61.036             68.145
 Vibration     1          0.593              1.985              6.528
 Vibration     2          0.593              1.985              6.141
 Vibration     3          0.594              1.982              5.343
 Vibration     4          0.595              1.979              4.944
 Vibration     5          0.597              1.971              4.293
 Vibration     6          0.602              1.954              3.591
 Vibration     7          0.604              1.947              3.411
 Vibration     8          0.605              1.946              3.374
 Vibration     9          0.612              1.922              2.926
 Vibration    10          0.632              1.859              2.269
 Vibration    11          0.635              1.849              2.194
 Vibration    12          0.645              1.817              1.992
 Vibration    13          0.657              1.781              1.809
 Vibration    14          0.669              1.744              1.654
 Vibration    15          0.679              1.712              1.539
 Vibration    16          0.682              1.706              1.517
 Vibration    17          0.697              1.659              1.375
 Vibration    18          0.707              1.632              1.302
 Vibration    19          0.718              1.602              1.226
 Vibration    20          0.734              1.557              1.127
 Vibration    21          0.746              1.522              1.057
 Vibration    22          0.763              1.478              0.976
 Vibration    23          0.796              1.393              0.842
 Vibration    24          0.832              1.305              0.723
 Vibration    25          0.849              1.265              0.676
 Vibration    26          0.890              1.173              0.576
 Vibration    27          0.904              1.142              0.546
 Vibration    28          0.980              0.990              0.417

                           ! Non-Optimized Parameters !
 Normal termination of Gaussian 16 at Thu Dec 10 23:11:04 2020.

 ----------------------------------------------------------------------
 # B3LYP/6-311++G(d,p) empiricaldispersion=gd3bj scf=xqc pop=npa geom=c
 heck
 ----------------------------------------------------------------------

 ---------------------------------------
 CID_103285308_JID_6443_Energie_neutraal
 ---------------------------------------
 Structure from the checkpoint file:  "JID_6443.chk"
 Charge =  0 Multiplicity = 1

 SCF Done:  E(RB3LYP) =  -1069.72294315     A.U. after   18 cycles
 Normal termination of Gaussian 16 at Thu Dec 10 23:18:20 2020.

 ----------------------------------------------------------------------
 # B3LYP/6-311++G(d,p) empiricaldispersion=gd3bj scf=xqc pop=npa geom=c
 heck
 ----------------------------------------------------------------------

 -------------------------------------
 CID_103285308_JID_6443_Energie_kation
 -------------------------------------
 Structure from the checkpoint file:  "JID_6443.chk"
 Charge =  1 Multiplicity = 2

 SCF Done:  E(UB3LYP) =  -1069.42982988     A.U. after   24 cycles
 Normal termination of Gaussian 16 at Thu Dec 10 23:31:25 2020.
 Gaussian 16:  ES64L-G16RevA.03 25-Dec-2016

 ----------------------------------------------------------------------
 # B3LYP/6-311++G(d,p) empiricaldispersion=gd3bj scf=xqc pop=npa geom=c
 heck
 ----------------------------------------------------------------------

 ------------------------------------
 CID_103285308_JID_6443_Energie_anion
 ------------------------------------
 Structure from the checkpoint file:  "JID_6443.chk"
 Charge = -1 Multiplicity = 2

                         Standard orientation:
 ---------------------------------------------------------------------
 Center     Atomic      Atomic             Coordinates (Angstroms)
 Number     Number       Type             X           Y           Z
 ---------------------------------------------------------------------
      1          6           0        4.144586   -1.148552    0.985458
      2          6           0        4.043102   -0.719492   -0.482174
      3          6           0        2.673462   -0.129267   -0.848022
      4          6           0        2.388596    1.267498   -0.253290
      5          6           0        3.145038    2.356303   -1.028586
      6          6           0        0.880980    1.592802   -0.224149
      7          8           0        0.256846    1.397956    1.051332
      8          6           0        0.242020    0.052206    1.541996
      9          6           0       -0.575396   -0.864560    0.683111
     10          6           0       -1.835689   -0.540415    0.173223
     11         16           0       -2.431841   -1.871358   -0.748063
     12          7           0       -0.921402   -2.815799   -0.385058
     13          7           0       -0.153623   -2.104900    0.327492
     14          7           0       -2.474175    0.638867    0.374990
     15          6           0       -3.672930    1.019522   -0.358747
     16          6           0       -4.187977    2.368495    0.128049
     17          1           0        4.018552   -0.300454    1.668744
     18          1           0        5.119849   -1.598798    1.201518
     19          1           0        3.372109   -1.889186    1.225501
     20          1           0        4.841786   -0.002403   -0.715077
     21          1           0        4.226294   -1.593624   -1.119633
     22          1           0        2.586812   -0.054280   -1.941542
     23          1           0        1.901806   -0.842587   -0.538006
     24          1           0        2.728592    1.300156    0.790284
     25          1           0        2.766482    2.435037   -2.056016
     26          1           0        3.031984    3.336606   -0.551749
     27          1           0        4.215345    2.134754   -1.089211
     28          1           0        0.715114    2.655127   -0.427533
     29          1           0        0.350756    1.015321   -0.996792
     30          1           0        1.253627   -0.353865    1.650218
     31          1           0       -0.189985    0.146493    2.544995
     32          1           0       -1.852473    1.382386    0.685315
     33          1           0       -3.471369    1.052654   -1.441423
     34          1           0       -4.431830    0.243606   -0.199050
     35          1           0       -3.441848    3.155524   -0.033741
     36          1           0       -5.093486    2.648834   -0.418017
     37          1           0       -4.423789    2.332361    1.196385
 ---------------------------------------------------------------------

 SCF Done:  E(UB3LYP) =  -1069.71552722     A.U. after   33 cycles
 SCF Done:  E(UB3LYP) =  -1069.71552722     a.u. after    1 cycles

 The electronic state is 2-A.
 Alpha  occ. eigenvalues --  -88.76549 -19.03746 -14.23707 -14.23544 -14.23423
 Alpha  occ. eigenvalues --  -10.13323 -10.13006 -10.12052 -10.11112 -10.08667
 Alpha  occ. eigenvalues --  -10.08482 -10.08034 -10.07485 -10.07369 -10.07052
 Alpha  occ. eigenvalues --  -10.06917  -7.85117  -5.81425  -5.81070  -5.80668
 Alpha  occ. eigenvalues --   -0.94468  -0.92008  -0.84891  -0.72708  -0.70237
 Alpha  occ. eigenvalues --   -0.68401  -0.67271  -0.64751  -0.61246  -0.59338
 Alpha  occ. eigenvalues --   -0.55623  -0.54598  -0.50978  -0.48996  -0.47437
 Alpha  occ. eigenvalues --   -0.46470  -0.41380  -0.39550  -0.38881  -0.38338
 Alpha  occ. eigenvalues --   -0.37864  -0.36578  -0.35875  -0.35539  -0.33246
 Alpha  occ. eigenvalues --   -0.32750  -0.32623  -0.31530  -0.29613  -0.29216
 Alpha  occ. eigenvalues --   -0.28503  -0.28273  -0.27470  -0.27144  -0.26838
 Alpha  occ. eigenvalues --   -0.26150  -0.25414  -0.23778  -0.23597  -0.23092
 Alpha  occ. eigenvalues --   -0.22528  -0.21270  -0.17371  -0.16304  -0.13918
 Alpha  occ. eigenvalues --   -0.11101   0.04175
 Alpha virt. eigenvalues --    0.05750   0.06162   0.07015   0.07647   0.08417
 Alpha virt. eigenvalues --    0.08581   0.08764   0.09430   0.09999   0.10130
 Alpha virt. eigenvalues --    0.10197   0.11048   0.11583   0.12000   0.12600

  Beta  occ. eigenvalues --  -88.76527 -19.03746 -14.23523 -14.23434 -14.23268
  Beta  occ. eigenvalues --  -10.13137 -10.13001 -10.12040 -10.11092 -10.08737
  Beta  occ. eigenvalues --  -10.08478 -10.08027 -10.07478 -10.07349 -10.07049
  Beta  occ. eigenvalues --  -10.06864  -7.85097  -5.81419  -5.81065  -5.80587
  Beta  occ. eigenvalues --   -0.94456  -0.91672  -0.84759  -0.72696  -0.70104
  Beta  occ. eigenvalues --   -0.68275  -0.67202  -0.64677  -0.61145  -0.59315
  Beta  occ. eigenvalues --   -0.55563  -0.54440  -0.50932  -0.48817  -0.47380
  Beta  occ. eigenvalues --   -0.46371  -0.41323  -0.39518  -0.38817  -0.38235
  Beta  occ. eigenvalues --   -0.37802  -0.36502  -0.35850  -0.35476  -0.33189
  Beta  occ. eigenvalues --   -0.32653  -0.32478  -0.31227  -0.29521  -0.29108
  Beta  occ. eigenvalues --   -0.28431  -0.28106  -0.27315  -0.27117  -0.26818
  Beta  occ. eigenvalues --   -0.26088  -0.25309  -0.23714  -0.23407  -0.23061
  Beta  occ. eigenvalues --   -0.21936  -0.21219  -0.17347  -0.15879  -0.13676
  Beta  occ. eigenvalues --   -0.10530
  Beta virt. eigenvalues --    0.05945   0.06821   0.07215   0.07747   0.08185
  Beta virt. eigenvalues --    0.08791   0.08830   0.09026   0.09632   0.10233
  Beta virt. eigenvalues --    0.10287   0.10392   0.11166   0.11793   0.12285

 Mulliken charges and spin densities:
               1          2
     1  C   -0.398631  -0.152729
     2  C   -0.234886  -0.174365
     3  C   -0.079225   0.023383
     4  C   -0.470368   0.875959
     5  C    0.495841  -1.281792
     6  C   -0.176288  -0.393769
     7  O   -0.034805   0.008831
     8  C   -1.084437   0.010074
     9  C   -0.477851  -0.106835
    10  C    0.425836   0.181487
    11  S   -0.173348   0.147968
    12  N   -0.077558   0.098361
    13  N    0.056347   0.074353
    14  N    0.024897   0.066864
    15  C   -0.361722   0.316944
    16  C    1.354278  -1.946813
    17  H    0.043413   0.084002
    18  H    0.022534   0.115183
    19  H    0.170386  -0.001621
    20  H    0.038770   0.056717
    21  H    0.110803   0.035950
    22  H    0.082072   0.065466
    23  H    0.222256  -0.044340
    24  H    0.176127   0.012858
    25  H   -0.025400   0.176277
    26  H   -0.091720   0.223513
    27  H   -0.081883   0.214618
    28  H   -0.162090   0.366522
    29  H    0.172394   0.003315
    30  H    0.229972  -0.028914
    31  H    0.041220   0.121409
    32  H    0.526971  -0.173102
    33  H   -0.099179   0.267917
    34  H   -0.090892   0.233108
    35  H   -0.305199   0.449636
    36  H   -0.532357   0.682165
    37  H   -0.236281   0.391400
 Sum of Mulliken charges =  -1.00000   1.00000

 Dipole moment (field-independent basis, Debye):
    X=              5.3367    Y=             -1.9715    Z=              1.3047  Tot=              5.8369
 Quadrupole moment (field-independent basis, Debye-Ang):
   XX=           -186.6644   YY=           -168.5008   ZZ=           -131.6663
   XY=             10.1562   XZ=             -1.0464   YZ=              3.1760

 Summary of Natural Population Analysis:

                                       Natural Population
                Natural  -----------------------------------------------
    Atom  No    Charge         Core      Valence    Rydberg      Total
 -----------------------------------------------------------------------
      C    1   -0.28860      0.99967     2.28436    0.00457     3.28860
      C    2   -0.19013      0.99964     2.18286    0.00763     3.19013
      C    3   -0.19703      0.99961     2.18810    0.00933     3.19703
      C    4   -0.13339      0.99960     2.12444    0.00935     3.13339
      C    5   -0.28354      0.99965     2.27799    0.00590     3.28354
      C    6   -0.00790      0.99954     1.99431    0.01406     3.00790
      O    7   -0.30744      0.99990     3.29884    0.00870     4.30744
      C    8   -0.02382      0.99953     2.01085    0.01343     3.02382
      C    9   -0.03610      0.99945     2.02156    0.01509     3.03610
      C   10    0.05000      0.99946     1.93354    0.01700     2.95000
      S   11    0.19618      4.99949     2.78351    0.02082     7.80382
      N   12   -0.13675      0.99982     2.62192    0.01501     3.63675
      N   13   -0.08464      0.99967     2.56863    0.01635     3.58464
      N   14   -0.31083      0.99964     2.79995    0.01124     3.81083
      C   15   -0.08692      0.99963     2.07592    0.01137     3.08692
      C   16   -0.28923      0.99967     2.28427    0.00529     3.28923
      H   17    0.09444      0.00000     0.40457    0.00100     0.40556
      H   18    0.09589      0.00000     0.40332    0.00079     0.40411
      H   19    0.10145      0.00000     0.39739    0.00117     0.39855
      H   20    0.09172      0.00000     0.40711    0.00116     0.40828
      H   21    0.09522      0.00000     0.40388    0.00090     0.40478
      H   22    0.09569      0.00000     0.40328    0.00103     0.40431
      H   23    0.10951      0.00000     0.38838    0.00211     0.39049
      H   24    0.09680      0.00000     0.40107    0.00213     0.40320
      H   25    0.09695      0.00000     0.40213    0.00092     0.40305
      H   26    0.09962      0.00000     0.39957    0.00081     0.40038
      H   27    0.09845      0.00000     0.40051    0.00105     0.40155
      H   28    0.09115      0.00000     0.40734    0.00152     0.40885
      H   29    0.08496      0.00000     0.41337    0.00167     0.41504
      H   30    0.09250      0.00000     0.40591    0.00159     0.40750
      H   31    0.09273      0.00000     0.40612    0.00114     0.40727
      H   32    0.20296      0.00000     0.29301    0.00403     0.29704
      H   33    0.09052      0.00000     0.40773    0.00174     0.40948
      H   34    0.09467      0.00000     0.40376    0.00157     0.40533
      H   35    0.09873      0.00000     0.39940    0.00187     0.40127
      H   36    0.10548      0.00000     0.39261    0.00191     0.39452
      H   37    0.10072      0.00000     0.39787    0.00141     0.39928
 =======================================================================
   * Total *   -0.00000     19.99395    45.78939    0.21665    66.00000

 Normal termination of Gaussian 16 at Thu Dec 10 23:49:20 2020.
