 Gaussian 16, Revision A.03,

 -----------------------------------------------------------
 # opt freq B3LYP/6-31G(d) empiricaldispersion=gd3bj scf=xqc
 -----------------------------------------------------------

 -------------------------------
 CID_149563904_JID_4746_neutraal
 -------------------------------
 Symbolic Z-matrix:
 Charge =  0 Multiplicity = 1

 SCF Done:  E(RB3LYP) =  -690.187807969     A.U. after   13 cycles
 SCF Done:  E(RB3LYP) =  -690.197357311     A.U. after   12 cycles
 SCF Done:  E(RB3LYP) =  -690.201156085     A.U. after   11 cycles
 SCF Done:  E(RB3LYP) =  -690.202694403     A.U. after   11 cycles
 SCF Done:  E(RB3LYP) =  -690.203755118     A.U. after   11 cycles
 SCF Done:  E(RB3LYP) =  -690.204192004     A.U. after   11 cycles
 SCF Done:  E(RB3LYP) =  -690.204432401     A.U. after   10 cycles
 SCF Done:  E(RB3LYP) =  -690.204631561     A.U. after   10 cycles
 SCF Done:  E(RB3LYP) =  -690.204886812     A.U. after   11 cycles
 SCF Done:  E(RB3LYP) =  -690.205037963     A.U. after   11 cycles
 SCF Done:  E(RB3LYP) =  -690.207376530     A.U. after    9 cycles
 SCF Done:  E(RB3LYP) =  -690.207378222     A.U. after    8 cycles
 SCF Done:  E(RB3LYP) =  -690.207380608     A.U. after    9 cycles
 SCF Done:  E(RB3LYP) =  -690.207381194     A.U. after    7 cycles
 SCF Done:  E(RB3LYP) =  -690.207381215     A.U. after    8 cycles
 SCF Done:  E(RB3LYP) =  -690.207381395     A.U. after    7 cycles
 Optimization completed.
    -- Stationary point found.
 Normal termination of Gaussian 16 at Thu Dec 10 11:08:16 2020.

 --------------------------------------------------------------------
 #N Geom=AllCheck Guess=TCheck SCRF=Check GenChk RB3LYP/6-31G(d) Freq
 --------------------------------------------------------------------

 Structure from the checkpoint file:  "JID_4746.chk"
 -------------------------------
 CID_149563904_JID_4746_neutraal
 -------------------------------
 Charge =  0 Multiplicity = 1

 SCF Done:  E(RB3LYP) =  -690.207381396     A.U. after    1 cycles

  Exact polarizability: 130.151   0.882 111.124   2.041  -0.186 106.409
 Approx polarizability: 161.303   3.020 162.500   2.328  -1.313 157.557

                      1                      2                      3
                      A                      A                      A
 Frequencies --     27.9284                55.0808                59.3171
 Red. masses --      2.9642                 3.6206                 4.5587
 Frc consts  --      0.0014                 0.0065                 0.0095
 IR Inten    --      0.2096                 0.9832                 0.5660

                      4                      5                      6
                      A                      A                      A
 Frequencies --     83.2225                91.2299               130.3741
 Red. masses --      4.2012                 5.1100                 5.1059
 Frc consts  --      0.0171                 0.0251                 0.0511
 IR Inten    --      2.9317                 0.9501                 0.8906

                      7                      8                      9
                      A                      A                      A
 Frequencies --    162.6837               169.0770               219.9623
 Red. masses --      2.9217                 3.6315                 1.3866
 Frc consts  --      0.0456                 0.0612                 0.0395
 IR Inten    --      2.3041                 1.3235                 0.7943

                     10                     11                     12
                      A                      A                      A
 Frequencies --    235.0022               256.4120               292.8684
 Red. masses --      1.1098                 2.2628                 1.5686
 Frc consts  --      0.0361                 0.0877                 0.0793
 IR Inten    --      0.1896                 1.3285                13.3511

                     13                     14                     15
                      A                      A                      A
 Frequencies --    319.3456               340.1012               345.6964
 Red. masses --      1.6469                 2.0324                 1.4847
 Frc consts  --      0.0990                 0.1385                 0.1045
 IR Inten    --     66.2619                12.8593                16.4280

                     16                     17                     18
                      A                      A                      A
 Frequencies --    366.5180               386.2702               407.2194
 Red. masses --      2.0353                 1.2614                 2.2766
 Frc consts  --      0.1611                 0.1109                 0.2224
 IR Inten    --     42.0420                76.7302                31.1628

                     19                     20                     21
                      A                      A                      A
 Frequencies --    425.4450               432.3865               440.1648
 Red. masses --      2.5442                 2.3584                 2.6511
 Frc consts  --      0.2713                 0.2598                 0.3026
 IR Inten    --     28.4466               101.2436                 1.1030

                     22                     23                     24
                      A                      A                      A
 Frequencies --    478.4374               521.0862               579.0986
 Red. masses --      3.2215                 2.9913                 2.3495
 Frc consts  --      0.4345                 0.4786                 0.4642
 IR Inten    --     25.7480                18.6328                44.0871

                     25                     26                     27
                      A                      A                      A
 Frequencies --    598.8494               686.6713               711.9787
 Red. masses --      4.2434                 2.5596                 2.4625
 Frc consts  --      0.8966                 0.7111                 0.7355
 IR Inten    --     12.3527                 1.6368                29.2385

                     28                     29                     30
                      A                      A                      A
 Frequencies --    809.2160               824.9024               836.8055
 Red. masses --      1.9019                 2.7621                 3.2413
 Frc consts  --      0.7338                 1.1074                 1.3373
 IR Inten    --    121.4729                65.2220                 3.3057

                     31                     32                     33
                      A                      A                      A
 Frequencies --    856.3925               901.7608               913.0042
 Red. masses --      2.1955                 2.4466                 2.4913
 Frc consts  --      0.9487                 1.1722                 1.2236
 IR Inten    --     51.8154                 6.1937                 0.7999

                     34                     35                     36
                      A                      A                      A
 Frequencies --    938.2505               943.0101               969.5849
 Red. masses --      1.8688                 1.2141                 2.5996
 Frc consts  --      0.9693                 0.6361                 1.4399
 IR Inten    --     30.7348                 3.0645                 8.5198

                     37                     38                     39
                      A                      A                      A
 Frequencies --    977.0973               997.6613              1013.5886
 Red. masses --      1.4859                 2.0105                 2.7649
 Frc consts  --      0.8358                 1.1790                 1.6736
 IR Inten    --      5.2639                 8.6743               147.9218

                     40                     41                     42
                      A                      A                      A
 Frequencies --   1038.1143              1058.7563              1096.7525
 Red. masses --      2.4905                 2.3393                 2.2223
 Frc consts  --      1.5813                 1.5450                 1.5750
 IR Inten    --     32.3085                 9.4698                18.5168

                     43                     44                     45
                      A                      A                      A
 Frequencies --   1103.8890              1123.6940              1145.2504
 Red. masses --      2.2447                 3.0168                 1.5134
 Frc consts  --      1.6116                 2.2444                 1.1695
 IR Inten    --     67.5634                61.7266                31.1295

                     46                     47                     48
                      A                      A                      A
 Frequencies --   1160.5336              1174.6557              1182.5560
 Red. masses --      2.1925                 1.7879                 1.7422
 Frc consts  --      1.7398                 1.4535                 1.4355
 IR Inten    --     91.4077                67.0556                24.7991

                     49                     50                     51
                      A                      A                      A
 Frequencies --   1203.6957              1248.4078              1257.5945
 Red. masses --      1.6916                 2.1291                 2.1222
 Frc consts  --      1.4441                 1.9551                 1.9775
 IR Inten    --     10.9719               116.4625                71.5772

                     52                     53                     54
                      A                      A                      A
 Frequencies --   1281.9015              1288.2497              1303.5525
 Red. masses --      1.3594                 1.5228                 1.3227
 Frc consts  --      1.3161                 1.4890                 1.3243
 IR Inten    --      1.5377                 2.4329                19.4063

                     55                     56                     57
                      A                      A                      A
 Frequencies --   1310.1913              1333.4109              1341.3400
 Red. masses --      1.4647                 1.3128                 1.4613
 Frc consts  --      1.4814                 1.3753                 1.5490
 IR Inten    --      5.2545                18.4374                 0.8849

                     58                     59                     60
                      A                      A                      A
 Frequencies --   1356.0347              1367.0153              1392.9535
 Red. masses --      1.3927                 1.4119                 1.5185
 Frc consts  --      1.5089                 1.5546                 1.7360
 IR Inten    --     12.1586                 3.2413                70.4166

                     61                     62                     63
                      A                      A                      A
 Frequencies --   1404.8910              1416.1681              1427.0202
 Red. masses --      1.5439                 1.5232                 1.2556
 Frc consts  --      1.7954                 1.7998                 1.5065
 IR Inten    --     17.9338                24.8953                 9.7191

                     64                     65                     66
                      A                      A                      A
 Frequencies --   1429.9940              1444.2052              1454.4713
 Red. masses --      1.2791                 1.2398                 1.1597
 Frc consts  --      1.5411                 1.5236                 1.4454
 IR Inten    --      4.1026                13.5088               105.3541

                     67                     68                     69
                      A                      A                      A
 Frequencies --   1457.2565              1478.6915              1506.2365
 Red. masses --      1.2316                 1.1665                 1.1064
 Frc consts  --      1.5409                 1.5028                 1.4789
 IR Inten    --     42.6265                 9.3944                 2.6664

                     70                     71                     72
                      A                      A                      A
 Frequencies --   1513.6561              1515.0503              1521.6523
 Red. masses --      1.0804                 1.0576                 1.0739
 Frc consts  --      1.4584                 1.4303                 1.4651
 IR Inten    --      9.6746                 0.8119                 7.1283

                     73                     74                     75
                      A                      A                      A
 Frequencies --   1526.4617              1529.6600              1541.9942
 Red. masses --      1.1045                 1.0921                 1.0851
 Frc consts  --      1.5163                 1.5056                 1.5201
 IR Inten    --      4.1890                17.9815                28.4084

                     76                     77                     78
                      A                      A                      A
 Frequencies --   1557.4141              2953.7459              3023.7993
 Red. masses --      1.1095                 1.0801                 1.0835
 Frc consts  --      1.5856                 5.5519                 5.8371
 IR Inten    --     18.4475                68.3629                22.6188

                     79                     80                     81
                      A                      A                      A
 Frequencies --   3042.1914              3047.8198              3051.0618
 Red. masses --      1.0397                 1.0397                 1.0723
 Frc consts  --      5.6691                 5.6905                 5.8813
 IR Inten    --     20.0071                37.2109                17.7537

                     82                     83                     84
                      A                      A                      A
 Frequencies --   3059.3654              3063.1253              3077.6834
 Red. masses --      1.0693                 1.0702                 1.0828
 Frc consts  --      5.8968                 5.9163                 6.0428
 IR Inten    --     48.7533                13.1770                78.7849

                     85                     86                     87
                      A                      A                      A
 Frequencies --   3104.1694              3109.8851              3110.8357
 Red. masses --      1.0989                 1.0879                 1.0983
 Frc consts  --      6.2388                 6.1993                 6.2620
 IR Inten    --      5.8176                20.2433                74.6964

                     88                     89                     90
                      A                      A                      A
 Frequencies --   3121.4934              3134.2889              3139.3028
 Red. masses --      1.1017                 1.0961                 1.0975
 Frc consts  --      6.3249                 6.3441                 6.3726
 IR Inten    --     34.6599                16.5533                22.3728

                     91                     92                     93
                      A                      A                      A
 Frequencies --   3143.5992              3147.1769              3538.8613
 Red. masses --      1.0973                 1.0997                 1.0728
 Frc consts  --      6.3889                 6.4178                 7.9159
 IR Inten    --     10.0258                18.0224                 3.9025

                     94                     95                     96
                      A                      A                      A
 Frequencies --   3699.5781              3718.6957              3723.1373
 Red. masses --      1.0647                 1.0653                 1.0654
 Frc consts  --      8.5862                 8.6793                 8.7014
 IR Inten    --     15.6946                 7.6395                 3.8139

 - Thermochemistry -
 -------------------
 Temperature   298.150 Kelvin.  Pressure   1.00000 Atm.
 Atom     1 has atomic number  6 and mass  12.00000

 Molecular mass:   204.14739 amu.
 Principal axes and moments of inertia in atomic units:
                           1         2         3
     Eigenvalues --  1727.152334081.380804644.86811
           X            0.99998   0.00096   0.00575
           Y           -0.00103   0.99992   0.01274
           Z           -0.00574  -0.01275   0.99990
 This molecule is an asymmetric top.
 Rotational symmetry number  1.
 Warning -- assumption of classical behavior for rotation
           may cause significant error
 Rotational temperatures (Kelvin)      0.05015     0.02122     0.01865
 Rotational constants (GHZ):           1.04492     0.44219     0.38855
 Zero-point vibrational energy     797352.3 (Joules/Mol)
                                  190.57177 (Kcal/Mol)
 Warning -- explicit consideration of  25 degrees of freedom as
           vibrations may cause significant error
 Vibrational temperatures:     40.18    79.25    85.34   119.74   131.26
          (Kelvin)            187.58   234.07   243.26   316.48   338.12
                              368.92   421.37   459.47   489.33   497.38
                              527.34   555.76   585.90   612.12   622.11
                              633.30   688.36   749.73   833.19   861.61
                              987.97  1024.38  1164.28  1186.85  1203.98
                             1232.16  1297.43  1313.61  1349.93  1356.78
                             1395.02  1405.83  1435.41  1458.33  1493.61
                             1523.31  1577.98  1588.25  1616.74  1647.76
                             1669.75  1690.07  1701.43  1731.85  1796.18
                             1809.40  1844.37  1853.50  1875.52  1885.07
                             1918.48  1929.89  1951.03  1966.83  2004.15
                             2021.32  2037.55  2053.16  2057.44  2077.89
                             2092.66  2096.67  2127.51  2167.14  2177.81
                             2179.82  2189.32  2196.24  2200.84  2218.59
                             2240.77  4249.78  4350.57  4377.03  4385.13
                             4389.80  4401.74  4407.15  4428.10  4466.21
                             4474.43  4475.80  4491.13  4509.54  4516.76
                             4522.94  4528.09  5091.63  5322.87  5350.37
                             5356.76

 Zero-point correction=                           0.303695 (Hartree/Particle)
 Thermal correction to Energy=                    0.319433
 Thermal correction to Enthalpy=                  0.320377
 Thermal correction to Gibbs Free Energy=         0.260534
 Sum of electronic and zero-point Energies=           -689.903686
 Sum of electronic and thermal Energies=              -689.887948
 Sum of electronic and thermal Enthalpies=            -689.887004
 Sum of electronic and thermal Free Energies=         -689.946847

                     E (Thermal)             CV                S
                      KCal/Mol        Cal/Mol-Kelvin    Cal/Mol-Kelvin
 Total                  200.447             59.592            125.951
 Electronic               0.000              0.000              0.000
 Translational            0.889              2.981             41.845
 Rotational               0.889              2.981             31.860
 Vibrational            198.670             53.631             52.246
 Vibration     1          0.593              1.984              5.971
 Vibration     2          0.596              1.976              4.626
 Vibration     3          0.597              1.974              4.480
 Vibration     4          0.600              1.961              3.813
 Vibration     5          0.602              1.955              3.634
 Vibration     6          0.612              1.923              2.941
 Vibration     7          0.623              1.888              2.518
 Vibration     8          0.625              1.881              2.446
 Vibration     9          0.647              1.811              1.959
 Vibration    10          0.655              1.787              1.840
 Vibration    11          0.666              1.752              1.686
 Vibration    12          0.688              1.687              1.457
 Vibration    13          0.705              1.637              1.313
 Vibration    14          0.720              1.595              1.212
 Vibration    15          0.724              1.584              1.186
 Vibration    16          0.739              1.541              1.094
 Vibration    17          0.755              1.499              1.015
 Vibration    18          0.772              1.455              0.936
 Vibration    19          0.787              1.415              0.874
 Vibration    20          0.793              1.400              0.851
 Vibration    21          0.800              1.383              0.826
 Vibration    22          0.835              1.298              0.714
 Vibration    23          0.876              1.203              0.607
 Vibration    24          0.936              1.076              0.487
 Vibration    25          0.957              1.034              0.452

                           ! Non-Optimized Parameters !
 Normal termination of Gaussian 16 at Thu Dec 10 11:18:55 2020.

 ----------------------------------------------------------------------
 # B3LYP/6-311++G(d,p) empiricaldispersion=gd3bj scf=xqc pop=npa geom=c
 heck
 ----------------------------------------------------------------------

 ---------------------------------------
 CID_149563904_JID_4746_Energie_neutraal
 ---------------------------------------
 Structure from the checkpoint file:  "JID_4746.chk"
 Charge =  0 Multiplicity = 1

 SCF Done:  E(RB3LYP) =  -690.435373393     A.U. after   14 cycles
 Normal termination of Gaussian 16 at Thu Dec 10 11:23:13 2020.

 ----------------------------------------------------------------------
 # B3LYP/6-311++G(d,p) empiricaldispersion=gd3bj scf=xqc pop=npa geom=c
 heck
 ----------------------------------------------------------------------

 -------------------------------------
 CID_149563904_JID_4746_Energie_kation
 -------------------------------------
 Structure from the checkpoint file:  "JID_4746.chk"
 Charge =  1 Multiplicity = 2

 SCF Done:  E(UB3LYP) =  -690.133530311     A.U. after   22 cycles
 Normal termination of Gaussian 16 at Thu Dec 10 11:33:06 2020.
 Gaussian 16:  ES64L-G16RevA.03 25-Dec-2016

 ----------------------------------------------------------------------
 # B3LYP/6-311++G(d,p) empiricaldispersion=gd3bj scf=xqc pop=npa geom=c
 heck
 ----------------------------------------------------------------------

 ------------------------------------
 CID_149563904_JID_4746_Energie_anion
 ------------------------------------
 Structure from the checkpoint file:  "JID_4746.chk"
 Charge = -1 Multiplicity = 2

                         Standard orientation:
 ---------------------------------------------------------------------
 Center     Atomic      Atomic             Coordinates (Angstroms)
 Number     Number       Type             X           Y           Z
 ---------------------------------------------------------------------
      1          6           0        3.005090    1.553624   -0.112471
      2          6           0        2.946421    0.027902    0.047395
      3          6           0        3.525605   -0.398215    1.401049
      4          6           0        1.516324   -0.521202   -0.107127
      5          7           0        0.956917   -0.180826   -1.402883
      6          6           0       -0.446180   -0.570499   -1.587341
      7          7           0       -1.401703   -0.095576   -0.608859
      8          6           0       -1.836318   -0.924202    0.497087
      9          6           0       -2.410258    0.100942    1.494743
     10          6           0       -2.815175    1.291379    0.608079
     11          6           0       -1.727747    1.295820   -0.477560
     12          8           0       -0.608574    2.140655   -0.147187
     13          8           0       -2.778073   -1.913037    0.083231
     14          8           0        1.468348   -1.931176    0.056069
     15          1           0        2.306387    2.051002    0.572546
     16          1           0        2.765125    1.879337   -1.129654
     17          1           0        4.010013    1.923203    0.118493
     18          1           0        3.544857   -0.428219   -0.754974
     19          1           0        2.975609    0.075390    2.225000
     20          1           0        3.458015   -1.480835    1.532626
     21          1           0        4.575346   -0.096867    1.486512
     22          1           0        0.909537   -0.141133    0.734503
     23          1           0        1.022558    0.825016   -1.533900
     24          1           0       -0.736710   -0.207984   -2.580617
     25          1           0       -0.512514   -1.659869   -1.593032
     26          1           0       -1.019009   -1.513824    0.920598
     27          1           0       -1.629005    0.400020    2.205314
     28          1           0       -3.232815   -0.329332    2.069813
     29          1           0       -2.856901    2.248689    1.132743
     30          1           0       -3.794907    1.115325    0.148217
     31          1           0       -2.069660    1.716542   -1.429756
     32          1           0       -0.242819    1.811658    0.690513
     33          1           0       -3.412571   -1.457725   -0.494660
     34          1           0        1.852793   -2.300415   -0.758130
 ---------------------------------------------------------------------

 SCF Done:  E(UB3LYP) =  -690.423047219     A.U. after   28 cycles

 The electronic state is 2-A.
 Alpha  occ. eigenvalues --  -19.03292 -19.02198 -19.01580 -14.20980 -14.20432
 Alpha  occ. eigenvalues --  -10.14983 -10.14931 -10.14629 -10.12470 -10.08208
 Alpha  occ. eigenvalues --  -10.07061 -10.07030 -10.06692 -10.06120  -0.94562
 Alpha  occ. eigenvalues --   -0.93580  -0.92173  -0.83530  -0.78964  -0.70647
 Alpha  occ. eigenvalues --   -0.68054  -0.61934  -0.59366  -0.59103  -0.54323
 Alpha  occ. eigenvalues --   -0.50244  -0.49835  -0.48887  -0.43176  -0.43006
 Alpha  occ. eigenvalues --   -0.40604  -0.39779  -0.39190  -0.37190  -0.35583
 Alpha  occ. eigenvalues --   -0.34227  -0.33561  -0.32662  -0.31354  -0.30716
 Alpha  occ. eigenvalues --   -0.30113  -0.29341  -0.29141  -0.28177  -0.26669
 Alpha  occ. eigenvalues --   -0.26569  -0.25554  -0.24677  -0.24213  -0.23976
 Alpha  occ. eigenvalues --   -0.23435  -0.19807  -0.18905  -0.18082  -0.15624
 Alpha  occ. eigenvalues --   -0.13029   0.04322
 Alpha virt. eigenvalues --    0.06106   0.06834   0.07886   0.08272   0.08758
 Alpha virt. eigenvalues --    0.09347   0.10096   0.10566   0.10661   0.11412
 Alpha virt. eigenvalues --    0.11751   0.12429   0.12828   0.12995   0.13613

  Beta  occ. eigenvalues --  -19.03287 -19.02169 -19.01547 -14.20982 -14.20424
  Beta  occ. eigenvalues --  -10.14972 -10.14914 -10.14624 -10.12458 -10.08201
  Beta  occ. eigenvalues --  -10.07034 -10.06997 -10.06664 -10.06095  -0.94548
  Beta  occ. eigenvalues --   -0.93528  -0.92106  -0.83505  -0.78941  -0.70620
  Beta  occ. eigenvalues --   -0.68015  -0.61877  -0.59324  -0.59051  -0.54281
  Beta  occ. eigenvalues --   -0.50174  -0.49786  -0.48836  -0.43136  -0.42974
  Beta  occ. eigenvalues --   -0.40562  -0.39743  -0.39153  -0.37150  -0.35521
  Beta  occ. eigenvalues --   -0.34186  -0.33517  -0.32626  -0.31317  -0.30677
  Beta  occ. eigenvalues --   -0.30076  -0.29302  -0.29109  -0.28151  -0.26643
  Beta  occ. eigenvalues --   -0.26535  -0.25530  -0.24621  -0.24172  -0.23943
  Beta  occ. eigenvalues --   -0.23405  -0.19778  -0.18882  -0.18041  -0.15604
  Beta  occ. eigenvalues --   -0.13020
  Beta virt. eigenvalues --    0.06471   0.07225   0.07452   0.08199   0.08944
  Beta virt. eigenvalues --    0.09153   0.09775   0.10380   0.10784   0.11044
  Beta virt. eigenvalues --    0.11706   0.12167   0.12703   0.13086   0.13322

 Mulliken charges and spin densities:
               1          2
     1  C    0.421223  -1.132779
     2  C    0.017859   0.730010
     3  C    0.377404  -0.936694
     4  C   -0.881520  -0.335127
     5  N   -0.061443   0.050305
     6  C   -0.300225   0.029314
     7  N    0.062872  -0.015701
     8  C   -0.002895  -0.310319
     9  C   -0.204927  -0.173421
    10  C    1.549081  -1.779124
    11  C   -0.710154   0.312997
    12  O   -0.078381  -0.027506
    13  O   -0.213655   0.016003
    14  O   -0.181196  -0.000096
    15  H   -0.351928   0.508803
    16  H   -0.035740   0.162916
    17  H   -0.181577   0.340310
    18  H   -0.041608   0.206432
    19  H   -0.277303   0.410020
    20  H    0.069896   0.072775
    21  H   -0.202910   0.359523
    22  H    0.865229  -0.638389
    23  H    0.258333   0.003320
    24  H   -0.234618   0.432060
    25  H    0.060423   0.096229
    26  H    0.197223   0.063351
    27  H   -0.448440   0.577626
    28  H   -0.095630   0.306811
    29  H   -0.241186   0.432574
    30  H   -0.237289   0.394016
    31  H   -0.390688   0.579886
    32  H    0.409364  -0.173821
    33  H   -0.110436   0.371085
    34  H    0.194841   0.066612
 Sum of Mulliken charges =  -1.00000   1.00000

 Dipole moment (field-independent basis, Debye):
    X=              2.2379    Y=             -2.1162    Z=             -1.8445  Tot=              3.5901
 Quadrupole moment (field-independent basis, Debye-Ang):
   XX=           -162.1134   YY=           -129.9190   ZZ=           -125.0746
   XY=             -6.2797   XZ=             -6.7113   YZ=              0.4231

 Summary of Natural Population Analysis:

                                       Natural Population
                Natural  -----------------------------------------------
    Atom  No    Charge         Core      Valence    Rydberg      Total
 -----------------------------------------------------------------------
      C    1   -0.28770      0.99965     2.28198    0.00607     3.28770
      C    2   -0.12458      0.99959     2.11397    0.01102     3.12458
      C    3   -0.28642      0.99965     2.28065    0.00613     3.28642
      C    4    0.15327      0.99956     1.83132    0.01584     2.84673
      N    5   -0.35486      0.99972     2.84534    0.00980     3.85486
      C    6    0.00770      0.99961     1.97697    0.01571     2.99230
      N    7   -0.29993      0.99966     2.78630    0.01396     3.79993
      C    8    0.15362      0.99957     1.83028    0.01653     2.84638
      C    9   -0.20643      0.99961     2.19756    0.00925     3.20643
      C   10   -0.20478      0.99961     2.19636    0.00881     3.20478
      C   11    0.15503      0.99956     1.82792    0.01748     2.84497
      O   12   -0.38149      0.99990     3.37530    0.00628     4.38149
      O   13   -0.37591      0.99990     3.36985    0.00616     4.37591
      O   14   -0.37184      0.99990     3.36585    0.00610     4.37184
      H   15    0.10070      0.00000     0.39803    0.00127     0.39930
      H   16    0.09909      0.00000     0.39994    0.00098     0.40091
      H   17    0.10148      0.00000     0.39752    0.00100     0.39852
      H   18    0.09254      0.00000     0.40545    0.00201     0.40746
      H   19    0.09887      0.00000     0.39998    0.00114     0.40113
      H   20    0.10577      0.00000     0.39316    0.00108     0.39423
      H   21    0.09794      0.00000     0.40115    0.00091     0.40206
      H   22    0.07010      0.00000     0.42722    0.00268     0.42990
      H   23    0.18654      0.00000     0.30998    0.00348     0.31346
      H   24    0.09251      0.00000     0.40638    0.00111     0.40749
      H   25    0.10005      0.00000     0.39862    0.00132     0.39995
      H   26    0.09059      0.00000     0.40725    0.00216     0.40941
      H   27    0.09950      0.00000     0.39874    0.00176     0.40050
      H   28    0.10845      0.00000     0.39036    0.00119     0.39155
      H   29    0.10730      0.00000     0.39135    0.00135     0.39270
      H   30    0.10310      0.00000     0.39449    0.00241     0.39690
      H   31    0.08716      0.00000     0.41119    0.00165     0.41284
      H   32    0.22720      0.00000     0.26842    0.00438     0.27280
      H   33    0.22829      0.00000     0.26715    0.00456     0.27171
      H   34    0.22712      0.00000     0.27015    0.00273     0.27288
 =======================================================================
   * Total *    0.00000     13.99550    41.81616    0.18833    56.00000

 Normal termination of Gaussian 16 at Thu Dec 10 11:44:06 2020.
