 Gaussian 16, Revision A.03,

 -----------------------------------------------------------
 # opt freq B3LYP/6-31G(d) empiricaldispersion=gd3bj scf=xqc
 -----------------------------------------------------------

 ------------------------------
 CID_141405108_JID_803_neutraal
 ------------------------------
 Symbolic Z-matrix:
 Charge =  0 Multiplicity = 1

 SCF Done:  E(RB3LYP) =  -479.763507180     A.U. after   14 cycles
 SCF Done:  E(RB3LYP) =  -479.765407377     A.U. after   12 cycles
 SCF Done:  E(RB3LYP) =  -479.765284122     A.U. after   11 cycles
 SCF Done:  E(RB3LYP) =  -479.765718247     A.U. after   11 cycles
 SCF Done:  E(RB3LYP) =  -479.765778145     A.U. after   10 cycles
 SCF Done:  E(RB3LYP) =  -479.765809172     A.U. after   10 cycles
 SCF Done:  E(RB3LYP) =  -479.765825931     A.U. after   10 cycles
 SCF Done:  E(RB3LYP) =  -479.765838936     A.U. after   10 cycles
 SCF Done:  E(RB3LYP) =  -479.765841039     A.U. after    9 cycles
 SCF Done:  E(RB3LYP) =  -479.765841620     A.U. after    8 cycles
 SCF Done:  E(RB3LYP) =  -479.765841827     A.U. after    8 cycles
 SCF Done:  E(RB3LYP) =  -479.765841851     A.U. after    7 cycles
 Optimization completed.
    -- Stationary point found.
 Normal termination of Gaussian 16 at Tue Dec  8 12:32:58 2020.

 --------------------------------------------------------------------
 #N Geom=AllCheck Guess=TCheck SCRF=Check GenChk RB3LYP/6-31G(d) Freq
 --------------------------------------------------------------------

 Structure from the checkpoint file:  "JID_803.chk"
 ------------------------------
 CID_141405108_JID_803_neutraal
 ------------------------------
 Charge =  0 Multiplicity = 1

 SCF Done:  E(RB3LYP) =  -479.765841851     A.U. after    1 cycles

  Exact polarizability:  93.785  -1.581  86.205   5.916  -0.989  70.467
 Approx polarizability: 117.224  -7.862 132.766  10.709  -5.648 104.096

                      1                      2                      3
                      A                      A                      A
 Frequencies --     36.0371                49.0334                88.0282
 Red. masses --      3.9339                 3.6616                 4.6057
 Frc consts  --      0.0030                 0.0052                 0.0210
 IR Inten    --      1.4230                 0.8750                 2.8637

                      4                      5                      6
                      A                      A                      A
 Frequencies --     88.1970               153.4835               201.4547
 Red. masses --      4.3457                 3.0534                 2.6068
 Frc consts  --      0.0199                 0.0424                 0.0623
 IR Inten    --      2.0570                 3.7288                 1.5533

                      7                      8                      9
                      A                      A                      A
 Frequencies --    264.6396               282.9634               332.6295
 Red. masses --      3.1441                 3.2781                 2.7131
 Frc consts  --      0.1297                 0.1546                 0.1769
 IR Inten    --      0.5672                12.2669                16.0956

                     10                     11                     12
                      A                      A                      A
 Frequencies --    354.3150               400.8742               425.7448
 Red. masses --      1.6936                 1.3234                 1.8165
 Frc consts  --      0.1253                 0.1253                 0.1940
 IR Inten    --     50.0818                95.8649                 3.7515

                     13                     14                     15
                      A                      A                      A
 Frequencies --    485.7312               545.4326               651.8648
 Red. masses --      3.4630                 2.7568                 3.3188
 Frc consts  --      0.4814                 0.4832                 0.8309
 IR Inten    --      4.0106                17.8346                11.7712

                     16                     17                     18
                      A                      A                      A
 Frequencies --    786.8300               816.1599               831.0318
 Red. masses --      1.1564                 1.7220                 1.7879
 Frc consts  --      0.4218                 0.6758                 0.7275
 IR Inten    --      0.1684                 6.8485                 2.6195

                     19                     20                     21
                      A                      A                      A
 Frequencies --    862.6984               886.2155               931.8068
 Red. masses --      2.0299                 2.3116                 2.0699
 Frc consts  --      0.8901                 1.0696                 1.0589
 IR Inten    --      6.6373                 7.9318                 3.7474

                     22                     23                     24
                      A                      A                      A
 Frequencies --    953.2152               979.5874              1008.3531
 Red. masses --      1.9332                 2.3644                 2.0688
 Frc consts  --      1.0349                 1.3368                 1.2393
 IR Inten    --     15.6961                17.7619                 3.1944

                     25                     26                     27
                      A                      A                      A
 Frequencies --   1026.5963              1069.4756              1080.0144
 Red. masses --      2.0341                 1.3327                 2.0485
 Frc consts  --      1.2630                 0.8981                 1.4078
 IR Inten    --      2.1893                20.6422                26.1037

                     28                     29                     30
                      A                      A                      A
 Frequencies --   1093.3952              1103.9248              1138.9985
 Red. masses --      1.3593                 2.9379                 1.1888
 Frc consts  --      0.9574                 2.1094                 0.9087
 IR Inten    --      4.2987               102.0446                 7.7131

                     31                     32                     33
                      A                      A                      A
 Frequencies --   1159.2856              1208.3246              1213.9545
 Red. masses --      1.7095                 1.3936                 1.3604
 Frc consts  --      1.3536                 1.1988                 1.1812
 IR Inten    --     30.4400                42.5709                11.5329

                     34                     35                     36
                      A                      A                      A
 Frequencies --   1234.3489              1254.0578              1258.9209
 Red. masses --      1.8511                 2.2143                 1.4853
 Frc consts  --      1.6617                 2.0518                 1.3870
 IR Inten    --      5.1740                18.7598                18.0166

                     37                     38                     39
                      A                      A                      A
 Frequencies --   1335.1585              1381.0094              1400.3946
 Red. masses --      1.4563                 1.2854                 1.2275
 Frc consts  --      1.5295                 1.4444                 1.4183
 IR Inten    --     22.6870                20.0191                17.2125

                     40                     41                     42
                      A                      A                      A
 Frequencies --   1408.5177              1428.4044              1444.9298
 Red. masses --      1.3660                 1.3481                 1.5057
 Frc consts  --      1.5968                 1.6206                 1.8521
 IR Inten    --      3.9548                39.3556                 5.7659

                     43                     44                     45
                      A                      A                      A
 Frequencies --   1448.7666              1469.3050              1498.4793
 Red. masses --      1.2385                 1.9588                 1.0924
 Frc consts  --      1.5316                 2.4915                 1.4453
 IR Inten    --     41.1658                58.0881                 5.5350

                     46                     47                     48
                      A                      A                      A
 Frequencies --   1506.1535              1510.3822              1533.7806
 Red. masses --      1.1122                 1.1349                 1.0950
 Frc consts  --      1.4865                 1.5254                 1.5177
 IR Inten    --     14.5805                 3.2516                 2.2759

                     49                     50                     51
                      A                      A                      A
 Frequencies --   1538.9195              1788.3372              2979.3321
 Red. masses --      1.3463                 8.0981                 1.0856
 Frc consts  --      1.8786                15.2592                 5.6773
 IR Inten    --      3.8803               334.2490                75.1135

                     52                     53                     54
                      A                      A                      A
 Frequencies --   2998.7319              3052.5282              3062.5432
 Red. masses --      1.0719                 1.0634                 1.0661
 Frc consts  --      5.6790                 5.8383                 5.8916
 IR Inten    --     55.1197                32.1734                32.5697

                     55                     56                     57
                      A                      A                      A
 Frequencies --   3105.9959              3113.2417              3129.4863
 Red. masses --      1.0942                 1.1001                 1.0946
 Frc consts  --      6.2193                 6.2821                 6.3164
 IR Inten    --     26.0506                38.0245                 1.2667

                     58                     59                     60
                      A                      A                      A
 Frequencies --   3147.1920              3150.3446              3157.9983
 Red. masses --      1.0546                 1.0864                 1.0611
 Frc consts  --      6.1545                 6.3524                 6.2348
 IR Inten    --     21.5432                21.2790                10.5605

                     61                     62                     63
                      A                      A                      A
 Frequencies --   3224.2871              3245.0531              3725.4927
 Red. masses --      1.1187                 1.1165                 1.0654
 Frc consts  --      6.8522                 6.9273                 8.7125
 IR Inten    --      8.0797                 9.8863                13.3068

 - Thermochemistry -
 -------------------
 Temperature   298.150 Kelvin.  Pressure   1.00000 Atm.
 Atom     1 has atomic number  6 and mass  12.00000

 Molecular mass:   143.09463 amu.
 Principal axes and moments of inertia in atomic units:
                           1         2         3
     Eigenvalues --   816.126652322.297272802.88854
           X            0.99998   0.00169   0.00594
           Y           -0.00173   0.99998   0.00654
           Z           -0.00593  -0.00655   0.99996
 This molecule is an asymmetric top.
 Rotational symmetry number  1.
 Warning -- assumption of classical behavior for rotation
           may cause significant error
 Rotational temperatures (Kelvin)      0.10613     0.03730     0.03090
 Rotational constants (GHZ):           2.21135     0.77714     0.64389
 Zero-point vibrational energy     526610.4 (Joules/Mol)
                                  125.86291 (Kcal/Mol)
 Warning -- explicit consideration of  14 degrees of freedom as
           vibrations may cause significant error
 Vibrational temperatures:     51.85    70.55   126.65   126.90   220.83
          (Kelvin)            289.85   380.76   407.12   478.58   509.78
                              576.77   612.55   698.86   784.76   937.89
                             1132.07  1174.27  1195.67  1241.23  1275.07
                             1340.66  1371.46  1409.41  1450.80  1477.04
                             1538.74  1553.90  1573.15  1588.30  1638.76
                             1667.95  1738.51  1746.61  1775.95  1804.31
                             1811.31  1921.00  1986.96  2014.86  2026.54
                             2055.16  2078.93  2084.45  2114.00  2155.98
                             2167.02  2173.10  2206.77  2214.16  2573.02
                             4286.59  4314.51  4391.91  4406.32  4468.84
                             4479.26  4502.63  4528.11  4532.64  4543.66
                             4639.03  4668.91  5360.15

 Zero-point correction=                           0.200575 (Hartree/Particle)
 Thermal correction to Energy=                    0.211467
 Thermal correction to Enthalpy=                  0.212411
 Thermal correction to Gibbs Free Energy=         0.162778
 Sum of electronic and zero-point Energies=           -479.565267
 Sum of electronic and thermal Energies=              -479.554375
 Sum of electronic and thermal Enthalpies=            -479.553430
 Sum of electronic and thermal Free Energies=         -479.603063

                     E (Thermal)             CV                S
                      KCal/Mol        Cal/Mol-Kelvin    Cal/Mol-Kelvin
 Total                  132.698             39.170            104.461
 Electronic               0.000              0.000              0.000
 Translational            0.889              2.981             40.786
 Rotational               0.889              2.981             30.053
 Vibrational            130.920             33.209             33.622
 Vibration     1          0.594              1.982              5.466
 Vibration     2          0.595              1.978              4.856
 Vibration     3          0.601              1.958              3.703
 Vibration     4          0.601              1.957              3.700
 Vibration     5          0.619              1.899              2.629
 Vibration     6          0.638              1.838              2.120
 Vibration     7          0.671              1.738              1.631
 Vibration     8          0.682              1.705              1.516
 Vibration     9          0.715              1.610              1.247
 Vibration    10          0.730              1.566              1.147
 Vibration    11          0.767              1.468              0.959
 Vibration    12          0.788              1.414              0.873
 Vibration    13          0.842              1.282              0.695
 Vibration    14          0.901              1.150              0.554

 Optimization completed.
    -- Stationary point found.
 Normal termination of Gaussian 16 at Tue Dec  8 12:44:04 2020.

 ----------------------------------------------------------------------
 # B3LYP/6-311++G(d,p) empiricaldispersion=gd3bj scf=xqc pop=npa geom=c
 heck
 ----------------------------------------------------------------------

 --------------------------------------
 CID_141405108_JID_803_Energie_neutraal
 --------------------------------------
 Structure from the checkpoint file:  "JID_803.chk"
 Charge =  0 Multiplicity = 1

 SCF Done:  E(RB3LYP) =  -479.917334351     A.U. after   13 cycles
 Normal termination of Gaussian 16 at Tue Dec  8 12:50:56 2020.

 ----------------------------------------------------------------------
 # B3LYP/6-311++G(d,p) empiricaldispersion=gd3bj scf=xqc pop=npa geom=c
 heck
 ----------------------------------------------------------------------

 ------------------------------------
 CID_141405108_JID_803_Energie_kation
 ------------------------------------
 Structure from the checkpoint file:  "JID_803.chk"
 Charge =  1 Multiplicity = 2

 SCF Done:  E(UB3LYP) =  -479.586458335     A.U. after   23 cycles
 Normal termination of Gaussian 16 at Tue Dec  8 13:04:06 2020.
 Gaussian 16:  ES64L-G16RevA.03 25-Dec-2016

 ----------------------------------------------------------------------
 # B3LYP/6-311++G(d,p) empiricaldispersion=gd3bj scf=xqc pop=npa geom=c
 heck
 ----------------------------------------------------------------------

 -----------------------------------
 CID_141405108_JID_803_Energie_anion
 -----------------------------------
 Structure from the checkpoint file:  "JID_803.chk"
 Charge = -1 Multiplicity = 2

                         Standard orientation:
 ---------------------------------------------------------------------
 Center     Atomic      Atomic             Coordinates (Angstroms)
 Number     Number       Type             X           Y           Z
 ---------------------------------------------------------------------
      1          6           0       -2.783015    0.104162    0.589613
      2          6           0       -3.129623   -0.861621   -0.516012
      3          6           0       -1.758591   -0.896417    0.115679
      4          6           0       -0.570715   -0.407207   -0.683764
      5          7           0        0.460910    0.227682    0.143193
      6          6           0        1.383172   -0.609552    0.900134
      7          6           0        2.519365   -1.144733    0.024010
      8          8           0        3.282809   -0.093186   -0.536797
      9          6           0        0.446756    1.585977    0.294903
     10          8           0       -0.322193    2.351579   -0.265451
     11          1           0       -3.234436   -0.049691    1.565551
     12          1           0       -2.612758    1.143392    0.326719
     13          1           0       -3.814605   -1.676408   -0.300182
     14          1           0       -3.211582   -0.469392   -1.526495
     15          1           0       -1.556155   -1.737630    0.776588
     16          1           0       -0.110826   -1.233757   -1.238231
     17          1           0       -0.894099    0.345393   -1.406535
     18          1           0        1.814385   -0.003467    1.703305
     19          1           0        0.832138   -1.435952    1.366559
     20          1           0        3.205751   -1.735545    0.638737
     21          1           0        2.116678   -1.811881   -0.755471
     22          1           0        2.671464    0.444247   -1.066410
     23          1           0        1.238654    1.936116    0.984104
 ---------------------------------------------------------------------

 SCF Done:  E(UB3LYP) =  -479.904042577     A.U. after   31 cycles

 The electronic state is 2-A.
 Alpha  occ. eigenvalues --  -19.02868 -18.99614 -14.24948 -10.17022 -10.11583
 Alpha  occ. eigenvalues --  -10.10732 -10.10566 -10.07576 -10.07130 -10.06617
 Alpha  occ. eigenvalues --   -0.94423  -0.93139  -0.84449  -0.75835  -0.65481
 Alpha  occ. eigenvalues --   -0.62326  -0.54217  -0.50210  -0.49779  -0.45502
 Alpha  occ. eigenvalues --   -0.42577  -0.41463  -0.39458  -0.38529  -0.36593
 Alpha  occ. eigenvalues --   -0.34583  -0.32994  -0.31929  -0.30007  -0.29032
 Alpha  occ. eigenvalues --   -0.28507  -0.26425  -0.26269  -0.24154  -0.20164
 Alpha  occ. eigenvalues --   -0.19145  -0.18737  -0.16747  -0.14969   0.04767
 Alpha virt. eigenvalues --    0.07442   0.07607   0.08344   0.09390   0.09980
 Alpha virt. eigenvalues --    0.10262   0.10533   0.11110   0.12074   0.13314
 Alpha virt. eigenvalues --    0.13534   0.14387   0.14810   0.16012   0.16945

  Beta  occ. eigenvalues --  -19.02858 -18.99603 -14.24953 -10.17004 -10.11537
  Beta  occ. eigenvalues --  -10.10693 -10.10541 -10.07551 -10.07112 -10.06606
  Beta  occ. eigenvalues --   -0.94402  -0.93115  -0.84433  -0.75793  -0.65416
  Beta  occ. eigenvalues --   -0.62277  -0.54124  -0.50168  -0.49722  -0.45440
  Beta  occ. eigenvalues --   -0.42519  -0.41427  -0.39388  -0.38470  -0.36552
  Beta  occ. eigenvalues --   -0.34516  -0.32951  -0.31896  -0.29946  -0.28983
  Beta  occ. eigenvalues --   -0.28455  -0.26397  -0.26212  -0.24120  -0.20135
  Beta  occ. eigenvalues --   -0.19114  -0.18701  -0.16731  -0.14936
  Beta virt. eigenvalues --    0.07468   0.08249   0.08269   0.09119   0.09793
  Beta virt. eigenvalues --    0.10399   0.10695   0.11210   0.11738   0.12573
  Beta virt. eigenvalues --    0.13619   0.13740   0.14948   0.15108   0.15956

 Mulliken charges and spin densities:
               1          2
     1  C   -0.040987  -0.379718
     2  C    1.082612  -1.542850
     3  C   -1.710485   2.161321
     4  C    1.806112  -2.618988
     5  N   -0.146883   0.224339
     6  C   -0.729857   0.542587
     7  C    1.928770  -2.252194
     8  O   -0.328154   0.083612
     9  C    0.068032   0.005501
    10  O   -0.375705   0.006003
    11  H   -0.140623   0.283826
    12  H    0.201438  -0.034383
    13  H   -0.348436   0.504142
    14  H    0.004028   0.106767
    15  H   -0.868130   1.103405
    16  H    0.082228   0.053485
    17  H    0.057704   0.145395
    18  H   -0.336792   0.535970
    19  H   -0.301123   0.453648
    20  H   -0.501899   0.686864
    21  H   -0.575733   0.750744
    22  H    0.174048   0.077076
    23  H   -0.000162   0.103449
 Sum of Mulliken charges =  -1.00000   1.00000

 Dipole moment (field-independent basis, Debye):
    X=             -0.6639    Y=              5.4811    Z=             -2.3970  Tot=              6.0190
 Quadrupole moment (field-independent basis, Debye-Ang):
   XX=           -120.9331   YY=           -112.4479   ZZ=            -90.6982
   XY=              1.4285   XZ=              1.0280   YZ=              6.2809

 Summary of Natural Population Analysis:

                                       Natural Population
                Natural  -----------------------------------------------
    Atom  No    Charge         Core      Valence    Rydberg      Total
 -----------------------------------------------------------------------
      C    1   -0.20019      0.99961     2.19107    0.00950     3.20019
      C    2   -0.19592      0.99962     2.18669    0.00962     3.19592
      C    3   -0.12453      0.99958     2.11227    0.01268     3.12453
      C    4   -0.09037      0.99957     2.07691    0.01389     3.09037
      N    5   -0.25812      0.99967     2.74496    0.01349     3.75812
      C    6   -0.09906      0.99960     2.08657    0.01289     3.09906
      C    7   -0.01378      0.99961     2.00169    0.01249     3.01378
      O    8   -0.36781      0.99990     3.36105    0.00686     4.36781
      C    9    0.27337      0.99968     1.70507    0.02188     2.72663
      O   10   -0.32340      0.99988     3.31745    0.00607     4.32340
      H   11    0.10258      0.00000     0.39653    0.00090     0.39742
      H   12    0.10955      0.00000     0.38937    0.00107     0.39045
      H   13    0.10511      0.00000     0.39350    0.00140     0.39489
      H   14    0.09820      0.00000     0.40092    0.00087     0.40180
      H   15    0.10996      0.00000     0.38504    0.00500     0.39004
      H   16    0.10216      0.00000     0.39625    0.00159     0.39784
      H   17    0.10849      0.00000     0.38985    0.00166     0.39151
      H   18    0.10077      0.00000     0.39742    0.00181     0.39923
      H   19    0.10835      0.00000     0.38730    0.00434     0.39165
      H   20    0.09273      0.00000     0.40469    0.00258     0.40727
      H   21    0.07964      0.00000     0.41789    0.00248     0.42036
      H   22    0.22653      0.00000     0.27022    0.00326     0.27347
      H   23    0.05576      0.00000     0.44246    0.00178     0.44424
 =======================================================================
   * Total *   -0.00000      9.99673    28.85516    0.14811    39.00000

 Normal termination of Gaussian 16 at Tue Dec  8 13:12:11 2020.
