 Gaussian 16, Revision A.03,

 -----------------------------------------------------------
 # opt freq B3LYP/6-31G(d) empiricaldispersion=gd3bj scf=xqc
 -----------------------------------------------------------

 ------------------------------
 CID_69030760_JID_1800_neutraal
 ------------------------------
 Symbolic Z-matrix:
 Charge =  0 Multiplicity = 1

 SCF Done:  E(RB3LYP) =  -515.461761483     A.U. after   15 cycles
 SCF Done:  E(RB3LYP) =  -515.464092464     A.U. after   12 cycles
 SCF Done:  E(RB3LYP) =  -515.464335557     A.U. after   11 cycles
 SCF Done:  E(RB3LYP) =  -515.464293780     A.U. after   11 cycles
 SCF Done:  E(RB3LYP) =  -515.464375529     A.U. after   11 cycles
 SCF Done:  E(RB3LYP) =  -515.464411158     A.U. after   10 cycles
 SCF Done:  E(RB3LYP) =  -515.464428743     A.U. after   10 cycles
 SCF Done:  E(RB3LYP) =  -515.464432044     A.U. after   10 cycles
 SCF Done:  E(RB3LYP) =  -515.464433895     A.U. after    9 cycles
 SCF Done:  E(RB3LYP) =  -515.464435122     A.U. after    9 cycles
 SCF Done:  E(RB3LYP) =  -515.464435455     A.U. after    9 cycles
 SCF Done:  E(RB3LYP) =  -515.464435748     A.U. after    8 cycles
 SCF Done:  E(RB3LYP) =  -515.464435996     A.U. after    9 cycles
 SCF Done:  E(RB3LYP) =  -515.464436138     A.U. after    8 cycles
 SCF Done:  E(RB3LYP) =  -515.464436186     A.U. after    8 cycles
 Optimization completed.
    -- Stationary point found.
 Normal termination of Gaussian 16 at Tue Dec  8 21:09:03 2020.

 --------------------------------------------------------------------
 #N Geom=AllCheck Guess=TCheck SCRF=Check GenChk RB3LYP/6-31G(d) Freq
 --------------------------------------------------------------------

 Structure from the checkpoint file:  "JID_1800.chk"
 ------------------------------
 CID_69030760_JID_1800_neutraal
 ------------------------------
 Charge =  0 Multiplicity = 1

 SCF Done:  E(RB3LYP) =  -515.464436186     A.U. after    1 cycles

  Exact polarizability: 101.738  -9.105  80.944  -1.162  11.714  83.062
 Approx polarizability: 141.322 -12.003 115.191  -2.079  28.911 144.032

                      1                      2                      3
                      A                      A                      A
 Frequencies --     24.6414                43.5624                63.4225
 Red. masses --      7.3924                 3.8818                 3.4143
 Frc consts  --      0.0026                 0.0043                 0.0081
 IR Inten    --      2.7348                 0.1881                 0.0339

                      4                      5                      6
                      A                      A                      A
 Frequencies --    110.3761               165.6728               206.4244
 Red. masses --      4.2830                 4.3462                 2.8621
 Frc consts  --      0.0307                 0.0703                 0.0719
 IR Inten    --      0.6849                 0.4001                 2.4121

                      7                      8                      9
                      A                      A                      A
 Frequencies --    303.0323               335.8159               376.1477
 Red. masses --      3.6076                 4.0757                 4.1188
 Frc consts  --      0.1952                 0.2708                 0.3433
 IR Inten    --      0.4354                 1.0202                 2.2571

                     10                     11                     12
                      A                      A                      A
 Frequencies --    449.6084               590.5649               605.3842
 Red. masses --      3.6122                 2.3443                 2.1838
 Frc consts  --      0.4302                 0.4817                 0.4715
 IR Inten    --     12.7380                 9.2993                23.5376

                     13                     14                     15
                      A                      A                      A
 Frequencies --    623.8803               642.4468               673.4008
 Red. masses --      3.5772                 2.5819                 1.2716
 Frc consts  --      0.8203                 0.6279                 0.3397
 IR Inten    --      1.4570                34.6567                 7.0029

                     16                     17                     18
                      A                      A                      A
 Frequencies --    701.9197               733.9798               741.3144
 Red. masses --      2.9268                 1.3213                 1.9535
 Frc consts  --      0.8496                 0.4194                 0.6325
 IR Inten    --     53.5598                74.6770               111.1696

                     19                     20                     21
                      A                      A                      A
 Frequencies --    814.4425               852.1056               867.8058
 Red. masses --      1.2523                 4.0856                 1.2414
 Frc consts  --      0.4894                 1.7478                 0.5508
 IR Inten    --      0.8588                 2.4244                 0.3739

                     22                     23                     24
                      A                      A                      A
 Frequencies --    892.3899               919.0733               958.4275
 Red. masses --      5.1121                 2.5333                 1.3539
 Frc consts  --      2.3986                 1.2608                 0.7328
 IR Inten    --      0.9605                 7.5216                36.1871

                     25                     26                     27
                      A                      A                      A
 Frequencies --    989.3430              1000.0524              1025.0331
 Red. masses --      2.3077                 1.9826                 1.1155
 Frc consts  --      1.3308                 1.1683                 0.6905
 IR Inten    --      8.5400                 9.9953                15.1915

                     28                     29                     30
                      A                      A                      A
 Frequencies --   1089.6099              1103.4319              1120.0539
 Red. masses --      2.1191                 1.3244                 1.3319
 Frc consts  --      1.4824                 0.9501                 0.9845
 IR Inten    --      2.2598                18.3587                61.0939

                     31                     32                     33
                      A                      A                      A
 Frequencies --   1151.1241              1187.7555              1269.5130
 Red. masses --      2.4757                 2.2932                 1.5570
 Frc consts  --      1.9328                 1.9061                 1.4785
 IR Inten    --    146.3513               101.2153                10.0873

                     34                     35                     36
                      A                      A                      A
 Frequencies --   1296.1705              1309.5984              1322.4742
 Red. masses --      1.3332                 3.9290                 1.4065
 Frc consts  --      1.3197                 3.9701                 1.4493
 IR Inten    --     17.5352                62.1037                 3.1706

                     37                     38                     39
                      A                      A                      A
 Frequencies --   1336.7758              1406.6957              1443.7492
 Red. masses --      1.4218                 2.5094                 4.4550
 Frc consts  --      1.4970                 2.9257                 5.4712
 IR Inten    --      6.2872                49.7870                 5.5520

                     40                     41                     42
                      A                      A                      A
 Frequencies --   1454.0658              1479.4736              1530.2492
 Red. masses --      2.2691                 1.2248                 2.9844
 Frc consts  --      2.8266                 1.5796                 4.1174
 IR Inten    --     15.2841                 6.3565                50.8597

                     43                     44                     45
                      A                      A                      A
 Frequencies --   1582.6616              1734.5134              1844.9540
 Red. masses --      4.1015                 4.5425                 9.8547
 Frc consts  --      6.0530                 8.0520                19.7635
 IR Inten    --      1.4696                 2.8393               217.1178

                     46                     47                     48
                      A                      A                      A
 Frequencies --   3125.2347              3161.3647              3198.0478
 Red. masses --      1.0859                 1.0604                 1.0924
 Frc consts  --      6.2487                 6.2440                 6.5826
 IR Inten    --      4.8120                 7.9527                 0.8655

                     49                     50                     51
                      A                      A                      A
 Frequencies --   3245.1804              3251.4715              3263.2240
 Red. masses --      1.1151                 1.0884                 1.0938
 Frc consts  --      6.9192                 6.7797                 6.8626
 IR Inten    --     11.8609                 4.8035                 6.6687

                     52                     53                     54
                      A                      A                      A
 Frequencies --   3278.4444              3297.8855              3670.7522
 Red. masses --      1.1030                 1.1007                 1.0638
 Frc consts  --      6.9847                 7.0535                 8.4454
 IR Inten    --      3.3431                 1.7449                51.9012

 - Thermochemistry -
 -------------------
 Temperature   298.150 Kelvin.  Pressure   1.00000 Atm.
 Atom     1 has atomic number  6 and mass  12.00000

 Molecular mass:   151.06333 amu.
 Principal axes and moments of inertia in atomic units:
                           1         2         3
     Eigenvalues --  1150.329172073.908042526.51937
           X            0.99941  -0.03419  -0.00294
           Y            0.03422   0.99935   0.01097
           Z            0.00256  -0.01106   0.99994
 This molecule is an asymmetric top.
 Rotational symmetry number  1.
 Warning -- assumption of classical behavior for rotation
           may cause significant error
 Rotational temperatures (Kelvin)      0.07529     0.04176     0.03428
 Rotational constants (GHZ):           1.56889     0.87021     0.71432
 Zero-point vibrational energy     417884.0 (Joules/Mol)
                                   99.87666 (Kcal/Mol)
 Warning -- explicit consideration of  12 degrees of freedom as
           vibrations may cause significant error
 Vibrational temperatures:     35.45    62.68    91.25   158.81   238.37
          (Kelvin)            297.00   436.00   483.16   541.19   646.89
                              849.69   871.01   897.62   924.34   968.87
                             1009.91  1056.03  1066.59  1171.80  1225.99
                             1248.58  1283.95  1322.34  1378.96  1423.44
                             1438.85  1474.79  1567.71  1587.59  1611.51
                             1656.21  1708.92  1826.55  1864.90  1884.22
                             1902.75  1923.32  2023.92  2077.23  2092.08
                             2128.63  2201.69  2277.10  2495.58  2654.48
                             4496.52  4548.50  4601.28  4669.09  4678.14
                             4695.05  4716.95  4744.92  5281.39

 Zero-point correction=                           0.159164 (Hartree/Particle)
 Thermal correction to Energy=                    0.169514
 Thermal correction to Enthalpy=                  0.170458
 Thermal correction to Gibbs Free Energy=         0.121215
 Sum of electronic and zero-point Energies=           -515.305273
 Sum of electronic and thermal Energies=              -515.294923
 Sum of electronic and thermal Enthalpies=            -515.293978
 Sum of electronic and thermal Free Energies=         -515.343221

                     E (Thermal)             CV                S
                      KCal/Mol        Cal/Mol-Kelvin    Cal/Mol-Kelvin
 Total                  106.371             37.746            103.640
 Electronic               0.000              0.000              0.000
 Translational            0.889              2.981             40.948
 Rotational               0.889              2.981             30.178
 Vibrational            104.594             31.784             32.513
 Vibration     1          0.593              1.985              6.220
 Vibration     2          0.595              1.980              5.090
 Vibration     3          0.597              1.972              4.348
 Vibration     4          0.606              1.941              3.262
 Vibration     5          0.624              1.885              2.484
 Vibration     6          0.641              1.831              2.075
 Vibration     7          0.694              1.668              1.400
 Vibration     8          0.717              1.604              1.232
 Vibration     9          0.747              1.521              1.055
 Vibration    10          0.809              1.362              0.797
 Vibration    11          0.948              1.052              0.466
 Vibration    12          0.964              1.020              0.440

                           ! Non-Optimized Parameters !
 Normal termination of Gaussian 16 at Tue Dec  8 21:13:46 2020.

 ----------------------------------------------------------------------
 # B3LYP/6-311++G(d,p) empiricaldispersion=gd3bj scf=xqc pop=npa geom=c
 heck
 ----------------------------------------------------------------------

 --------------------------------------
 CID_69030760_JID_1800_Energie_neutraal
 --------------------------------------
 Structure from the checkpoint file:  "JID_1800.chk"
 Charge =  0 Multiplicity = 1

 SCF Done:  E(RB3LYP) =  -515.621604388     A.U. after   14 cycles
 Normal termination of Gaussian 16 at Tue Dec  8 21:16:19 2020.

 ----------------------------------------------------------------------
 # B3LYP/6-311++G(d,p) empiricaldispersion=gd3bj scf=xqc pop=npa geom=c
 heck
 ----------------------------------------------------------------------

 ------------------------------------
 CID_69030760_JID_1800_Energie_kation
 ------------------------------------
 Structure from the checkpoint file:  "JID_1800.chk"
 Charge =  1 Multiplicity = 2

 SCF Done:  E(UB3LYP) =  -515.323244333     A.U. after   23 cycles
 Normal termination of Gaussian 16 at Tue Dec  8 21:21:29 2020.
 Gaussian 16:  ES64L-G16RevA.03 25-Dec-2016

 ----------------------------------------------------------------------
 # B3LYP/6-311++G(d,p) empiricaldispersion=gd3bj scf=xqc pop=npa geom=c
 heck
 ----------------------------------------------------------------------

 -----------------------------------
 CID_69030760_JID_1800_Energie_anion
 -----------------------------------
 Structure from the checkpoint file:  "JID_1800.chk"
 Charge = -1 Multiplicity = 2

                         Standard orientation:
 ---------------------------------------------------------------------
 Center     Atomic      Atomic             Coordinates (Angstroms)
 Number     Number       Type             X           Y           Z
 ---------------------------------------------------------------------
      1          6           0       -1.659227    2.589382   -0.142420
      2          6           0       -1.168938    1.435367   -0.587992
      3          6           0       -0.693695    0.333057    0.325266
      4          6           0       -1.473109   -0.954814    0.050538
      5          8           0       -1.685061   -1.410123   -1.050717
      6          8           0       -1.895524   -1.536821    1.191555
      7          7           0        0.732444    0.057689    0.164798
      8          6           0        1.707393    0.453829    1.056819
      9          6           0        2.933443    0.129831    0.521096
     10          6           0        2.695240   -0.477526   -0.746504
     11          6           0        1.332816   -0.504352   -0.945542
     12          1           0       -1.752363    2.799750    0.920968
     13          1           0       -1.984446    3.370731   -0.822990
     14          1           0       -1.083680    1.229229   -1.651888
     15          1           0       -0.848376    0.615279    1.368249
     16          1           0       -2.358399   -2.355967    0.928951
     17          1           0        1.436097    0.929485    1.988199
     18          1           0        3.892917    0.301283    0.989585
     19          1           0        3.439098   -0.861104   -1.431459
     20          1           0        0.733187   -0.885592   -1.757476
 ---------------------------------------------------------------------

 SCF Done:  E(UB3LYP) =  -515.607823362     A.U. after   33 cycles
 SCF Done:  E(UB3LYP) =  -515.607823362     a.u. after    1 cycles

 The electronic state is 2-A.
 Alpha  occ. eigenvalues --  -19.05850 -19.00528 -14.26017 -10.19412 -10.12701
 Alpha  occ. eigenvalues --  -10.08798 -10.08565 -10.07134 -10.06112 -10.05633
 Alpha  occ. eigenvalues --  -10.05572  -1.00076  -0.91331  -0.88421  -0.72698
 Alpha  occ. eigenvalues --   -0.66245  -0.62249  -0.60538  -0.51833  -0.48384
 Alpha  occ. eigenvalues --   -0.46977  -0.44568  -0.42553  -0.40060  -0.38099
 Alpha  occ. eigenvalues --   -0.35173  -0.34299  -0.33527  -0.31924  -0.30641
 Alpha  occ. eigenvalues --   -0.29880  -0.28967  -0.28003  -0.27686  -0.25031
 Alpha  occ. eigenvalues --   -0.21818  -0.18621  -0.16616  -0.13842  -0.11638
 Alpha  occ. eigenvalues --    0.05094
 Alpha virt. eigenvalues --    0.07356   0.07729   0.07956   0.08366   0.09402
 Alpha virt. eigenvalues --    0.10348   0.10817   0.11764   0.12585   0.12871
 Alpha virt. eigenvalues --    0.13775   0.14932   0.15263   0.15546   0.15848

  Beta  occ. eigenvalues --  -19.05769 -19.00449 -14.25990 -10.19317 -10.12688
  Beta  occ. eigenvalues --  -10.08784 -10.08562 -10.07069 -10.06007 -10.05629
  Beta  occ. eigenvalues --  -10.05567  -0.99907  -0.91175  -0.88379  -0.72594
  Beta  occ. eigenvalues --   -0.66117  -0.62223  -0.60384  -0.51606  -0.48296
  Beta  occ. eigenvalues --   -0.46849  -0.44514  -0.42441  -0.39925  -0.37991
  Beta  occ. eigenvalues --   -0.35002  -0.34223  -0.33338  -0.31861  -0.30556
  Beta  occ. eigenvalues --   -0.29781  -0.28912  -0.27984  -0.27616  -0.24945
  Beta  occ. eigenvalues --   -0.21525  -0.18407  -0.16231  -0.13796  -0.11626
  Beta virt. eigenvalues --    0.07395   0.08154   0.08683   0.08843   0.09222
  Beta virt. eigenvalues --    0.10026   0.10711   0.11171   0.12179   0.12978
  Beta virt. eigenvalues --    0.13054   0.13946   0.14965   0.15281   0.15527

 Mulliken charges and spin densities:
               1          2
     1  C    0.898388  -1.488241
     2  C   -1.188756   1.567552
     3  C    0.534033  -0.949359
     4  C    0.435076  -0.570346
     5  O   -0.281102   0.031393
     6  O   -0.165302   0.045490
     7  N    0.428196  -0.004329
     8  C    0.547710  -0.623705
     9  C   -0.323953   0.032293
    10  C    0.193799  -0.328020
    11  C   -0.347349  -0.005569
    12  H   -0.266208   0.381734
    13  H   -0.230626   0.352469
    14  H   -0.111817   0.314836
    15  H   -0.307515   0.576047
    16  H   -0.720677   1.014169
    17  H   -0.156501   0.289157
    18  H   -0.168691   0.308230
    19  H    0.016029   0.120371
    20  H    0.215268  -0.064173
 Sum of Mulliken charges =  -1.00000   1.00000

 Dipole moment (field-independent basis, Debye):
    X=              5.1222    Y=              1.5814    Z=             -2.9242  Tot=              6.1065
 Quadrupole moment (field-independent basis, Debye-Ang):
   XX=           -115.3464   YY=           -107.1128   ZZ=            -92.5524
   XY=             -6.7611   XZ=              3.8389   YZ=              4.2326

 Summary of Natural Population Analysis:

                                       Natural Population
                Natural  -----------------------------------------------
    Atom  No    Charge         Core      Valence    Rydberg      Total
 -----------------------------------------------------------------------
      C    1   -0.16434      0.99956     2.15741    0.00738     3.16434
      C    2   -0.08368      0.99954     2.07370    0.01043     3.08368
      C    3   -0.05960      0.99951     2.04296    0.01713     3.05960
      C    4    0.41996      0.99971     1.55438    0.02596     2.58004
      O    5   -0.30505      0.99987     3.29893    0.00625     4.30505
      O    6   -0.33749      0.99988     3.33054    0.00707     4.33749
      N    7   -0.19763      0.99965     2.68692    0.01106     3.69763
      C    8   -0.01322      0.99955     2.00146    0.01221     3.01322
      C    9   -0.15039      0.99957     2.14172    0.00910     3.15039
      C   10   -0.15042      0.99957     2.14100    0.00984     3.15042
      C   11   -0.01942      0.99955     2.00897    0.01089     3.01942
      H   12    0.09144      0.00000     0.40711    0.00145     0.40856
      H   13    0.09359      0.00000     0.40541    0.00101     0.40641
      H   14    0.09909      0.00000     0.39971    0.00121     0.40091
      H   15    0.11491      0.00000     0.38202    0.00307     0.38509
      H   16    0.24751      0.00000     0.21422    0.03827     0.25249
      H   17    0.10202      0.00000     0.39675    0.00123     0.39798
      H   18    0.10210      0.00000     0.39711    0.00078     0.39790
      H   19    0.10099      0.00000     0.39834    0.00067     0.39901
      H   20    0.10963      0.00000     0.38932    0.00105     0.39037
 =======================================================================
   * Total *   -0.00000     10.99595    28.82798    0.17606    40.00000

 Normal termination of Gaussian 16 at Tue Dec  8 21:28:28 2020.
