 Gaussian 16, Revision A.03,

 -----------------------------------------------------------
 # opt freq B3LYP/6-31G(d) empiricaldispersion=gd3bj scf=xqc
 -----------------------------------------------------------

 -------------------------------
 CID_154659213_JID_5988_neutraal
 -------------------------------
 Symbolic Z-matrix:
 Charge =  0 Multiplicity = 1

 SCF Done:  E(RB3LYP) =  -730.907554373     A.U. after   15 cycles
 SCF Done:  E(RB3LYP) =  -730.913759079     A.U. after   13 cycles
 SCF Done:  E(RB3LYP) =  -730.914530198     A.U. after   12 cycles
 SCF Done:  E(RB3LYP) =  -730.915345294     A.U. after   12 cycles
 SCF Done:  E(RB3LYP) =  -730.915431230     A.U. after   12 cycles
 SCF Done:  E(RB3LYP) =  -730.915805888     A.U. after   11 cycles
 SCF Done:  E(RB3LYP) =  -730.915878209     A.U. after   10 cycles
 SCF Done:  E(RB3LYP) =  -730.915900351     A.U. after   10 cycles
 SCF Done:  E(RB3LYP) =  -730.915906877     A.U. after    9 cycles
 SCF Done:  E(RB3LYP) =  -730.915911206     A.U. after    8 cycles
 SCF Done:  E(RB3LYP) =  -730.915913024     A.U. after    9 cycles
 SCF Done:  E(RB3LYP) =  -730.915913726     A.U. after    8 cycles
 SCF Done:  E(RB3LYP) =  -730.915913896     A.U. after    7 cycles
 SCF Done:  E(RB3LYP) =  -730.915913930     A.U. after    6 cycles
 Optimization completed.
    -- Stationary point found.
 Normal termination of Gaussian 16 at Thu Dec 10 17:44:47 2020.

 --------------------------------------------------------------------
 #N Geom=AllCheck Guess=TCheck SCRF=Check GenChk RB3LYP/6-31G(d) Freq
 --------------------------------------------------------------------

 Structure from the checkpoint file:  "JID_5988.chk"
 -------------------------------
 CID_154659213_JID_5988_neutraal
 -------------------------------
 Charge =  0 Multiplicity = 1

 SCF Done:  E(RB3LYP) =  -730.915913930     A.U. after    1 cycles

  Exact polarizability: 167.178   2.270 128.403  -5.435  -8.938  89.359
 Approx polarizability: 193.932  14.543 212.461  -9.840 -27.495 130.269

                      1                      2                      3
                      A                      A                      A
 Frequencies --     33.1273                40.1269                58.1671
 Red. masses --      4.3633                 2.9341                 3.9786
 Frc consts  --      0.0028                 0.0028                 0.0079
 IR Inten    --      0.6416                 0.1189                 0.1274

                      4                      5                      6
                      A                      A                      A
 Frequencies --     74.9107                93.4039               110.3854
 Red. masses --      4.4592                 3.5733                 6.1245
 Frc consts  --      0.0147                 0.0184                 0.0440
 IR Inten    --      1.0793                 1.3723                 1.0067

                      7                      8                      9
                      A                      A                      A
 Frequencies --    132.8067               160.6548               169.9277
 Red. masses --      4.4697                 2.0879                 1.0371
 Frc consts  --      0.0464                 0.0317                 0.0176
 IR Inten    --      2.7099                 0.5741                 0.4071

                     10                     11                     12
                      A                      A                      A
 Frequencies --    189.9805               214.1010               242.6194
 Red. masses --      1.5338                 2.8524                 2.0023
 Frc consts  --      0.0326                 0.0770                 0.0694
 IR Inten    --      1.5676                 0.5650                 2.5141

                     13                     14                     15
                      A                      A                      A
 Frequencies --    251.0867               268.3936               288.4920
 Red. masses --      1.5577                 1.7462                 3.5244
 Frc consts  --      0.0579                 0.0741                 0.1728
 IR Inten    --      0.5906                 2.4045                 4.5461

                     16                     17                     18
                      A                      A                      A
 Frequencies --    312.1650               339.7024               346.7943
 Red. masses --      2.3661                 1.8029                 1.8824
 Frc consts  --      0.1358                 0.1226                 0.1334
 IR Inten    --      0.3133                 2.1668                10.1558

                     19                     20                     21
                      A                      A                      A
 Frequencies --    368.5734               402.8270               411.6850
 Red. masses --      2.7594                 2.7007                 3.0795
 Frc consts  --      0.2209                 0.2582                 0.3075
 IR Inten    --      0.2767                 1.5088                 0.8853

                     22                     23                     24
                      A                      A                      A
 Frequencies --    446.4335               462.7964               493.2160
 Red. masses --      3.0972                 3.0716                 3.5964
 Frc consts  --      0.3637                 0.3876                 0.5155
 IR Inten    --      5.1368                 3.4340                 3.9113

                     25                     26                     27
                      A                      A                      A
 Frequencies --    531.1835               581.8462               622.2522
 Red. masses --      3.3173                 2.6011                 3.9053
 Frc consts  --      0.5515                 0.5188                 0.8909
 IR Inten    --     14.6200                 1.1344                 2.1961

                     28                     29                     30
                      A                      A                      A
 Frequencies --    652.4750               670.5497               708.9701
 Red. masses --      1.4071                 3.7604                 1.6159
 Frc consts  --      0.3529                 0.9962                 0.4786
 IR Inten    --      9.6093                 1.9237                 1.0364

                     31                     32                     33
                      A                      A                      A
 Frequencies --    749.2075               820.3621               827.2730
 Red. masses --      3.5015                 2.6063                 2.3316
 Frc consts  --      1.1580                 1.0334                 0.9402
 IR Inten    --      4.8418                35.8564                22.4265

                     34                     35                     36
                      A                      A                      A
 Frequencies --    830.1403               861.5698               884.4590
 Red. masses --      1.5689                 2.8010                 4.3750
 Frc consts  --      0.6370                 1.2250                 2.0164
 IR Inten    --     52.4864                10.9818                22.2182

                     37                     38                     39
                      A                      A                      A
 Frequencies --    945.7481               964.0298               975.1933
 Red. masses --      1.5060                 2.5702                 1.3381
 Frc consts  --      0.7936                 1.4073                 0.7497
 IR Inten    --      0.6779               119.1795                30.4776

                     40                     41                     42
                      A                      A                      A
 Frequencies --    981.9378               996.7548               999.2398
 Red. masses --      2.1060                 1.6399                 1.3315
 Frc consts  --      1.1964                 0.9600                 0.7833
 IR Inten    --     22.5048                11.4090                17.6810

                     43                     44                     45
                      A                      A                      A
 Frequencies --   1005.3560              1039.5192              1040.9454
 Red. masses --      2.0119                 1.3845                 1.3888
 Frc consts  --      1.1981                 0.8815                 0.8867
 IR Inten    --     51.9831                10.8495                 5.1125

                     46                     47                     48
                      A                      A                      A
 Frequencies --   1087.0637              1096.3452              1148.5647
 Red. masses --      1.4623                 1.8263                 2.3997
 Frc consts  --      1.0181                 1.2934                 1.8652
 IR Inten    --      0.4473                45.6919               116.1616

                     49                     50                     51
                      A                      A                      A
 Frequencies --   1173.6030              1229.7855              1234.4789
 Red. masses --      3.1624                 3.7128                 2.4432
 Frc consts  --      2.5663                 3.3084                 2.1937
 IR Inten    --   1272.5937                 7.9865                 8.0563

                     52                     53                     54
                      A                      A                      A
 Frequencies --   1242.3915              1263.1426              1270.4793
 Red. masses --      2.4685                 3.2809                 4.0379
 Frc consts  --      2.2449                 3.0843                 3.8400
 IR Inten    --     46.7579                37.2411               103.7516

                     55                     56                     57
                      A                      A                      A
 Frequencies --   1369.4756              1373.9010              1396.9693
 Red. masses --      4.4574                 1.2355                 1.1840
 Frc consts  --      4.9254                 1.3740                 1.3614
 IR Inten    --    114.9531                53.1778                 6.1847

                     58                     59                     60
                      A                      A                      A
 Frequencies --   1423.7480              1433.8870              1438.3953
 Red. masses --      1.3402                 1.2619                 1.2461
 Frc consts  --      1.6007                 1.5286                 1.5190
 IR Inten    --     32.1205                32.2760                15.7666

                     61                     62                     63
                      A                      A                      A
 Frequencies --   1440.1811              1449.4185              1462.8074
 Red. masses --      1.2587                 1.2088                 1.2483
 Frc consts  --      1.5382                 1.4962                 1.5737
 IR Inten    --     19.7095                19.7385                12.9059

                     64                     65                     66
                      A                      A                      A
 Frequencies --   1476.0622              1503.1110              1512.1556
 Red. masses --      1.1793                 1.0443                 1.0472
 Frc consts  --      1.5138                 1.3902                 1.4108
 IR Inten    --      6.4575                 6.3911                 0.2561

                     67                     68                     69
                      A                      A                      A
 Frequencies --   1517.7404              1519.0575              1522.4255
 Red. masses --      1.0498                 1.0542                 1.0498
 Frc consts  --      1.4248                 1.4332                 1.4337
 IR Inten    --      0.5601                15.3406                 2.1540

                     70                     71                     72
                      A                      A                      A
 Frequencies --   1528.8674              1539.2854              1548.1919
 Red. masses --      1.0514                 1.0591                 1.0500
 Frc consts  --      1.4479                 1.4785                 1.4828
 IR Inten    --      0.1167                24.5545                 2.4822

                     73                     74                     75
                      A                      A                      A
 Frequencies --   1713.8720              1719.6997              1783.4771
 Red. masses --      4.2870                 5.2235                11.1332
 Frc consts  --      7.4192                 9.1016                20.8644
 IR Inten    --    175.0438                18.4301               189.5003

                     76                     77                     78
                      A                      A                      A
 Frequencies --   3058.6432              3070.4719              3080.8386
 Red. masses --      1.0356                 1.0849                 1.0391
 Frc consts  --      5.7084                 6.0263                 5.8110
 IR Inten    --     16.6897                23.9072                 6.3554

                     79                     80                     81
                      A                      A                      A
 Frequencies --   3084.9935              3089.5948              3114.6732
 Red. masses --      1.0356                 1.0370                 1.1002
 Frc consts  --      5.8071                 5.8324                 6.2886
 IR Inten    --     15.8310                 6.8414                12.7971

                     82                     83                     84
                      A                      A                      A
 Frequencies --   3141.6352              3146.8958              3162.1860
 Red. masses --      1.1038                 1.1028                 1.1017
 Frc consts  --      6.4186                 6.4347                 6.4908
 IR Inten    --     17.2420                18.0171                 9.6814

                     85                     86                     87
                      A                      A                      A
 Frequencies --   3168.4099              3176.1157              3180.7980
 Red. masses --      1.1014                 1.0621                 1.1034
 Frc consts  --      6.5146                 6.3126                 6.5775
 IR Inten    --     13.6074                12.3438                 0.7142

                     88                     89                     90
                      A                      A                      A
 Frequencies --   3183.8883              3186.5759              3196.9856
 Red. masses --      1.1016                 1.1012                 1.0602
 Frc consts  --      6.5793                 6.5884                 6.3841
 IR Inten    --     17.4558                 5.1350                 6.6755

                     91                     92                     93
                      A                      A                      A
 Frequencies --   3211.7896              3270.9941              3278.9606
 Red. masses --      1.0933                 1.1144                 1.1162
 Frc consts  --      6.6448                 7.0250                 7.0707
 IR Inten    --      8.0636                 4.9136                13.3261

 - Thermochemistry -
 -------------------
 Temperature   298.150 Kelvin.  Pressure   1.00000 Atm.
 Atom     1 has atomic number  6 and mass  12.00000

 Molecular mass:   214.12051 amu.
 Principal axes and moments of inertia in atomic units:
                           1         2         3
     Eigenvalues --  1135.969436789.562787202.22648
           X            1.00000   0.00052   0.00255
           Y           -0.00059   0.99964   0.02676
           Z           -0.00253  -0.02676   0.99964
 This molecule is an asymmetric top.
 Rotational symmetry number  1.
 Warning -- assumption of classical behavior for rotation
           may cause significant error
 Rotational temperatures (Kelvin)      0.07625     0.01276     0.01203
 Rotational constants (GHZ):           1.58872     0.26581     0.25058
 Zero-point vibrational energy     734653.2 (Joules/Mol)
                                  175.58633 (Kcal/Mol)
 Warning -- explicit consideration of  26 degrees of freedom as
           vibrations may cause significant error
 Vibrational temperatures:     47.66    57.73    83.69   107.78   134.39
          (Kelvin)            158.82   191.08   231.15   244.49   273.34
                              308.04   349.08   361.26   386.16   415.08
                              449.14   488.76   498.96   530.29   579.58
                              592.32   642.32   665.86   709.63   764.25
                              837.15   895.28   938.77   964.77  1020.05
                             1077.94  1180.32  1190.26  1194.39  1239.61
                             1272.54  1360.72  1387.02  1403.09  1412.79
                             1434.11  1437.68  1446.48  1495.64  1497.69
                             1564.04  1577.40  1652.53  1688.55  1769.39
                             1776.14  1787.52  1817.38  1827.94  1970.37
                             1976.74  2009.93  2048.46  2063.04  2069.53
                             2072.10  2085.39  2104.65  2123.72  2162.64
                             2175.65  2183.69  2185.58  2190.43  2199.70
                             2214.69  2227.50  2465.88  2474.26  2566.03
                             4400.71  4417.72  4432.64  4438.62  4445.24
                             4481.32  4520.11  4527.68  4549.68  4558.64
                             4569.72  4576.46  4580.91  4584.77  4599.75
                             4621.05  4706.23  4717.69

 Zero-point correction=                           0.279815 (Hartree/Particle)
 Thermal correction to Energy=                    0.297102
 Thermal correction to Enthalpy=                  0.298046
 Thermal correction to Gibbs Free Energy=         0.234644
 Sum of electronic and zero-point Energies=           -730.636099
 Sum of electronic and thermal Energies=              -730.618812
 Sum of electronic and thermal Enthalpies=            -730.617868
 Sum of electronic and thermal Free Energies=         -730.681270

                     E (Thermal)             CV                S
                      KCal/Mol        Cal/Mol-Kelvin    Cal/Mol-Kelvin
 Total                  186.434             63.827            133.441
 Electronic               0.000              0.000              0.000
 Translational            0.889              2.981             41.987
 Rotational               0.889              2.981             32.385
 Vibrational            184.657             57.866             59.069
 Vibration     1          0.594              1.983              5.633
 Vibration     2          0.594              1.981              5.253
 Vibration     3          0.596              1.974              4.518
 Vibration     4          0.599              1.966              4.020
 Vibration     5          0.602              1.954              3.587
 Vibration     6          0.606              1.941              3.262
 Vibration     7          0.613              1.921              2.905
 Vibration     8          0.622              1.891              2.542
 Vibration     9          0.625              1.879              2.436
 Vibration    10          0.633              1.854              2.228
 Vibration    11          0.644              1.819              2.008
 Vibration    12          0.659              1.775              1.784
 Vibration    13          0.663              1.761              1.723
 Vibration    14          0.673              1.731              1.607
 Vibration    15          0.685              1.695              1.483
 Vibration    16          0.701              1.650              1.351
 Vibration    17          0.720              1.596              1.214
 Vibration    18          0.725              1.582              1.181
 Vibration    19          0.741              1.537              1.086
 Vibration    20          0.768              1.464              0.952
 Vibration    21          0.776              1.445              0.921
 Vibration    22          0.806              1.369              0.807
 Vibration    23          0.820              1.333              0.758
 Vibration    24          0.849              1.265              0.675
 Vibration    25          0.886              1.181              0.585
 Vibration    26          0.939              1.071              0.482

                           ! Non-Optimized Parameters !
 Normal termination of Gaussian 16 at Thu Dec 10 17:55:25 2020.

 ----------------------------------------------------------------------
 # B3LYP/6-311++G(d,p) empiricaldispersion=gd3bj scf=xqc pop=npa geom=c
 heck
 ----------------------------------------------------------------------

 ---------------------------------------
 CID_154659213_JID_5988_Energie_neutraal
 ---------------------------------------
 Structure from the checkpoint file:  "JID_5988.chk"
 Charge =  0 Multiplicity = 1

 SCF Done:  E(RB3LYP) =  -731.130173466     A.U. after   15 cycles
 Normal termination of Gaussian 16 at Thu Dec 10 18:00:53 2020.

 ----------------------------------------------------------------------
 # B3LYP/6-311++G(d,p) empiricaldispersion=gd3bj scf=xqc pop=npa geom=c
 heck
 ----------------------------------------------------------------------

 -------------------------------------
 CID_154659213_JID_5988_Energie_kation
 -------------------------------------
 Structure from the checkpoint file:  "JID_5988.chk"
 Charge =  1 Multiplicity = 2

 SCF Done:  E(UB3LYP) =  -730.812196561     A.U. after   33 cycles
 SCF Done:  E(UB3LYP) =  -730.812197687     a.u. after    3 cycles
 Normal termination of Gaussian 16 at Thu Dec 10 18:44:18 2020.
 Gaussian 16:  ES64L-G16RevA.03 25-Dec-2016

 ----------------------------------------------------------------------
 # B3LYP/6-311++G(d,p) empiricaldispersion=gd3bj scf=xqc pop=npa geom=c
 heck
 ----------------------------------------------------------------------

 ------------------------------------
 CID_154659213_JID_5988_Energie_anion
 ------------------------------------
 Structure from the checkpoint file:  "JID_5988.chk"
 Charge = -1 Multiplicity = 2

                         Standard orientation:
 ---------------------------------------------------------------------
 Center     Atomic      Atomic             Coordinates (Angstroms)
 Number     Number       Type             X           Y           Z
 ---------------------------------------------------------------------
      1          6           0        2.391210    1.489374    1.226305
      2          6           0        2.203336    0.743461   -0.090893
      3          8           0        2.840369   -0.540012   -0.044056
      4          6           0        4.170317   -0.624414   -0.319436
      5          6           0        5.043166    0.354473   -0.571832
      6          8           0        0.872230    0.592405   -0.496678
      7          6           0       -0.002909   -0.428180   -0.018104
      8          6           0        0.062788   -1.612080   -0.976434
      9          6           0        0.174611   -0.818135    1.444774
     10          8           0       -1.266222    0.277491   -0.179440
     11          6           0       -2.451328   -0.319632    0.057886
     12          8           0       -2.595956   -1.463650    0.450833
     13          6           0       -3.608865    0.588107   -0.211075
     14          6           0       -3.423824    1.832985   -0.666011
     15          6           0       -4.958382   -0.016727    0.064934
     16          1           0        2.056565    0.896945    2.077876
     17          1           0        1.823019    2.423473    1.194986
     18          1           0        3.449799    1.724748    1.369775
     19          1           0        2.651817    1.318801   -0.908091
     20          1           0        4.470253   -1.668335   -0.312211
     21          1           0        6.070223    0.088821   -0.792394
     22          1           0        4.794278    1.408748   -0.574380
     23          1           0        1.059232   -2.054788   -0.920984
     24          1           0       -0.689553   -2.359430   -0.721449
     25          1           0       -0.105173   -1.252503   -1.995281
     26          1           0        0.017949    0.049878    2.089775
     27          1           0       -0.567459   -1.577210    1.694426
     28          1           0        1.173221   -1.225917    1.608988
     29          1           0       -4.268830    2.487393   -0.862593
     30          1           0       -2.430875    2.224759   -0.853490
     31          1           0       -5.112543   -0.917294   -0.539486
     32          1           0       -5.038799   -0.330723    1.111492
     33          1           0       -5.757207    0.697368   -0.152917
 ---------------------------------------------------------------------

 SCF Done:  E(UB3LYP) =  -731.124365726     A.U. after   33 cycles
 SCF Done:  E(UB3LYP) =  -731.124365727     a.u. after    1 cycles

 The electronic state is 2-A.
 Alpha  occ. eigenvalues --  -19.06758 -19.03475 -19.02976 -18.96189 -10.19332
 Alpha  occ. eigenvalues --  -10.18799 -10.14829 -10.14218 -10.07503 -10.06736
 Alpha  occ. eigenvalues --  -10.05837 -10.05218 -10.04890 -10.04454 -10.02561
 Alpha  occ. eigenvalues --   -1.00339  -0.97644  -0.93281  -0.87761  -0.70355
 Alpha  occ. eigenvalues --   -0.67541  -0.66465  -0.65122  -0.59735  -0.57786
 Alpha  occ. eigenvalues --   -0.56561  -0.53736  -0.50165  -0.45434  -0.43103
 Alpha  occ. eigenvalues --   -0.41072  -0.40124  -0.38187  -0.37234  -0.35879
 Alpha  occ. eigenvalues --   -0.35026  -0.34498  -0.33350  -0.32308  -0.31759
 Alpha  occ. eigenvalues --   -0.31195  -0.30214  -0.29471  -0.29299  -0.28992
 Alpha  occ. eigenvalues --   -0.27712  -0.27333  -0.26991  -0.25805  -0.25234
 Alpha  occ. eigenvalues --   -0.23847  -0.22994  -0.22052  -0.19116  -0.17186
 Alpha  occ. eigenvalues --   -0.15002  -0.14010  -0.13995   0.04569
 Alpha virt. eigenvalues --    0.05723   0.07353   0.07929   0.08336   0.09340
 Alpha virt. eigenvalues --    0.09766   0.10100   0.10482   0.10959   0.11390
 Alpha virt. eigenvalues --    0.11898   0.12261   0.12689   0.13049   0.13869

  Beta  occ. eigenvalues --  -19.06759 -19.03473 -19.02935 -18.95956 -10.19327
  Beta  occ. eigenvalues --  -10.18801 -10.14601 -10.14205 -10.07487 -10.06704
  Beta  occ. eigenvalues --  -10.05825 -10.05216 -10.04899 -10.04363 -10.02264
  Beta  occ. eigenvalues --   -1.00318  -0.97510  -0.93167  -0.87452  -0.70274
  Beta  occ. eigenvalues --   -0.67369  -0.66300  -0.65088  -0.59721  -0.57712
  Beta  occ. eigenvalues --   -0.56358  -0.53526  -0.49876  -0.45151  -0.43049
  Beta  occ. eigenvalues --   -0.40951  -0.40083  -0.38154  -0.37168  -0.35726
  Beta  occ. eigenvalues --   -0.34780  -0.34239  -0.33242  -0.32251  -0.31678
  Beta  occ. eigenvalues --   -0.30807  -0.30181  -0.29351  -0.29224  -0.28947
  Beta  occ. eigenvalues --   -0.27675  -0.27112  -0.26930  -0.25753  -0.24975
  Beta  occ. eigenvalues --   -0.23676  -0.22959  -0.21946  -0.18711  -0.16772
  Beta  occ. eigenvalues --   -0.14978  -0.13778  -0.12495
  Beta virt. eigenvalues --    0.06763   0.07777   0.08067   0.08364   0.09155
  Beta virt. eigenvalues --    0.09486   0.09885   0.10086   0.10770   0.11039
  Beta virt. eigenvalues --    0.11448   0.11808   0.12217   0.12695   0.13204

 Mulliken charges and spin densities:
               1          2
     1  C    0.443059  -0.711392
     2  C   -0.717719   0.191948
     3  O   -0.011310   0.001602
     4  C   -0.217630   0.348317
     5  C    1.009154  -1.457607
     6  O   -0.015397   0.001772
     7  C   -0.103118  -0.097401
     8  C   -0.253464  -0.064268
     9  C   -0.306975  -0.040103
    10  O    0.066330   0.009367
    11  C   -0.358691   0.152528
    12  O   -0.307936   0.083045
    13  C    0.778066  -0.015464
    14  C   -0.796882   0.319103
    15  C   -0.718856   0.016407
    16  H   -0.004159   0.160788
    17  H    0.098313   0.060579
    18  H    0.025530   0.123246
    19  H    0.084287   0.092951
    20  H   -0.390449   0.566877
    21  H   -0.757173   0.919302
    22  H   -0.058016   0.171983
    23  H    0.171993   0.010886
    24  H    0.170199   0.000953
    25  H    0.158970  -0.000582
    26  H    0.147003   0.013818
    27  H    0.159325   0.042362
    28  H    0.075253   0.107987
    29  H    0.089305  -0.016327
    30  H    0.153978  -0.018979
    31  H    0.146902   0.003922
    32  H    0.128959   0.022475
    33  H    0.111149  -0.000095
 Sum of Mulliken charges =  -1.00000   1.00000

 Dipole moment (field-independent basis, Debye):
    X=             -2.6364    Y=              0.2355    Z=              0.8907  Tot=              2.7927
 Quadrupole moment (field-independent basis, Debye-Ang):
   XX=           -200.7565   YY=           -116.3635   ZZ=           -110.4511
   XY=              4.3891   XZ=              5.6787   YZ=              1.3547

 Summary of Natural Population Analysis:

                                       Natural Population
                Natural  -----------------------------------------------
    Atom  No    Charge         Core      Valence    Rydberg      Total
 -----------------------------------------------------------------------
      C    1   -0.31055      0.99963     2.30566    0.00526     3.31055
      C    2    0.22558      0.99956     1.75651    0.01834     2.77442
      O    3   -0.29050      0.99986     3.27989    0.01075     4.29050
      C    4    0.08961      0.99947     1.89576    0.01516     2.91039
      C    5   -0.26394      0.99959     2.25635    0.00800     3.26394
      O    6   -0.30420      0.99984     3.29496    0.00940     4.30420
      C    7    0.30547      0.99953     1.67609    0.01891     2.69453
      C    8   -0.31080      0.99959     2.30548    0.00574     3.31080
      C    9   -0.32106      0.99959     2.31646    0.00501     3.32106
      O   10   -0.28935      0.99984     3.28014    0.00938     4.28935
      C   11    0.41850      0.99961     1.55580    0.02609     2.58150
      O   12   -0.30847      0.99987     3.30394    0.00466     4.30847
      C   13   -0.05846      0.99949     2.04896    0.01000     3.05846
      C   14   -0.11037      0.99953     2.10295    0.00788     3.11037
      C   15   -0.29178      0.99964     2.28729    0.00485     3.29178
      H   16    0.10515      0.00000     0.39382    0.00104     0.39485
      H   17    0.10663      0.00000     0.39247    0.00090     0.39337
      H   18    0.10414      0.00000     0.39485    0.00101     0.39586
      H   19    0.08391      0.00000     0.41448    0.00161     0.41609
      H   20    0.08991      0.00000     0.40888    0.00121     0.41009
      H   21    0.10661      0.00000     0.39126    0.00213     0.39339
      H   22    0.09452      0.00000     0.40436    0.00112     0.40548
      H   23    0.10555      0.00000     0.39343    0.00102     0.39445
      H   24    0.11376      0.00000     0.38534    0.00090     0.38624
      H   25    0.10453      0.00000     0.39460    0.00087     0.39547
      H   26    0.10349      0.00000     0.39546    0.00104     0.39651
      H   27    0.12147      0.00000     0.37750    0.00103     0.37853
      H   28    0.10642      0.00000     0.39238    0.00120     0.39358
      H   29    0.07928      0.00000     0.41982    0.00090     0.42072
      H   30    0.09858      0.00000     0.40049    0.00093     0.40142
      H   31    0.10205      0.00000     0.39689    0.00106     0.39795
      H   32    0.10207      0.00000     0.39689    0.00105     0.39793
      H   33    0.09224      0.00000     0.40695    0.00081     0.40776
 =======================================================================
   * Total *   -0.00000     14.99465    42.82609    0.17927    58.00000

 Normal termination of Gaussian 16 at Thu Dec 10 19:00:24 2020.
