 Gaussian 16, Revision A.03,

 -----------------------------------------------------------
 # opt freq B3LYP/6-31G(d) empiricaldispersion=gd3bj scf=xqc
 -----------------------------------------------------------

 -------------------------------
 CID_117767757_JID_4259_neutraal
 -------------------------------
 Symbolic Z-matrix:
 Charge =  0 Multiplicity = 1

 SCF Done:  E(RB3LYP) =  -635.885960062     A.U. after   15 cycles
 SCF Done:  E(RB3LYP) =  -635.889487990     A.U. after   13 cycles
 SCF Done:  E(RB3LYP) =  -635.886450350     A.U. after   14 cycles
 SCF Done:  E(RB3LYP) =  -635.889741778     A.U. after   13 cycles
 SCF Done:  E(RB3LYP) =  -635.890300012     A.U. after   12 cycles
 SCF Done:  E(RB3LYP) =  -635.890366328     A.U. after   12 cycles
 SCF Done:  E(RB3LYP) =  -635.890482864     A.U. after   11 cycles
 SCF Done:  E(RB3LYP) =  -635.890561288     A.U. after   11 cycles
 SCF Done:  E(RB3LYP) =  -635.890625504     A.U. after   11 cycles
 SCF Done:  E(RB3LYP) =  -635.890668494     A.U. after   11 cycles
 SCF Done:  E(RB3LYP) =  -635.890702618     A.U. after    9 cycles
 SCF Done:  E(RB3LYP) =  -635.890704327     A.U. after    9 cycles
 SCF Done:  E(RB3LYP) =  -635.890704594     A.U. after    8 cycles
 SCF Done:  E(RB3LYP) =  -635.890704722     A.U. after    7 cycles
 SCF Done:  E(RB3LYP) =  -635.890704828     A.U. after    7 cycles
 SCF Done:  E(RB3LYP) =  -635.890704871     A.U. after    7 cycles
 Optimization completed.
    -- Stationary point found.
 Normal termination of Gaussian 16 at Thu Dec 10 09:29:16 2020.

 --------------------------------------------------------------------
 #N Geom=AllCheck Guess=TCheck SCRF=Check GenChk RB3LYP/6-31G(d) Freq
 --------------------------------------------------------------------

 Structure from the checkpoint file:  "JID_4259.chk"
 -------------------------------
 CID_117767757_JID_4259_neutraal
 -------------------------------
 Charge =  0 Multiplicity = 1

 SCF Done:  E(RB3LYP) =  -635.890704871     A.U. after    1 cycles

  Exact polarizability: 140.969   4.220 117.329  -1.776  -2.357 105.433
 Approx polarizability: 178.848  17.615 178.658  -8.875 -16.138 161.825

                      1                      2                      3
                      A                      A                      A
 Frequencies --     37.3853                67.1448                71.1081
 Red. masses --      3.5716                 5.5834                 4.6588
 Frc consts  --      0.0029                 0.0148                 0.0139
 IR Inten    --      1.4916                 3.6857                 5.6927

                      4                      5                      6
                      A                      A                      A
 Frequencies --     92.7738               104.1237               138.5076
 Red. masses --      2.5240                 3.1234                 1.1246
 Frc consts  --      0.0128                 0.0200                 0.0127
 IR Inten    --      0.0577                 1.4061                 0.3560

                      7                      8                      9
                      A                      A                      A
 Frequencies --    142.3886               150.4229               161.5836
 Red. masses --      1.4573                 1.7105                 3.1092
 Frc consts  --      0.0174                 0.0228                 0.0478
 IR Inten    --      0.5544                 1.5536                 3.3996

                     10                     11                     12
                      A                      A                      A
 Frequencies --    234.4474               238.2744               264.3551
 Red. masses --      1.1547                 3.3384                 1.3506
 Frc consts  --      0.0374                 0.1117                 0.0556
 IR Inten    --      0.1109                 3.2928                 0.9805

                     13                     14                     15
                      A                      A                      A
 Frequencies --    280.9301               292.3751               312.8432
 Red. masses --      1.6501                 2.4684                 3.2374
 Frc consts  --      0.0767                 0.1243                 0.1867
 IR Inten    --      0.0457                 4.7819                 1.4903

                     16                     17                     18
                      A                      A                      A
 Frequencies --    337.0069               399.5994               422.3610
 Red. masses --      2.8173                 2.5234                 5.2175
 Frc consts  --      0.1885                 0.2374                 0.5484
 IR Inten    --      1.9244                 3.3108                 1.6761

                     19                     20                     21
                      A                      A                      A
 Frequencies --    450.7438               483.0104               527.0328
 Red. masses --      3.1708                 3.1568                 2.3779
 Frc consts  --      0.3796                 0.4339                 0.3892
 IR Inten    --      4.8341                 9.8011                 1.0546

                     22                     23                     24
                      A                      A                      A
 Frequencies --    556.6915               590.3805               606.6863
 Red. masses --      3.0913                 2.8777                 3.6262
 Frc consts  --      0.5644                 0.5910                 0.7864
 IR Inten    --      2.4332                12.3772                 0.9109

                     25                     26                     27
                      A                      A                      A
 Frequencies --    631.6213               700.7375               735.2513
 Red. masses --      3.4970                 2.9721                 2.8568
 Frc consts  --      0.8220                 0.8599                 0.9099
 IR Inten    --     10.1807                 1.7644                 2.0747

                     28                     29                     30
                      A                      A                      A
 Frequencies --    784.4639               867.3743               892.9944
 Red. masses --      3.0690                 3.8575                 2.4137
 Frc consts  --      1.1128                 1.7099                 1.1340
 IR Inten    --      3.1689                 5.2192                 2.5737

                     31                     32                     33
                      A                      A                      A
 Frequencies --    933.5836               943.6388               963.3948
 Red. masses --      1.7115                 1.2479                 1.9213
 Frc consts  --      0.8789                 0.6547                 1.0506
 IR Inten    --      5.5300                 2.3693                 2.1760

                     34                     35                     36
                      A                      A                      A
 Frequencies --    976.5328               982.0746              1000.5619
 Red. masses --      1.4266                 2.1066                 1.9235
 Frc consts  --      0.8016                 1.1971                 1.1345
 IR Inten    --      0.1345                 6.9193                 2.5097

                     37                     38                     39
                      A                      A                      A
 Frequencies --   1021.9497              1032.7754              1057.8615
 Red. masses --      1.6829                 2.0284                 2.2101
 Frc consts  --      1.0356                 1.2747                 1.4572
 IR Inten    --     11.2150                 2.3456                 6.9743

                     40                     41                     42
                      A                      A                      A
 Frequencies --   1060.7291              1069.4653              1093.0879
 Red. masses --      1.8350                 1.8721                 1.8586
 Frc consts  --      1.2165                 1.2616                 1.3084
 IR Inten    --      2.6178                 3.1714                 7.5479

                     43                     44                     45
                      A                      A                      A
 Frequencies --   1141.7882              1181.1689              1200.1005
 Red. masses --      2.0113                 1.9647                 1.5946
 Frc consts  --      1.5449                 1.6150                 1.3531
 IR Inten    --      8.3448                 1.7854                23.3495

                     46                     47                     48
                      A                      A                      A
 Frequencies --   1222.1742              1223.8932              1240.2585
 Red. masses --      2.0144                 1.8081                 1.5292
 Frc consts  --      1.7728                 1.5957                 1.3859
 IR Inten    --     31.3930                12.7508                 8.1292

                     49                     50                     51
                      A                      A                      A
 Frequencies --   1255.6858              1277.9485              1322.9570
 Red. masses --      1.7899                 2.0455                 1.3786
 Frc consts  --      1.6628                 1.9682                 1.4216
 IR Inten    --     38.6209                20.6757                 2.3198

                     52                     53                     54
                      A                      A                      A
 Frequencies --   1333.7109              1342.3483              1356.7079
 Red. masses --      1.2768                 1.4214                 1.3672
 Frc consts  --      1.3382                 1.5091                 1.4827
 IR Inten    --      3.8091                17.6310                 3.0545

                     55                     56                     57
                      A                      A                      A
 Frequencies --   1384.4633              1386.2505              1407.2351
 Red. masses --      1.4676                 1.4840                 1.3423
 Frc consts  --      1.6573                 1.6802                 1.5661
 IR Inten    --     14.8608                 0.7158                28.4995

                     58                     59                     60
                      A                      A                      A
 Frequencies --   1412.4646              1416.7754              1435.2475
 Red. masses --      1.3349                 1.3797                 1.2788
 Frc consts  --      1.5691                 1.6316                 1.5521
 IR Inten    --     17.0892                13.5753                 6.6119

                     61                     62                     63
                      A                      A                      A
 Frequencies --   1454.6378              1456.5755              1485.7642
 Red. masses --      1.9162                 1.7554                 1.0579
 Frc consts  --      2.3889                 2.1943                 1.3759
 IR Inten    --    211.4419                99.1070                19.0017

                     64                     65                     66
                      A                      A                      A
 Frequencies --   1497.2268              1503.9679              1518.2655
 Red. masses --      1.0578                 1.0883                 1.0492
 Frc consts  --      1.3972                 1.4504                 1.4250
 IR Inten    --      4.9714                 8.0571                11.1708

                     67                     68                     69
                      A                      A                      A
 Frequencies --   1519.9931              1523.4987              1531.7876
 Red. masses --      1.0431                 1.0666                 1.0558
 Frc consts  --      1.4198                 1.4587                 1.4596
 IR Inten    --      0.1690                 0.9385                 3.7124

                     70                     71                     72
                      A                      A                      A
 Frequencies --   1543.3859              1545.0680              1556.8404
 Red. masses --      1.0623                 1.0600                 1.0737
 Frc consts  --      1.4908                 1.4909                 1.5333
 IR Inten    --      5.0772                14.4917                15.6069

                     73                     74                     75
                      A                      A                      A
 Frequencies --   1767.2427              1811.9830              3010.3640
 Red. masses --     10.1288                10.9596                 1.0836
 Frc consts  --     18.6381                21.2009                 5.7856
 IR Inten    --    342.9779               117.4638                21.5146

                     76                     77                     78
                      A                      A                      A
 Frequencies --   3038.9727              3043.6086              3056.1849
 Red. masses --      1.0717                 1.0362                 1.0633
 Frc consts  --      5.8315                 5.6556                 5.8517
 IR Inten    --     32.2168                24.4765                39.4764

                     79                     80                     81
                      A                      A                      A
 Frequencies --   3057.7249              3057.8110              3064.6778
 Red. masses --      1.0419                 1.0564                 1.0374
 Frc consts  --      5.7395                 5.8197                 5.7408
 IR Inten    --      8.3215                 2.7217                 1.0709

                     82                     83                     84
                      A                      A                      A
 Frequencies --   3081.4149              3096.9375              3108.8167
 Red. masses --      1.0802                 1.0697                 1.1018
 Frc consts  --      6.0428                 6.0448                 6.2742
 IR Inten    --     11.6696                26.7724                31.4227

                     85                     86                     87
                      A                      A                      A
 Frequencies --   3113.2390              3116.3974              3118.5588
 Red. masses --      1.1021                 1.1009                 1.0990
 Frc consts  --      6.2936                 6.2995                 6.2971
 IR Inten    --     14.6069                71.3458                14.3884

                     88                     89                     90
                      A                      A                      A
 Frequencies --   3124.3800              3130.9112              3138.4219
 Red. masses --      1.0974                 1.1013                 1.0921
 Frc consts  --      6.3114                 6.3608                 6.3376
 IR Inten    --      2.2724                28.5751                10.3119

                     91                     92                     93
                      A                      A                      A
 Frequencies --   3148.0342              3174.0573              3179.1248
 Red. masses --      1.0997                 1.1039                 1.1001
 Frc consts  --      6.4210                 6.5523                 6.5508
 IR Inten    --      9.4185                10.4389                 7.9491

 - Thermochemistry -
 -------------------
 Temperature   298.150 Kelvin.  Pressure   1.00000 Atm.
 Atom     1 has atomic number  6 and mass  12.00000

 Molecular mass:   197.14158 amu.
 Principal axes and moments of inertia in atomic units:
                           1         2         3
     Eigenvalues --  1846.067313480.654054358.64007
           X            0.99915  -0.04036   0.00821
           Y            0.03999   0.99835   0.04126
           Z           -0.00986  -0.04090   0.99911
 This molecule is an asymmetric top.
 Rotational symmetry number  1.
 Warning -- assumption of classical behavior for rotation
           may cause significant error
 Rotational temperatures (Kelvin)      0.04692     0.02488     0.01987
 Rotational constants (GHZ):           0.97761     0.51851     0.41406
 Zero-point vibrational energy     764577.2 (Joules/Mol)
                                  182.73834 (Kcal/Mol)
 Warning -- explicit consideration of  24 degrees of freedom as
           vibrations may cause significant error
 Vibrational temperatures:     53.79    96.61   102.31   133.48   149.81
          (Kelvin)            199.28   204.87   216.43   232.48   337.32
                              342.82   380.35   404.20   420.66   450.11
                              484.88   574.93   607.68   648.52   694.94
                              758.28   800.95   849.43   872.89   908.76
                             1008.20  1057.86  1128.67  1247.96  1284.82
                             1343.22  1357.69  1386.11  1405.01  1412.99
                             1439.59  1470.36  1485.93  1522.03  1526.15
                             1538.72  1572.71  1642.78  1699.44  1726.68
                             1758.44  1760.91  1784.46  1806.65  1838.68
                             1903.44  1918.91  1931.34  1952.00  1991.93
                             1994.51  2024.70  2032.22  2038.42  2065.00
                             2092.90  2095.69  2137.68  2154.18  2163.87
                             2184.45  2186.93  2191.97  2203.90  2220.59
                             2223.01  2239.95  2542.67  2607.04  4331.24
                             4372.40  4379.07  4397.17  4399.38  4399.51
                             4409.39  4433.47  4455.80  4472.89  4479.26
                             4483.80  4486.91  4495.29  4504.68  4515.49
                             4529.32  4566.76  4574.05

 Zero-point correction=                           0.291212 (Hartree/Particle)
 Thermal correction to Energy=                    0.306755
 Thermal correction to Enthalpy=                  0.307699
 Thermal correction to Gibbs Free Energy=         0.248576
 Sum of electronic and zero-point Energies=           -635.599493
 Sum of electronic and thermal Energies=              -635.583950
 Sum of electronic and thermal Enthalpies=            -635.583006
 Sum of electronic and thermal Free Energies=         -635.642129

                     E (Thermal)             CV                S
                      KCal/Mol        Cal/Mol-Kelvin    Cal/Mol-Kelvin
 Total                  192.492             57.612            124.434
 Electronic               0.000              0.000              0.000
 Translational            0.889              2.981             41.741
 Rotational               0.889              2.981             31.705
 Vibrational            190.714             51.650             50.988
 Vibration     1          0.594              1.982              5.393
 Vibration     2          0.598              1.970              4.235
 Vibration     3          0.598              1.968              4.122
 Vibration     4          0.602              1.954              3.601
 Vibration     5          0.605              1.946              3.376
 Vibration     6          0.614              1.915              2.824
 Vibration     7          0.616              1.911              2.772
 Vibration     8          0.618              1.902              2.667
 Vibration     9          0.622              1.890              2.531
 Vibration    10          0.654              1.788              1.845
 Vibration    11          0.656              1.782              1.816
 Vibration    12          0.671              1.738              1.633
 Vibration    13          0.681              1.709              1.528
 Vibration    14          0.688              1.688              1.460
 Vibration    15          0.701              1.649              1.347
 Vibration    16          0.718              1.602              1.226
 Vibration    17          0.766              1.471              0.964
 Vibration    18          0.785              1.422              0.884
 Vibration    19          0.810              1.359              0.794
 Vibration    20          0.839              1.288              0.702
 Vibration    21          0.882              1.190              0.594
 Vibration    22          0.912              1.125              0.530
 Vibration    23          0.948              1.052              0.466
 Vibration    24          0.965              1.018              0.438

 Optimization completed.
    -- Stationary point found.
 Normal termination of Gaussian 16 at Thu Dec 10 09:40:01 2020.

 ----------------------------------------------------------------------
 # B3LYP/6-311++G(d,p) empiricaldispersion=gd3bj scf=xqc pop=npa geom=c
 heck
 ----------------------------------------------------------------------

 ---------------------------------------
 CID_117767757_JID_4259_Energie_neutraal
 ---------------------------------------
 Structure from the checkpoint file:  "JID_4259.chk"
 Charge =  0 Multiplicity = 1

 SCF Done:  E(RB3LYP) =  -636.073442315     A.U. after   14 cycles
 Normal termination of Gaussian 16 at Thu Dec 10 09:45:04 2020.

 ----------------------------------------------------------------------
 # B3LYP/6-311++G(d,p) empiricaldispersion=gd3bj scf=xqc pop=npa geom=c
 heck
 ----------------------------------------------------------------------

 -------------------------------------
 CID_117767757_JID_4259_Energie_kation
 -------------------------------------
 Structure from the checkpoint file:  "JID_4259.chk"
 Charge =  1 Multiplicity = 2

 SCF Done:  E(UB3LYP) =  -635.760207928     A.U. after   23 cycles
 Normal termination of Gaussian 16 at Thu Dec 10 09:57:04 2020.
 Gaussian 16:  ES64L-G16RevA.03 25-Dec-2016

 ----------------------------------------------------------------------
 # B3LYP/6-311++G(d,p) empiricaldispersion=gd3bj scf=xqc pop=npa geom=c
 heck
 ----------------------------------------------------------------------

 ------------------------------------
 CID_117767757_JID_4259_Energie_anion
 ------------------------------------
 Structure from the checkpoint file:  "JID_4259.chk"
 Charge = -1 Multiplicity = 2

                         Standard orientation:
 ---------------------------------------------------------------------
 Center     Atomic      Atomic             Coordinates (Angstroms)
 Number     Number       Type             X           Y           Z
 ---------------------------------------------------------------------
      1          6           0        3.727699   -0.884123   -0.509226
      2          6           0        2.510062   -0.825372    0.421985
      3          6           0        2.482012    0.506508    1.183644
      4          6           0        1.210518   -1.136484   -0.354813
      5          6           0        0.771927   -0.051723   -1.379550
      6          6           0       -0.556952    0.520122   -0.844286
      7          7           0       -1.095164   -0.556325   -0.026955
      8          6           0       -0.020322   -1.355121    0.562417
      9          6           0       -2.402796   -0.947850    0.090038
     10          8           0       -2.722899   -1.903299    0.788982
     11          6           0       -3.432936   -0.159550   -0.707314
     12          6           0       -0.355497    1.851664   -0.086191
     13          8           0        0.331713    2.721387   -0.585697
     14          6           0       -1.051717    2.034637    1.244238
     15          1           0        3.679946   -0.099080   -1.273561
     16          1           0        3.790172   -1.849836   -1.024359
     17          1           0        4.657455   -0.739546    0.052083
     18          1           0        2.621714   -1.629825    1.164637
     19          1           0        2.407005    1.361429    0.504033
     20          1           0        1.645177    0.563443    1.888318
     21          1           0        3.402432    0.628228    1.765086
     22          1           0        1.393079   -2.067470   -0.902695
     23          1           0        0.598301   -0.507265   -2.357943
     24          1           0        1.501978    0.747985   -1.516606
     25          1           0       -1.238358    0.755999   -1.668197
     26          1           0       -0.348232   -2.394582    0.614152
     27          1           0        0.181386   -1.031938    1.592318
     28          1           0       -3.393577    0.915526   -0.503797
     29          1           0       -3.282976   -0.296704   -1.785004
     30          1           0       -4.419355   -0.538555   -0.439202
     31          1           0       -0.744169    1.256950    1.951098
     32          1           0       -0.810490    3.020944    1.643742
     33          1           0       -2.137841    1.937616    1.132653
 ---------------------------------------------------------------------

 SCF Done:  E(UB3LYP) =  -636.068414215     A.U. after   31 cycles

 The electronic state is 2-A.
 Alpha  occ. eigenvalues --  -18.98089 -18.97748 -14.23057 -10.16404 -10.12172
 Alpha  occ. eigenvalues --  -10.10079 -10.09429 -10.07721 -10.07189 -10.06711
 Alpha  occ. eigenvalues --  -10.06209 -10.06099 -10.05807 -10.05787  -0.93046
 Alpha  occ. eigenvalues --   -0.91825  -0.83788  -0.71854  -0.66321  -0.65167
 Alpha  occ. eigenvalues --   -0.62925  -0.61244  -0.58765  -0.54015  -0.51503
 Alpha  occ. eigenvalues --   -0.46259  -0.44220  -0.42090  -0.39194  -0.38067
 Alpha  occ. eigenvalues --   -0.35886  -0.35582  -0.34704  -0.33641  -0.33265
 Alpha  occ. eigenvalues --   -0.32002  -0.31336  -0.30548  -0.29979  -0.29674
 Alpha  occ. eigenvalues --   -0.28588  -0.28040  -0.27644  -0.26691  -0.26087
 Alpha  occ. eigenvalues --   -0.25145  -0.24692  -0.23327  -0.22301  -0.21479
 Alpha  occ. eigenvalues --   -0.20923  -0.15986  -0.14822  -0.11728   0.04409
 Alpha virt. eigenvalues --    0.06566   0.07658   0.08098   0.08883   0.09209
 Alpha virt. eigenvalues --    0.09346   0.10658   0.11177   0.11384   0.11781
 Alpha virt. eigenvalues --    0.12106   0.12365   0.12810   0.13775   0.14238

  Beta  occ. eigenvalues --  -18.97871 -18.97745 -14.23055 -10.16402 -10.11886
  Beta  occ. eigenvalues --  -10.10099 -10.09426 -10.07717 -10.07177 -10.06665
  Beta  occ. eigenvalues --  -10.06225 -10.06077 -10.05778 -10.05762  -0.93030
  Beta  occ. eigenvalues --   -0.91385  -0.83761  -0.71828  -0.66249  -0.65009
  Beta  occ. eigenvalues --   -0.62798  -0.61189  -0.58730  -0.53946  -0.51417
  Beta  occ. eigenvalues --   -0.46099  -0.44138  -0.41799  -0.39079  -0.37943
  Beta  occ. eigenvalues --   -0.35848  -0.35474  -0.34567  -0.33571  -0.33067
  Beta  occ. eigenvalues --   -0.31770  -0.31232  -0.30390  -0.29941  -0.29622
  Beta  occ. eigenvalues --   -0.28559  -0.27928  -0.27606  -0.26646  -0.25961
  Beta  occ. eigenvalues --   -0.25083  -0.24626  -0.22759  -0.22012  -0.21296
  Beta  occ. eigenvalues --   -0.20841  -0.15907  -0.14804  -0.11588
  Beta virt. eigenvalues --    0.06703   0.07658   0.08174   0.08973   0.09447
  Beta virt. eigenvalues --    0.09828   0.10018   0.11070   0.11355   0.11575
  Beta virt. eigenvalues --    0.11930   0.12239   0.12788   0.12994   0.13950

 Mulliken charges and spin densities:
               1          2
     1  C    0.225553  -0.879757
     2  C   -0.417649   0.498436
     3  C   -0.484800  -0.071144
     4  C    0.013669   0.462089
     5  C    1.053435  -1.713561
     6  C   -0.200939   0.288392
     7  N    0.065841   0.042378
     8  C   -0.153910  -0.493252
     9  C   -0.190848   0.425304
    10  O   -0.354047   0.005176
    11  C    0.513527  -1.048541
    12  C   -0.410877   0.243441
    13  O   -0.285403   0.078922
    14  C   -0.099604  -0.311983
    15  H    0.110714   0.023297
    16  H   -0.178674   0.309920
    17  H   -0.121698   0.250048
    18  H   -0.030748   0.192507
    19  H    0.170251   0.003924
    20  H    0.085796   0.004919
    21  H    0.085173   0.066226
    22  H   -0.011024   0.250571
    23  H   -0.448333   0.636799
    24  H    0.257272  -0.042162
    25  H   -0.277765   0.521646
    26  H   -0.016730   0.211799
    27  H    0.228032  -0.047656
    28  H   -0.130681   0.264817
    29  H   -0.271846   0.455221
    30  H    0.004064   0.178629
    31  H    0.160950  -0.012738
    32  H    0.142735   0.025309
    33  H   -0.031438   0.181025
 Sum of Mulliken charges =  -1.00000   1.00000

 Dipole moment (field-independent basis, Debye):
    X=              1.9263    Y=              0.8638    Z=              4.0909  Tot=              4.6035
 Quadrupole moment (field-independent basis, Debye-Ang):
   XX=           -139.8569   YY=           -131.0441   ZZ=           -120.5680
   XY=             -2.3453   XZ=              1.1502   YZ=              3.0656

 Summary of Natural Population Analysis:

                                       Natural Population
                Natural  -----------------------------------------------
    Atom  No    Charge         Core      Valence    Rydberg      Total
 -----------------------------------------------------------------------
      C    1   -0.28342      0.99965     2.27782    0.00594     3.28342
      C    2   -0.10789      0.99960     2.09891    0.00939     3.10789
      C    3   -0.29156      0.99964     2.28618    0.00574     3.29156
      C    4   -0.11290      0.99958     2.10136    0.01196     3.11290
      C    5   -0.18875      0.99960     2.17877    0.01038     3.18875
      C    6   -0.05065      0.99954     2.03641    0.01470     3.05065
      N    7   -0.26017      0.99964     2.74850    0.01203     3.76017
      C    8   -0.07878      0.99960     2.06871    0.01047     3.07878
      C    9    0.34738      0.99965     1.63076    0.02221     2.65262
      O   10   -0.33200      0.99988     3.32674    0.00539     4.33200
      C   11   -0.33035      0.99963     2.32581    0.00492     3.33035
      C   12    0.32275      0.99966     1.65645    0.02114     2.67725
      O   13   -0.27957      0.99987     3.27347    0.00623     4.27957
      C   14   -0.33617      0.99962     2.33182    0.00474     3.33617
      H   15    0.09812      0.00000     0.40103    0.00085     0.40188
      H   16    0.09991      0.00000     0.39914    0.00095     0.40009
      H   17    0.09629      0.00000     0.40296    0.00075     0.40371
      H   18    0.09131      0.00000     0.40716    0.00153     0.40869
      H   19    0.10728      0.00000     0.39184    0.00088     0.39272
      H   20    0.09715      0.00000     0.40203    0.00082     0.40285
      H   21    0.09655      0.00000     0.40276    0.00069     0.40345
      H   22    0.10231      0.00000     0.39619    0.00150     0.39769
      H   23    0.10660      0.00000     0.39107    0.00233     0.39340
      H   24    0.11022      0.00000     0.38831    0.00147     0.38978
      H   25    0.12331      0.00000     0.37299    0.00371     0.37669
      H   26    0.11061      0.00000     0.38832    0.00106     0.38939
      H   27    0.08898      0.00000     0.41000    0.00102     0.41102
      H   28    0.10610      0.00000     0.39264    0.00126     0.39390
      H   29    0.11364      0.00000     0.38485    0.00151     0.38636
      H   30    0.11016      0.00000     0.38901    0.00083     0.38984
      H   31    0.10797      0.00000     0.39120    0.00083     0.39203
      H   32    0.10585      0.00000     0.39326    0.00089     0.39415
      H   33    0.10974      0.00000     0.38893    0.00132     0.39026
 =======================================================================
   * Total *    0.00000     13.99515    39.83541    0.16944    54.00000

 Normal termination of Gaussian 16 at Thu Dec 10 10:12:59 2020.
