 Gaussian 16, Revision A.03,

 -----------------------------------------------------------
 # opt freq B3LYP/6-31G(d) empiricaldispersion=gd3bj scf=xqc
 -----------------------------------------------------------

 -------------------------------
 CID_151136373_JID_4548_neutraal
 -------------------------------
 Symbolic Z-matrix:
 Charge =  0 Multiplicity = 1

 SCF Done:  E(RB3LYP) =  -631.932805989     A.U. after   15 cycles
 SCF Done:  E(RB3LYP) =  -631.941446917     A.U. after   15 cycles
 SCF Done:  E(RB3LYP) =  -631.944443802     A.U. after   13 cycles
 SCF Done:  E(RB3LYP) =  -631.947351424     A.U. after   15 cycles
 SCF Done:  E(RB3LYP) =  -631.948830493     A.U. after   16 cycles
 SCF Done:  E(RB3LYP) =  -631.949061113     A.U. after   14 cycles
 SCF Done:  E(RB3LYP) =  -631.949318875     A.U. after   12 cycles
 SCF Done:  E(RB3LYP) =  -631.949294830     A.U. after   11 cycles
 SCF Done:  E(RB3LYP) =  -631.949340373     A.U. after   12 cycles
 SCF Done:  E(RB3LYP) =  -631.949356869     A.U. after   10 cycles
 SCF Done:  E(RB3LYP) =  -631.950757210     A.U. after    9 cycles
 SCF Done:  E(RB3LYP) =  -631.950776053     A.U. after   11 cycles
 SCF Done:  E(RB3LYP) =  -631.950784026     A.U. after   12 cycles
 SCF Done:  E(RB3LYP) =  -631.950784662     A.U. after   10 cycles
 SCF Done:  E(RB3LYP) =  -631.950784801     A.U. after    8 cycles
 Optimization completed.
    -- Stationary point found.
 Normal termination of Gaussian 16 at Thu Dec 10 10:25:47 2020.

 --------------------------------------------------------------------
 #N Geom=AllCheck Guess=TCheck SCRF=Check GenChk RB3LYP/6-31G(d) Freq
 --------------------------------------------------------------------

 Structure from the checkpoint file:  "JID_4548.chk"
 -------------------------------
 CID_151136373_JID_4548_neutraal
 -------------------------------
 Charge =  0 Multiplicity = 1

 SCF Done:  E(RB3LYP) =  -631.950784801     A.U. after    1 cycles

  Exact polarizability: 132.278 -16.156 179.002   4.317  -3.866  97.309
 Approx polarizability: 177.517 -44.044 290.448   7.716 -14.922 142.133

                      1                      2                      3
                      A                      A                      A
 Frequencies --     28.6404                38.6950                50.0114
 Red. masses --      4.3896                 3.7971                 3.0388
 Frc consts  --      0.0021                 0.0033                 0.0045
 IR Inten    --      0.1817                 0.1057                 0.2581

                      4                      5                      6
                      A                      A                      A
 Frequencies --     68.5555                91.7811               122.8421
 Red. masses --      2.9642                 5.2169                 3.7399
 Frc consts  --      0.0082                 0.0259                 0.0333
 IR Inten    --      0.0465                 0.0745                 0.1400

                      7                      8                      9
                      A                      A                      A
 Frequencies --    156.8026               171.1658               186.7963
 Red. masses --      2.7692                 3.8848                 2.5072
 Frc consts  --      0.0401                 0.0671                 0.0515
 IR Inten    --      1.1976                 3.5170                 0.8550

                     10                     11                     12
                      A                      A                      A
 Frequencies --    215.0123               227.1088               246.8701
 Red. masses --      2.0608                 1.0873                 1.4313
 Frc consts  --      0.0561                 0.0330                 0.0514
 IR Inten    --      0.6230                 0.0976                 1.9708

                     13                     14                     15
                      A                      A                      A
 Frequencies --    257.8101               271.2986               274.1588
 Red. masses --      1.7232                 1.5530                 1.3192
 Frc consts  --      0.0675                 0.0673                 0.0584
 IR Inten    --      1.6450                 0.3032                 0.1652

                     16                     17                     18
                      A                      A                      A
 Frequencies --    283.6179               307.7943               357.2599
 Red. masses --      1.7046                 3.5674                 2.5178
 Frc consts  --      0.0808                 0.1991                 0.1893
 IR Inten    --      0.1997                 0.2154                 0.6032

                     19                     20                     21
                      A                      A                      A
 Frequencies --    371.6066               381.7728               417.6831
 Red. masses --      3.0398                 2.4779                 1.9101
 Frc consts  --      0.2473                 0.2128                 0.1963
 IR Inten    --      0.8832                 0.1899                 0.6982

                     22                     23                     24
                      A                      A                      A
 Frequencies --    471.4659               477.4841               520.4850
 Red. masses --      3.0493                 3.2884                 2.8041
 Frc consts  --      0.3994                 0.4417                 0.4476
 IR Inten    --      0.9165                 0.9317                 2.6392

                     25                     26                     27
                      A                      A                      A
 Frequencies --    533.0734               573.1100               676.8818
 Red. masses --     12.8523                 3.9171                 7.3944
 Frc consts  --      2.1518                 0.7580                 1.9961
 IR Inten    --      9.0774                 5.7794                14.7907

                     28                     29                     30
                      A                      A                      A
 Frequencies --    819.5239               825.3833               857.8085
 Red. masses --      3.1809                 2.6714                 1.9113
 Frc consts  --      1.2587                 1.0722                 0.8286
 IR Inten    --      1.7606                 1.9406                 1.9330

                     31                     32                     33
                      A                      A                      A
 Frequencies --    914.9822               940.6399               946.9511
 Red. masses --      1.5174                 1.4028                 1.7982
 Frc consts  --      0.7485                 0.7313                 0.9500
 IR Inten    --      2.6616                 1.8218                 5.7559

                     34                     35                     36
                      A                      A                      A
 Frequencies --    954.3556               957.9852               970.4510
 Red. masses --      1.7677                 1.5210                 1.6247
 Frc consts  --      0.9486                 0.8224                 0.9015
 IR Inten    --      6.3910                 1.3078                12.4167

                     37                     38                     39
                      A                      A                      A
 Frequencies --    981.1956               994.7192              1000.6436
 Red. masses --      1.5496                 1.1122                 1.9143
 Frc consts  --      0.8790                 0.6484                 1.1293
 IR Inten    --      2.9478                28.9730                 7.1075

                     40                     41                     42
                      A                      A                      A
 Frequencies --   1031.0908              1051.9430              1076.6099
 Red. masses --      2.9979                 1.6698                 2.2737
 Frc consts  --      1.8779                 1.0887                 1.5527
 IR Inten    --      3.8561                23.3075                15.6028

                     43                     44                     45
                      A                      A                      A
 Frequencies --   1135.0856              1159.4327              1191.5980
 Red. masses --      3.9911                 2.4175                 3.0208
 Frc consts  --      3.0297                 1.9147                 2.5272
 IR Inten    --    187.1054                16.3047                31.1488

                     46                     47                     48
                      A                      A                      A
 Frequencies --   1211.7310              1219.2303              1224.7530
 Red. masses --      1.7282                 2.2956                 1.9035
 Frc consts  --      1.4951                 2.0106                 1.6823
 IR Inten    --      0.2569                17.0412                 3.0798

                     49                     50                     51
                      A                      A                      A
 Frequencies --   1282.2630              1318.2955              1326.6213
 Red. masses --      1.6973                 1.2996                 1.5308
 Frc consts  --      1.6442                 1.3307                 1.5873
 IR Inten    --      5.5310                 6.0716                 3.1945

                     52                     53                     54
                      A                      A                      A
 Frequencies --   1333.2197              1346.5025              1358.1447
 Red. masses --      1.7279                 1.2892                 1.5018
 Frc consts  --      1.8095                 1.3772                 1.6321
 IR Inten    --     57.4043                 3.9298                18.2764

                     55                     56                     57
                      A                      A                      A
 Frequencies --   1375.4623              1399.2853              1414.6956
 Red. masses --      2.9463                 1.3353                 1.3014
 Frc consts  --      3.2842                 1.5404                 1.5346
 IR Inten    --     78.9381                 2.5266                16.6373

                     58                     59                     60
                      A                      A                      A
 Frequencies --   1421.6827              1431.0875              1437.4732
 Red. masses --      1.2150                 1.2822                 1.2702
 Frc consts  --      1.4468                 1.5472                 1.5464
 IR Inten    --      3.8318                 2.6557                 2.2190

                     61                     62                     63
                      A                      A                      A
 Frequencies --   1451.4112              1465.1214              1515.5195
 Red. masses --      1.2300                 1.3132                 1.0532
 Frc consts  --      1.5266                 1.6609                 1.4252
 IR Inten    --     16.8561                 1.0709                 4.1613

                     64                     65                     66
                      A                      A                      A
 Frequencies --   1516.9992              1517.4975              1521.9779
 Red. masses --      1.0485                 1.0563                 1.0481
 Frc consts  --      1.4216                 1.4331                 1.4305
 IR Inten    --      0.4788                 0.7085                 1.6901

                     67                     68                     69
                      A                      A                      A
 Frequencies --   1529.5771              1531.5724              1535.0944
 Red. masses --      1.0696                 1.0555                 1.0532
 Frc consts  --      1.4744                 1.4588                 1.4623
 IR Inten    --      0.3466                 4.7444                 4.7278

                     70                     71                     72
                      A                      A                      A
 Frequencies --   1538.9668              1542.9903              1551.1113
 Red. masses --      1.0687                 1.0610                 1.0703
 Frc consts  --      1.4913                 1.4882                 1.5172
 IR Inten    --      7.7710                10.7779                 6.7863

                     73                     74                     75
                      A                      A                      A
 Frequencies --   1725.0770              2264.4322              2990.2552
 Red. masses --      5.9935                13.7851                 1.0590
 Frc consts  --     10.5086                41.6464                 5.5790
 IR Inten    --     74.7568               849.5915                25.1832

                     76                     77                     78
                      A                      A                      A
 Frequencies --   3008.2684              3027.6294              3035.5133
 Red. masses --      1.0623                 1.0808                 1.0966
 Frc consts  --      5.6642                 5.8373                 5.9533
 IR Inten    --     48.4845                17.7015                26.5817

                     79                     80                     81
                      A                      A                      A
 Frequencies --   3039.9526              3044.0873              3045.8995
 Red. masses --      1.0403                 1.0369                 1.0419
 Frc consts  --      5.6644                 5.6610                 5.6951
 IR Inten    --     35.8839                21.5820                40.9303

                     82                     83                     84
                      A                      A                      A
 Frequencies --   3048.8734              3065.5147              3102.4652
 Red. masses --      1.0373                 1.1033                 1.1004
 Frc consts  --      5.6810                 6.1085                 6.2404
 IR Inten    --     48.3387                40.8085                16.0434

                     85                     86                     87
                      A                      A                      A
 Frequencies --   3107.6675              3109.0494              3115.5746
 Red. masses --      1.1004                 1.1008                 1.1025
 Frc consts  --      6.2613                 6.2690                 6.3056
 IR Inten    --     49.3795                16.2238                44.0334

                     88                     89                     90
                      A                      A                      A
 Frequencies --   3118.5290              3119.7174              3131.5362
 Red. masses --      1.1018                 1.1021                 1.0996
 Frc consts  --      6.3130                 6.3199                 6.3533
 IR Inten    --     37.2199                35.4062                35.3949

                     91                     92                     93
                      A                      A                      A
 Frequencies --   3153.5837              3160.9917              3222.7455
 Red. masses --      1.0997                 1.0888                 1.0916
 Frc consts  --      6.4435                 6.4097                 6.6798
 IR Inten    --     14.9555                17.4887                 1.4033

 - Thermochemistry -
 -------------------
 Temperature   298.150 Kelvin.  Pressure   1.00000 Atm.
 Atom     1 has atomic number  6 and mass  12.00000

 Molecular mass:   197.15281 amu.
 Principal axes and moments of inertia in atomic units:
                           1         2         3
     Eigenvalues --  3045.928653659.409585973.18511
           X            0.97972  -0.20037  -0.00167
           Y            0.20037   0.97972   0.00239
           Z            0.00116  -0.00268   1.00000
 This molecule is an asymmetric top.
 Rotational symmetry number  1.
 Warning -- assumption of classical behavior for rotation
           may cause significant error
 Rotational temperatures (Kelvin)      0.02844     0.02367     0.01450
 Rotational constants (GHZ):           0.59251     0.49318     0.30214
 Zero-point vibrational energy     756912.2 (Joules/Mol)
                                  180.90635 (Kcal/Mol)
 Warning -- explicit consideration of  26 degrees of freedom as
           vibrations may cause significant error
 Vibrational temperatures:     41.21    55.67    71.96    98.64   132.05
          (Kelvin)            176.74   225.60   246.27   268.76   309.35
                              326.76   355.19   370.93   390.34   394.45
                              408.06   442.85   514.02   534.66   549.29
                              600.95   678.33   686.99   748.86   766.97
                              824.58   973.88  1179.11  1187.54  1234.20
                             1316.46  1353.37  1362.45  1373.10  1378.33
                             1396.26  1411.72  1431.18  1439.70  1483.51
                             1513.51  1549.00  1633.14  1668.17  1714.44
                             1743.41  1754.20  1762.15  1844.89  1896.73
                             1908.71  1918.21  1937.32  1954.07  1978.98
                             2013.26  2035.43  2045.48  2059.02  2068.20
                             2088.26  2107.98  2180.49  2182.62  2183.34
                             2189.79  2200.72  2203.59  2208.66  2214.23
                             2220.02  2231.70  2482.00  3258.01  4302.31
                             4328.23  4356.08  4367.43  4373.81  4379.76
                             4382.37  4386.65  4410.59  4463.76  4471.24
                             4473.23  4482.62  4486.87  4488.58  4505.58
                             4537.30  4547.96  4636.81

 Zero-point correction=                           0.288293 (Hartree/Particle)
 Thermal correction to Energy=                    0.304999
 Thermal correction to Enthalpy=                  0.305943
 Thermal correction to Gibbs Free Energy=         0.243273
 Sum of electronic and zero-point Energies=           -631.662492
 Sum of electronic and thermal Energies=              -631.645786
 Sum of electronic and thermal Enthalpies=            -631.644841
 Sum of electronic and thermal Free Energies=         -631.707512

                     E (Thermal)             CV                S
                      KCal/Mol        Cal/Mol-Kelvin    Cal/Mol-Kelvin
 Total                  191.390             60.456            131.901
 Electronic               0.000              0.000              0.000
 Translational            0.889              2.981             41.741
 Rotational               0.889              2.981             32.565
 Vibrational            189.612             54.495             57.594
 Vibration     1          0.593              1.984              5.921
 Vibration     2          0.594              1.981              5.325
 Vibration     3          0.595              1.978              4.817
 Vibration     4          0.598              1.969              4.194
 Vibration     5          0.602              1.955              3.622
 Vibration     6          0.610              1.930              3.055
 Vibration     7          0.620              1.895              2.588
 Vibration     8          0.626              1.878              2.423
 Vibration     9          0.632              1.858              2.259
 Vibration    10          0.645              1.818              2.001
 Vibration    11          0.651              1.800              1.902
 Vibration    12          0.661              1.768              1.753
 Vibration    13          0.667              1.750              1.677
 Vibration    14          0.675              1.726              1.588
 Vibration    15          0.676              1.721              1.570
 Vibration    16          0.682              1.704              1.512
 Vibration    17          0.698              1.659              1.374
 Vibration    18          0.732              1.560              1.134
 Vibration    19          0.743              1.530              1.073
 Vibration    20          0.751              1.509              1.032
 Vibration    21          0.781              1.432              0.900
 Vibration    22          0.828              1.313              0.733
 Vibration    23          0.834              1.300              0.717
 Vibration    24          0.875              1.205              0.609
 Vibration    25          0.888              1.177              0.580
 Vibration    26          0.929              1.089              0.498

 Optimization completed.
    -- Stationary point found.
 Normal termination of Gaussian 16 at Thu Dec 10 10:35:17 2020.

 ----------------------------------------------------------------------
 # B3LYP/6-311++G(d,p) empiricaldispersion=gd3bj scf=xqc pop=npa geom=c
 heck
 ----------------------------------------------------------------------

 ---------------------------------------
 CID_151136373_JID_4548_Energie_neutraal
 ---------------------------------------
 Structure from the checkpoint file:  "JID_4548.chk"
 Charge =  0 Multiplicity = 1

 SCF Done:  E(RB3LYP) =  -632.128759559     A.U. after   16 cycles
 Normal termination of Gaussian 16 at Thu Dec 10 10:41:46 2020.

 ----------------------------------------------------------------------
 # B3LYP/6-311++G(d,p) empiricaldispersion=gd3bj scf=xqc pop=npa geom=c
 heck
 ----------------------------------------------------------------------

 -------------------------------------
 CID_151136373_JID_4548_Energie_kation
 -------------------------------------
 Structure from the checkpoint file:  "JID_4548.chk"
 Charge =  1 Multiplicity = 2

 SCF Done:  E(UB3LYP) =  -631.829661284     A.U. after   23 cycles
 Normal termination of Gaussian 16 at Thu Dec 10 10:53:24 2020.
 Gaussian 16:  ES64L-G16RevA.03 25-Dec-2016

 ----------------------------------------------------------------------
 # B3LYP/6-311++G(d,p) empiricaldispersion=gd3bj scf=xqc pop=npa geom=c
 heck
 ----------------------------------------------------------------------

 ------------------------------------
 CID_151136373_JID_4548_Energie_anion
 ------------------------------------
 Structure from the checkpoint file:  "JID_4548.chk"
 Charge = -1 Multiplicity = 2

                         Standard orientation:
 ---------------------------------------------------------------------
 Center     Atomic      Atomic             Coordinates (Angstroms)
 Number     Number       Type             X           Y           Z
 ---------------------------------------------------------------------
      1          6           0        2.359028   -0.772049   -1.284392
      2          6           0        2.793826   -0.365320    0.127636
      3          6           0        4.320970   -0.266266    0.229470
      4          6           0        2.162149    0.957217    0.574461
      5          8           0        0.741062    0.895467    0.644799
      6          6           0        0.049526    1.592923   -0.379764
      7          6           0       -1.455903    1.645044   -0.081305
      8          6           0       -1.693571    2.294695    1.298348
      9          6           0       -2.101212    2.516674   -1.179215
     10          6           0       -2.118230    0.282993   -0.112660
     11          6           0       -1.515299   -0.900204    0.037506
     12          7           0       -2.273770   -2.095863   -0.016724
     13          7           0       -1.658019   -3.157545    0.134440
     14          7           0       -1.212541   -4.202991    0.255736
     15          1           0        2.657335   -0.013015   -2.019373
     16          1           0        1.274728   -0.900254   -1.352915
     17          1           0        2.825636   -1.719346   -1.577246
     18          1           0        2.448161   -1.136459    0.830957
     19          1           0        4.710908    0.496527   -0.456870
     20          1           0        4.641652   -0.000284    1.243508
     21          1           0        4.792671   -1.219177   -0.033171
     22          1           0        2.519291    1.209807    1.581266
     23          1           0        2.474887    1.769189   -0.100040
     24          1           0        0.430212    2.624830   -0.442634
     25          1           0        0.213811    1.117471   -1.358122
     26          1           0       -1.300621    3.319114    1.314619
     27          1           0       -2.764390    2.338383    1.525650
     28          1           0       -1.194414    1.718774    2.080630
     29          1           0       -1.940687    2.086415   -2.174323
     30          1           0       -3.181774    2.597539   -1.019087
     31          1           0       -1.684044    3.530278   -1.169514
     32          1           0       -3.199087    0.286191   -0.249056
     33          1           0       -0.450173   -0.989153    0.222651
 ---------------------------------------------------------------------

 SCF Done:  E(UB3LYP) =  -632.118628185     A.U. after   33 cycles
 SCF Done:  E(UB3LYP) =  -632.118628186     a.u. after    1 cycles

 The electronic state is 2-A.
 Alpha  occ. eigenvalues --  -19.02631 -14.34955 -14.25578 -14.24866 -10.11785
 Alpha  occ. eigenvalues --  -10.11766 -10.09994 -10.09398 -10.08105 -10.06727
 Alpha  occ. eigenvalues --  -10.06693 -10.06365 -10.06160 -10.06045  -1.02024
 Alpha  occ. eigenvalues --   -0.93955  -0.86720  -0.73635  -0.70839  -0.66386
 Alpha  occ. eigenvalues --   -0.61113  -0.59309  -0.59173  -0.54945  -0.53617
 Alpha  occ. eigenvalues --   -0.47613  -0.44741  -0.43962  -0.40563  -0.39875
 Alpha  occ. eigenvalues --   -0.39183  -0.38376  -0.36894  -0.35546  -0.34760
 Alpha  occ. eigenvalues --   -0.33480  -0.32657  -0.31785  -0.30972  -0.30040
 Alpha  occ. eigenvalues --   -0.29259  -0.28992  -0.28385  -0.26336  -0.25622
 Alpha  occ. eigenvalues --   -0.24976  -0.24543  -0.24017  -0.22875  -0.22231
 Alpha  occ. eigenvalues --   -0.21376  -0.19545  -0.16025  -0.11104   0.04394
 Alpha virt. eigenvalues --    0.05866   0.06442   0.07840   0.08086   0.08468
 Alpha virt. eigenvalues --    0.09031   0.09264   0.09593   0.10696   0.11154
 Alpha virt. eigenvalues --    0.11201   0.11626   0.11816   0.12636   0.12833

  Beta  occ. eigenvalues --  -19.02622 -14.34685 -14.25247 -14.24905 -10.11767
  Beta  occ. eigenvalues --  -10.11748 -10.09939 -10.09397 -10.08100 -10.06705
  Beta  occ. eigenvalues --  -10.06660 -10.06346 -10.06158 -10.06030  -1.01523
  Beta  occ. eigenvalues --   -0.93939  -0.86479  -0.73615  -0.70816  -0.66276
  Beta  occ. eigenvalues --   -0.61081  -0.59262  -0.59132  -0.54882  -0.53474
  Beta  occ. eigenvalues --   -0.47559  -0.44612  -0.43863  -0.40404  -0.39589
  Beta  occ. eigenvalues --   -0.38951  -0.37952  -0.36838  -0.35237  -0.34709
  Beta  occ. eigenvalues --   -0.32808  -0.32604  -0.31657  -0.30897  -0.29997
  Beta  occ. eigenvalues --   -0.29233  -0.28904  -0.28341  -0.26313  -0.25593
  Beta  occ. eigenvalues --   -0.24936  -0.24518  -0.23985  -0.22845  -0.22137
  Beta  occ. eigenvalues --   -0.21292  -0.19005  -0.15991  -0.11045
  Beta virt. eigenvalues --    0.06482   0.07007   0.08211   0.08381   0.08647
  Beta virt. eigenvalues --    0.08824   0.09250   0.09849   0.09879   0.10940
  Beta virt. eigenvalues --    0.11314   0.11505   0.11891   0.12037   0.12845

 Mulliken charges and spin densities:
               1          2
     1  C    0.502102  -1.123844
     2  C   -1.629880   2.149013
     3  C    0.767975  -1.384424
     4  C    0.963413  -1.348155
     5  O   -0.036752   0.017967
     6  C   -1.106162   0.226872
     7  C   -0.147235   1.251664
     8  C    0.602672  -1.135979
     9  C    0.063527  -0.697863
    10  C   -0.985821   1.014329
    11  C    0.882073  -1.876525
    12  N   -0.519190   0.629278
    13  N    0.572872  -0.254886
    14  N   -0.041266  -0.151021
    15  H   -0.164730   0.321819
    16  H    0.113614  -0.031323
    17  H    0.084956   0.053894
    18  H    0.195845  -0.031426
    19  H   -0.168082   0.307786
    20  H   -0.279404   0.414363
    21  H   -0.184975   0.320226
    22  H    0.001839   0.156154
    23  H   -0.151832   0.280901
    24  H   -0.114675   0.260563
    25  H    0.092176   0.050118
    26  H   -0.073884   0.216149
    27  H   -0.018370   0.168201
    28  H    0.119041   0.045474
    29  H    0.036479   0.102037
    30  H   -0.090790   0.239752
    31  H   -0.283369   0.424530
    32  H   -0.082921   0.283732
    33  H    0.080752   0.100625
 Sum of Mulliken charges =  -1.00000   1.00000

 Dipole moment (field-independent basis, Debye):
    X=             -1.2612    Y=              0.4146    Z=              0.4252  Tot=              1.3940
 Quadrupole moment (field-independent basis, Debye-Ang):
   XX=           -156.6108   YY=           -149.4657   ZZ=           -114.8070
   XY=             -6.6271   XZ=             -0.0871   YZ=              1.6386

 Summary of Natural Population Analysis:

                                       Natural Population
                Natural  -----------------------------------------------
    Atom  No    Charge         Core      Valence    Rydberg      Total
 -----------------------------------------------------------------------
      C    1   -0.28750      0.99965     2.28184    0.00602     3.28750
      C    2   -0.12610      0.99961     2.11746    0.00903     3.12610
      C    3   -0.28580      0.99965     2.28037    0.00578     3.28580
      C    4   -0.00168      0.99953     1.98966    0.01248     3.00168
      O    5   -0.31004      0.99988     3.30069    0.00947     4.31004
      C    6   -0.00240      0.99951     1.99024    0.01265     3.00240
      C    7   -0.06908      0.99956     2.05746    0.01206     3.06908
      C    8   -0.28080      0.99962     2.27377    0.00740     3.28080
      C    9   -0.28007      0.99963     2.27333    0.00711     3.28007
      C   10   -0.11082      0.99950     2.09870    0.01262     3.11082
      C   11   -0.00795      0.99942     1.99717    0.01136     3.00795
      N   12   -0.19288      0.99966     2.67898    0.01423     3.69288
      N   13    0.13939      0.99971     2.34582    0.01509     3.36061
      N   14   -0.01446      0.99982     2.50076    0.01388     3.51446
      H   15    0.09692      0.00000     0.40205    0.00103     0.40308
      H   16    0.10247      0.00000     0.39624    0.00129     0.39753
      H   17    0.09897      0.00000     0.40026    0.00076     0.40103
      H   18    0.09374      0.00000     0.40424    0.00201     0.40626
      H   19    0.09844      0.00000     0.40029    0.00128     0.40156
      H   20    0.09962      0.00000     0.39931    0.00107     0.40038
      H   21    0.10011      0.00000     0.39900    0.00088     0.39989
      H   22    0.08777      0.00000     0.41101    0.00122     0.41223
      H   23    0.08122      0.00000     0.41718    0.00160     0.41878
      H   24    0.08344      0.00000     0.41491    0.00165     0.41656
      H   25    0.08498      0.00000     0.41349    0.00153     0.41502
      H   26    0.09664      0.00000     0.40249    0.00087     0.40336
      H   27    0.09784      0.00000     0.40134    0.00081     0.40216
      H   28    0.10851      0.00000     0.39041    0.00108     0.39149
      H   29    0.10175      0.00000     0.39728    0.00098     0.39825
      H   30    0.10047      0.00000     0.39859    0.00094     0.39953
      H   31    0.09939      0.00000     0.39955    0.00107     0.40061
      H   32    0.09909      0.00000     0.39917    0.00174     0.40091
      H   33    0.09880      0.00000     0.39889    0.00232     0.40120
 =======================================================================
   * Total *   -0.00000     13.99476    39.83194    0.17330    54.00000

 Normal termination of Gaussian 16 at Thu Dec 10 11:07:40 2020.
