 Gaussian 16, Revision A.03,

 -----------------------------------------------------------
 # opt freq B3LYP/6-31G(d) empiricaldispersion=gd3bj scf=xqc
 -----------------------------------------------------------

 -------------------------------
 CID_147846259_JID_1343_neutraal
 -------------------------------
 Symbolic Z-matrix:
 Charge =  0 Multiplicity = 1

 SCF Done:  E(RB3LYP) =  -969.584740665     A.U. after   15 cycles
 SCF Done:  E(RB3LYP) =  -969.595635526     A.U. after   13 cycles
 SCF Done:  E(RB3LYP) =  -969.597786086     A.U. after   13 cycles
 SCF Done:  E(RB3LYP) =  -969.598157546     A.U. after   12 cycles
 SCF Done:  E(RB3LYP) =  -969.598325976     A.U. after   12 cycles
 SCF Done:  E(RB3LYP) =  -969.598557615     A.U. after   12 cycles
 SCF Done:  E(RB3LYP) =  -969.598583941     A.U. after   12 cycles
 SCF Done:  E(RB3LYP) =  -969.598603428     A.U. after   11 cycles
 SCF Done:  E(RB3LYP) =  -969.598707664     A.U. after   12 cycles
 SCF Done:  E(RB3LYP) =  -969.598946847     A.U. after   12 cycles
 SCF Done:  E(RB3LYP) =  -969.602743951     A.U. after   11 cycles
 SCF Done:  E(RB3LYP) =  -969.602747294     A.U. after    9 cycles
 SCF Done:  E(RB3LYP) =  -969.602748834     A.U. after    9 cycles
 SCF Done:  E(RB3LYP) =  -969.602749141     A.U. after    9 cycles
 SCF Done:  E(RB3LYP) =  -969.602749188     A.U. after    7 cycles
 Optimization completed.
    -- Stationary point found.
 Normal termination of Gaussian 16 at Tue Dec  8 19:50:46 2020.

 --------------------------------------------------------------------
 #N Geom=AllCheck Guess=TCheck SCRF=Check GenChk RB3LYP/6-31G(d) Freq
 --------------------------------------------------------------------

 Structure from the checkpoint file:  "JID_1343.chk"
 -------------------------------
 CID_147846259_JID_1343_neutraal
 -------------------------------
 Charge =  0 Multiplicity = 1

 SCF Done:  E(RB3LYP) =  -969.602749188     A.U. after    1 cycles

  Exact polarizability:  93.531   3.704  77.932   1.102  -0.411  66.586
 Approx polarizability: 130.095   5.117 115.080  -4.053  -4.543 108.545

                      1                      2                      3
                      A                      A                      A
 Frequencies --     48.3052                91.2924               113.5499
 Red. masses --      8.7088                 7.0044                 3.6388
 Frc consts  --      0.0120                 0.0344                 0.0276
 IR Inten    --      0.6946                 3.5313                 5.4582

                      4                      5                      6
                      A                      A                      A
 Frequencies --    136.6115               194.3618               255.8817
 Red. masses --      6.7968                 4.2949                 3.5438
 Frc consts  --      0.0747                 0.0956                 0.1367
 IR Inten    --      3.3696                 1.0954                 3.1885

                      7                      8                      9
                      A                      A                      A
 Frequencies --    315.0705               391.2389               405.2021
 Red. masses --      3.2263                 5.3462                 4.9252
 Frc consts  --      0.1887                 0.4821                 0.4765
 IR Inten    --      0.6529                14.5888                11.5620

                     10                     11                     12
                      A                      A                      A
 Frequencies --    432.2797               453.0522               515.2539
 Red. masses --      1.2666                 8.0218                 3.2729
 Frc consts  --      0.1394                 0.9701                 0.5119
 IR Inten    --    139.7617                13.4295                10.0925

                     13                     14                     15
                      A                      A                      A
 Frequencies --    586.4831               639.5722               680.7655
 Red. masses --      5.8284                14.4035                 7.8518
 Frc consts  --      1.1812                 3.4713                 2.1440
 IR Inten    --     16.9728                20.7016                62.8766

                     16                     17                     18
                      A                      A                      A
 Frequencies --    711.3451               776.4531               837.7716
 Red. masses --      7.6392                 6.6408                 3.4434
 Frc consts  --      2.2775                 2.3589                 1.4239
 IR Inten    --     63.4868                75.5509                15.6314

                     19                     20                     21
                      A                      A                      A
 Frequencies --    846.8673               859.4826               893.4723
 Red. masses --      5.6120                 3.2240                 2.4820
 Frc consts  --      2.3714                 1.4032                 1.1674
 IR Inten    --     35.2097               118.9370                11.7429

                     22                     23                     24
                      A                      A                      A
 Frequencies --    948.6995              1017.5191              1046.7927
 Red. masses --      2.2460                 2.5233                 2.8272
 Frc consts  --      1.1910                 1.5392                 1.8253
 IR Inten    --     66.9916                31.1244                 4.0375

                     25                     26                     27
                      A                      A                      A
 Frequencies --   1072.9242              1088.5993              1096.7083
 Red. masses --      5.3777                 2.8344                 3.1963
 Frc consts  --      3.6474                 1.9790                 2.2651
 IR Inten    --     64.1635               173.4116                12.7294

                     28                     29                     30
                      A                      A                      A
 Frequencies --   1130.6010              1142.1217              1229.0433
 Red. masses --      4.3353                 2.2071                10.0484
 Frc consts  --      3.2650                 1.6963                 8.9429
 IR Inten    --     65.8550                 9.4057               188.6996

                     31                     32                     33
                      A                      A                      A
 Frequencies --   1237.2461              1261.5044              1283.6544
 Red. masses --      1.2156                 1.5821                 1.2702
 Frc consts  --      1.0964                 1.4834                 1.2332
 IR Inten    --      2.4536                 6.2724                 5.5804

                     34                     35                     36
                      A                      A                      A
 Frequencies --   1312.1693              1343.8356              1354.0394
 Red. masses --      1.2658                 1.4701                 1.1940
 Frc consts  --      1.2841                 1.5642                 1.2897
 IR Inten    --      0.5354                 1.1307                 3.5095

                     37                     38                     39
                      A                      A                      A
 Frequencies --   1363.0621              1375.0166              1407.4233
 Red. masses --      1.2381                 1.3855                 1.3053
 Frc consts  --      1.3553                 1.5434                 1.5234
 IR Inten    --      3.4305                 3.4741                39.1653

                     40                     41                     42
                      A                      A                      A
 Frequencies --   1424.1355              1456.7067              1522.6497
 Red. masses --      1.2640                 1.3952                 1.0962
 Frc consts  --      1.5104                 1.7443                 1.4974
 IR Inten    --      5.8451                44.9299                 3.3584

                     43                     44                     45
                      A                      A                      A
 Frequencies --   1528.2684              2991.8956              3005.6992
 Red. masses --      1.0952                 1.0827                 1.0724
 Frc consts  --      1.5071                 5.7102                 5.7082
 IR Inten    --      0.3441                27.0242                64.1981

                     46                     47                     48
                      A                      A                      A
 Frequencies --   3056.0880              3115.7604              3120.8750
 Red. masses --      1.0636                 1.0886                 1.1011
 Frc consts  --      5.8529                 6.2263                 6.3187
 IR Inten    --     33.8355                 6.3257                23.1291

                     49                     50                     51
                      A                      A                      A
 Frequencies --   3128.2733              3152.0875              3733.4466
 Red. masses --      1.0888                 1.0940                 1.0657
 Frc consts  --      6.2776                 6.4043                 8.7517
 IR Inten    --     40.4991                10.2178                22.6817

 - Thermochemistry -
 -------------------
 Temperature   298.150 Kelvin.  Pressure   1.00000 Atm.
 Atom     1 has atomic number  6 and mass  12.00000

 Molecular mass:   180.00925 amu.
 Principal axes and moments of inertia in atomic units:
                           1         2         3
     Eigenvalues --   874.070692671.693243182.03725
           X            0.99995  -0.00939  -0.00201
           Y            0.00941   0.99987   0.01300
           Z            0.00189  -0.01301   0.99991
 This molecule is an asymmetric top.
 Rotational symmetry number  1.
 Warning -- assumption of classical behavior for rotation
           may cause significant error
 Rotational temperatures (Kelvin)      0.09909     0.03242     0.02722
 Rotational constants (GHZ):           2.06475     0.67550     0.56717
 Zero-point vibrational energy     377608.2 (Joules/Mol)
                                   90.25052 (Kcal/Mol)
 Warning -- explicit consideration of  13 degrees of freedom as
           vibrations may cause significant error
 Vibrational temperatures:     69.50   131.35   163.37   196.55   279.64
          (Kelvin)            368.16   453.32   562.91   583.00   621.95
                              651.84   741.34   843.82   920.20   979.47
                             1023.47  1117.14  1205.37  1218.45  1236.60
                             1285.51  1364.97  1463.98  1506.10  1543.70
                             1566.25  1577.92  1626.68  1643.26  1768.32
                             1780.12  1815.02  1846.89  1887.92  1933.48
                             1948.16  1961.14  1978.34  2024.97  2049.01
                             2095.88  2190.75  2198.84  4304.67  4324.53
                             4397.03  4482.88  4490.24  4500.89  4535.15
                             5371.60

 Zero-point correction=                           0.143823 (Hartree/Particle)
 Thermal correction to Energy=                    0.153682
 Thermal correction to Enthalpy=                  0.154626
 Thermal correction to Gibbs Free Energy=         0.107536
 Sum of electronic and zero-point Energies=           -969.458926
 Sum of electronic and thermal Energies=              -969.449067
 Sum of electronic and thermal Enthalpies=            -969.448123
 Sum of electronic and thermal Free Energies=         -969.495213

                     E (Thermal)             CV                S
                      KCal/Mol        Cal/Mol-Kelvin    Cal/Mol-Kelvin
 Total                   96.437             36.770             99.109
 Electronic               0.000              0.000              0.000
 Translational            0.889              2.981             41.470
 Rotational               0.889              2.981             30.386
 Vibrational             94.659             30.809             27.252
 Vibration     1          0.595              1.978              4.886
 Vibration     2          0.602              1.955              3.632
 Vibration     3          0.607              1.938              3.207
 Vibration     4          0.614              1.917              2.851
 Vibration     5          0.635              1.848              2.186
 Vibration     6          0.666              1.753              1.690
 Vibration     7          0.702              1.645              1.336
 Vibration     8          0.759              1.489              0.995
 Vibration     9          0.770              1.459              0.944
 Vibration    10          0.793              1.400              0.851
 Vibration    11          0.812              1.354              0.787
 Vibration    12          0.870              1.216              0.621
 Vibration    13          0.944              1.061              0.473

 Optimization completed.
    -- Stationary point found.
 Normal termination of Gaussian 16 at Tue Dec  8 19:54:46 2020.

 ----------------------------------------------------------------------
 # B3LYP/6-311++G(d,p) empiricaldispersion=gd3bj scf=xqc pop=npa geom=c
 heck
 ----------------------------------------------------------------------

 ---------------------------------------
 CID_147846259_JID_1343_Energie_neutraal
 ---------------------------------------
 Structure from the checkpoint file:  "JID_1343.chk"
 Charge =  0 Multiplicity = 1

 SCF Done:  E(RB3LYP) =  -969.808067341     A.U. after   14 cycles
 Normal termination of Gaussian 16 at Tue Dec  8 19:56:26 2020.

 ----------------------------------------------------------------------
 # B3LYP/6-311++G(d,p) empiricaldispersion=gd3bj scf=xqc pop=npa geom=c
 heck
 ----------------------------------------------------------------------

 -------------------------------------
 CID_147846259_JID_1343_Energie_kation
 -------------------------------------
 Structure from the checkpoint file:  "JID_1343.chk"
 Charge =  1 Multiplicity = 2

 SCF Done:  E(UB3LYP) =  -969.448100126     A.U. after   26 cycles
 Normal termination of Gaussian 16 at Tue Dec  8 20:00:53 2020.
 Gaussian 16:  ES64L-G16RevA.03 25-Dec-2016

 ----------------------------------------------------------------------
 # B3LYP/6-311++G(d,p) empiricaldispersion=gd3bj scf=xqc pop=npa geom=c
 heck
 ----------------------------------------------------------------------

 ------------------------------------
 CID_147846259_JID_1343_Energie_anion
 ------------------------------------
 Structure from the checkpoint file:  "JID_1343.chk"
 Charge = -1 Multiplicity = 2

                         Standard orientation:
 ---------------------------------------------------------------------
 Center     Atomic      Atomic             Coordinates (Angstroms)
 Number     Number       Type             X           Y           Z
 ---------------------------------------------------------------------
      1          6           0        0.618312    2.025275   -0.026623
      2          6           0       -0.584469    1.232357    0.492345
      3          6           0        0.029254   -0.149549    0.878708
      4          6           0        1.518800    0.016360    0.544523
      5          8           0        1.563067    1.051105   -0.442726
      6          6           0        2.245719   -1.193635   -0.020209
      7          8           0        3.605069   -0.883717   -0.272406
      8          8           0       -0.577934   -1.127691    0.015285
      9         16           0       -2.066559   -0.590120   -0.545540
     10          8           0       -3.044827   -0.705960    0.543365
     11          8           0       -1.498276    0.986526   -0.591854
     12          1           0        1.029983    2.647705    0.784198
     13          1           0        0.362837    2.657863   -0.878205
     14          1           0       -1.116283    1.718489    1.313061
     15          1           0       -0.150486   -0.428912    1.918861
     16          1           0        2.039223    0.360120    1.454257
     17          1           0        2.233045   -2.011099    0.706825
     18          1           0        1.724098   -1.530092   -0.925069
     19          1           0        3.600037   -0.119100   -0.871071
 ---------------------------------------------------------------------

 SCF Done:  E(UB3LYP) =  -969.798387318     A.U. after   33 cycles
 SCF Done:  E(UB3LYP) =  -969.798387318     a.u. after    1 cycles

 The electronic state is 2-A.
 Alpha  occ. eigenvalues --  -88.89110 -19.04700 -19.04589 -19.03101 -19.02775
 Alpha  occ. eigenvalues --  -19.00092 -10.13459 -10.13147 -10.12457 -10.12020
 Alpha  occ. eigenvalues --  -10.11512  -7.96116  -5.92427  -5.92393  -5.91668
 Alpha  occ. eigenvalues --   -1.01474  -0.95635  -0.92697  -0.91221  -0.91027
 Alpha  occ. eigenvalues --   -0.68948  -0.66477  -0.57835  -0.55360  -0.51407
 Alpha  occ. eigenvalues --   -0.48906  -0.43237  -0.42364  -0.40303  -0.38820
 Alpha  occ. eigenvalues --   -0.37437  -0.36052  -0.34623  -0.32118  -0.31778
 Alpha  occ. eigenvalues --   -0.31162  -0.28971  -0.26660  -0.25717  -0.24794
 Alpha  occ. eigenvalues --   -0.24072  -0.22803  -0.21128  -0.18815  -0.17943
 Alpha  occ. eigenvalues --   -0.17284  -0.16065   0.05153
 Alpha virt. eigenvalues --    0.07221   0.08604   0.08860   0.10017   0.10782
 Alpha virt. eigenvalues --    0.11350   0.12073   0.12765   0.13291   0.14746
 Alpha virt. eigenvalues --    0.15650   0.15953   0.16768   0.17365   0.18104

  Beta  occ. eigenvalues --  -88.89008 -19.04617 -19.04514 -19.03092 -19.02769
  Beta  occ. eigenvalues --  -18.99965 -10.13418 -10.13106 -10.12434 -10.12015
  Beta  occ. eigenvalues --  -10.11461  -7.96021  -5.92338  -5.92100  -5.91614
  Beta  occ. eigenvalues --   -1.01252  -0.95597  -0.92675  -0.91022  -0.90829
  Beta  occ. eigenvalues --   -0.68790  -0.66385  -0.57741  -0.55060  -0.51173
  Beta  occ. eigenvalues --   -0.48824  -0.43146  -0.42242  -0.40083  -0.38643
  Beta  occ. eigenvalues --   -0.37250  -0.35928  -0.34511  -0.32049  -0.31684
  Beta  occ. eigenvalues --   -0.31027  -0.28820  -0.26476  -0.25595  -0.24715
  Beta  occ. eigenvalues --   -0.24018  -0.22442  -0.21000  -0.18697  -0.17738
  Beta  occ. eigenvalues --   -0.17126  -0.15880
  Beta virt. eigenvalues --    0.08051   0.09026   0.09176   0.09906   0.10413
  Beta virt. eigenvalues --    0.11228   0.12110   0.12454   0.13194   0.13531
  Beta virt. eigenvalues --    0.14793   0.15737   0.16075   0.17040   0.17505

 Mulliken charges and spin densities:
               1          2
     1  C    2.229812  -2.545485
     2  C   -0.914021   0.684807
     3  C   -0.063541  -0.216578
     4  C    0.079600  -0.144504
     5  O   -0.193915   0.091318
     6  C   -0.205563  -0.298874
     7  O   -0.261121   0.016342
     8  O   -0.144830   0.002452
     9  S    0.631821   0.211127
    10  O   -0.499739   0.023890
    11  O   -0.102605  -0.047551
    12  H   -0.760430   0.937650
    13  H   -0.267620   0.450570
    14  H   -0.348179   0.578733
    15  H   -0.380474   0.632159
    16  H   -0.314878   0.514502
    17  H    0.141458   0.043704
    18  H    0.205163  -0.009239
    19  H    0.169061   0.074975
 Sum of Mulliken charges =  -1.00000   1.00000

 Dipole moment (field-independent basis, Debye):
    X=             -0.0014    Y=             -4.3559    Z=             -4.6955  Tot=              6.4048
 Quadrupole moment (field-independent basis, Debye-Ang):
   XX=           -119.8229   YY=           -107.7556   ZZ=           -100.3535
   XY=             -5.0239   XZ=             -1.7939   YZ=             -6.9375

 Summary of Natural Population Analysis:

                                       Natural Population
                Natural  -----------------------------------------------
    Atom  No    Charge         Core      Valence    Rydberg      Total
 -----------------------------------------------------------------------
      C    1   -0.01758      0.99956     2.00402    0.01399     3.01758
      C    2    0.03965      0.99955     1.94421    0.01658     2.96035
      C    3    0.04329      0.99953     1.93938    0.01780     2.95671
      C    4    0.04154      0.99954     1.94304    0.01588     2.95846
      O    5   -0.30712      0.99989     3.29717    0.01007     4.30712
      C    6   -0.01442      0.99956     2.00169    0.01317     3.01442
      O    7   -0.36954      0.99990     3.36319    0.00645     4.36954
      O    8   -0.36866      0.99991     3.35928    0.00947     4.36866
      S    9    0.85552      4.99955     2.07307    0.07186     7.14448
      O   10   -0.43683      0.99992     3.43152    0.00539     4.43683
      O   11   -0.36321      0.99991     3.35431    0.00899     4.36321
      H   12    0.09180      0.00000     0.39891    0.00929     0.40820
      H   13    0.09947      0.00000     0.39890    0.00163     0.40053
      H   14    0.10253      0.00000     0.39479    0.00268     0.39747
      H   15    0.10361      0.00000     0.39426    0.00213     0.39639
      H   16    0.09204      0.00000     0.40577    0.00219     0.40796
      H   17    0.08911      0.00000     0.40993    0.00097     0.41089
      H   18    0.08668      0.00000     0.41184    0.00148     0.41332
      H   19    0.23211      0.00000     0.26495    0.00294     0.26789
 =======================================================================
   * Total *    0.00000     14.99681    31.79025    0.21294    47.00000

 Normal termination of Gaussian 16 at Tue Dec  8 20:06:27 2020.
