 Gaussian 16, Revision A.03,

 -----------------------------------------------------------
 # opt freq B3LYP/6-31G(d) empiricaldispersion=gd3bj scf=xqc
 -----------------------------------------------------------

 ------------------------------
 CID_43387367_JID_9801_neutraal
 ------------------------------
 Symbolic Z-matrix:
 Charge =  0 Multiplicity = 1

 SCF Done:  E(RB3LYP) =  -1223.65342237     A.U. after   15 cycles
 SCF Done:  E(RB3LYP) =  -1223.65208504     A.U. after   14 cycles
 SCF Done:  E(RB3LYP) =  -1223.65873777     A.U. after   12 cycles
 SCF Done:  E(RB3LYP) =  -1223.65897487     A.U. after   13 cycles
 SCF Done:  E(RB3LYP) =  -1223.65962763     A.U. after   13 cycles
 SCF Done:  E(RB3LYP) =  -1223.65992189     A.U. after   12 cycles
 SCF Done:  E(RB3LYP) =  -1223.66007131     A.U. after   11 cycles
 SCF Done:  E(RB3LYP) =  -1223.66017653     A.U. after   11 cycles
 SCF Done:  E(RB3LYP) =  -1223.66021380     A.U. after   11 cycles
 SCF Done:  E(RB3LYP) =  -1223.66025570     A.U. after   11 cycles
 SCF Done:  E(RB3LYP) =  -1223.66037765     A.U. after   11 cycles
 SCF Done:  E(RB3LYP) =  -1223.66037878     A.U. after   10 cycles
 SCF Done:  E(RB3LYP) =  -1223.66037881     A.U. after    7 cycles
 SCF Done:  E(RB3LYP) =  -1223.66037886     A.U. after    7 cycles
 SCF Done:  E(RB3LYP) =  -1223.66037888     A.U. after    8 cycles
 Optimization completed.
    -- Stationary point found.
 Normal termination of Gaussian 16 at Sat Dec 12 10:13:35 2020.

 --------------------------------------------------------------------
 #N Geom=AllCheck Guess=TCheck SCRF=Check GenChk RB3LYP/6-31G(d) Freq
 --------------------------------------------------------------------

 Structure from the checkpoint file:  "JID_9801.chk"
 ------------------------------
 CID_43387367_JID_9801_neutraal
 ------------------------------
 Charge =  0 Multiplicity = 1

 SCF Done:  E(RB3LYP) =  -1223.66037888     A.U. after    1 cycles

  Exact polarizability: 233.521  -7.600 177.407  10.078   6.507 122.842
 Approx polarizability: 295.470 -10.151 288.609  18.080  21.959 207.653

                      1                      2                      3
                      A                      A                      A
 Frequencies --     10.9437                27.0648                38.8528
 Red. masses --      5.5470                 5.2209                 4.8699
 Frc consts  --      0.0004                 0.0023                 0.0043
 IR Inten    --      1.2072                 0.4812                 0.7151

                      4                      5                      6
                      A                      A                      A
 Frequencies --     42.0803                42.8176                51.7650
 Red. masses --      1.1952                 2.8267                 4.3432
 Frc consts  --      0.0012                 0.0031                 0.0069
 IR Inten    --      0.5088                 0.6821                 0.4820

                      7                      8                      9
                      A                      A                      A
 Frequencies --     59.8766                66.5924                93.1737
 Red. masses --      7.7482                 6.5394                 2.7734
 Frc consts  --      0.0164                 0.0171                 0.0142
 IR Inten    --      0.0035                 1.5339                 0.5214

                     10                     11                     12
                      A                      A                      A
 Frequencies --    113.7093               146.5602               172.5902
 Red. masses --      5.7560                 4.0965                 5.3554
 Frc consts  --      0.0438                 0.0518                 0.0940
 IR Inten    --      2.7434                 0.5031                 1.6580

                     13                     14                     15
                      A                      A                      A
 Frequencies --    194.8476               213.4866               231.0433
 Red. masses --      1.9181                 3.0615                 5.1754
 Frc consts  --      0.0429                 0.0822                 0.1628
 IR Inten    --      0.1987                 1.0251                 0.2021

                     16                     17                     18
                      A                      A                      A
 Frequencies --    263.0266               272.0532               294.2466
 Red. masses --      1.6716                 3.5932                 3.7439
 Frc consts  --      0.0681                 0.1567                 0.1910
 IR Inten    --      0.4397                 2.1015                 4.5868

                     19                     20                     21
                      A                      A                      A
 Frequencies --    318.7053               344.7712               386.7862
 Red. masses --      3.0867                 3.5692                 3.8959
 Frc consts  --      0.1847                 0.2500                 0.3434
 IR Inten    --      1.6766                18.6125                 7.6272

                     22                     23                     24
                      A                      A                      A
 Frequencies --    403.2951               418.9705               452.4548
 Red. masses --      2.3757                 4.8351                 3.1465
 Frc consts  --      0.2277                 0.5001                 0.3795
 IR Inten    --      0.4390                 6.9051                 2.1091

                     25                     26                     27
                      A                      A                      A
 Frequencies --    492.1467               513.0129               536.5874
 Red. masses --      2.6285                 4.3270                 4.7899
 Frc consts  --      0.3751                 0.6710                 0.8126
 IR Inten    --      4.7325                 0.7686                 2.2195

                     28                     29                     30
                      A                      A                      A
 Frequencies --    555.9987               595.9672               622.4149
 Red. masses --      3.3567                 5.1727                 1.7740
 Frc consts  --      0.6114                 1.0825                 0.4049
 IR Inten    --     44.8168                 5.4559                27.5661

                     31                     32                     33
                      A                      A                      A
 Frequencies --    646.1542               666.8831               668.0968
 Red. masses --      2.2753                 1.5218                 3.2507
 Frc consts  --      0.5597                 0.3987                 0.8549
 IR Inten    --     49.2409               118.9804                19.6226

                     34                     35                     36
                      A                      A                      A
 Frequencies --    685.1853               725.7390               751.3583
 Red. masses --      4.7248                 2.1642                 4.4815
 Frc consts  --      1.3069                 0.6716                 1.4906
 IR Inten    --     33.9426                33.0915                 4.8000

                     37                     38                     39
                      A                      A                      A
 Frequencies --    767.8819               783.3239               790.4911
 Red. masses --      2.4474                 2.1874                 3.3022
 Frc consts  --      0.8502                 0.7908                 1.2158
 IR Inten    --     32.8401                36.2384                 0.4979

                     40                     41                     42
                      A                      A                      A
 Frequencies --    807.5881               868.3941               878.9564
 Red. masses --      1.6514                 1.7068                 3.7179
 Frc consts  --      0.6346                 0.7583                 1.6923
 IR Inten    --     14.4731                 2.0884                 2.2822

                     43                     44                     45
                      A                      A                      A
 Frequencies --    896.7287               909.0206               929.2139
 Red. masses --      1.8712                 1.3298                 2.2016
 Frc consts  --      0.8865                 0.6474                 1.1200
 IR Inten    --      0.4872                 0.3732                 0.7524

                     46                     47                     48
                      A                      A                      A
 Frequencies --    939.5951               951.9205               970.9396
 Red. masses --      2.2795                 1.4032                 1.7629
 Frc consts  --      1.1857                 0.7491                 0.9792
 IR Inten    --      2.1527                15.4494                 2.1060

                     49                     50                     51
                      A                      A                      A
 Frequencies --    974.9163              1021.7985              1035.3031
 Red. masses --      1.3446                 5.6198                 1.5613
 Frc consts  --      0.7530                 3.4570                 0.9860
 IR Inten    --      0.8654                 0.1808                 0.6502

                     52                     53                     54
                      A                      A                      A
 Frequencies --   1047.2846              1078.1491              1112.9050
 Red. masses --      2.7142                 1.5266                 2.1902
 Frc consts  --      1.7540                 1.0455                 1.5983
 IR Inten    --      1.3693                13.0397                15.9169

                     55                     56                     57
                      A                      A                      A
 Frequencies --   1127.3920              1129.1155              1156.5280
 Red. masses --      1.5535                 1.6013                 1.8722
 Frc consts  --      1.1634                 1.2029                 1.4755
 IR Inten    --      5.1537                 6.4465                56.6149

                     58                     59                     60
                      A                      A                      A
 Frequencies --   1170.4642              1196.4359              1197.1053
 Red. masses --      1.5899                 1.6729                 2.3533
 Frc consts  --      1.2833                 1.4109                 1.9870
 IR Inten    --    167.5497                49.9263                53.7920

                     61                     62                     63
                      A                      A                      A
 Frequencies --   1204.4327              1216.9599              1272.2017
 Red. masses --      1.1400                 1.2285                 1.2644
 Frc consts  --      0.9743                 1.0720                 1.2057
 IR Inten    --     11.7202                 2.1284                 3.3854

                     64                     65                     66
                      A                      A                      A
 Frequencies --   1281.2670              1282.7227              1300.1529
 Red. masses --      1.4792                 2.2883                 1.4291
 Frc consts  --      1.4307                 2.2183                 1.4233
 IR Inten    --      7.2075                 2.4645                12.4244

                     67                     68                     69
                      A                      A                      A
 Frequencies --   1315.1287              1345.0076              1356.5497
 Red. masses --      1.2804                 1.2184                 2.1807
 Frc consts  --      1.3048                 1.2986                 2.3643
 IR Inten    --      0.4863                14.6667                 3.4595

                     70                     71                     72
                      A                      A                      A
 Frequencies --   1370.7392              1384.5988              1395.5385
 Red. masses --      1.9315                 1.3957                 2.3698
 Frc consts  --      2.1383                 1.5765                 2.7192
 IR Inten    --      3.2667                31.9394               160.2137

                     73                     74                     75
                      A                      A                      A
 Frequencies --   1426.4265              1442.4535              1448.2872
 Red. masses --      2.4335                 1.2468                 1.2430
 Frc consts  --      2.9173                 1.5285                 1.5361
 IR Inten    --    152.7913                 0.1947                 3.8059

                     76                     77                     78
                      A                      A                      A
 Frequencies --   1479.7843              1493.2613              1497.9175
 Red. masses --      2.1109                 1.2076                 1.1504
 Frc consts  --      2.7234                 1.5866                 1.5208
 IR Inten    --      1.6462                 5.1669                14.4097

                     79                     80                     81
                      A                      A                      A
 Frequencies --   1514.2625              1518.4414              1521.5542
 Red. masses --      1.2550                 1.0547                 1.3113
 Frc consts  --      1.6954                 1.4328                 1.7887
 IR Inten    --     13.1143                 4.2226                47.5191

                     82                     83                     84
                      A                      A                      A
 Frequencies --   1526.3054              1531.4013              1533.3521
 Red. masses --      1.2426                 1.0620                 1.0943
 Frc consts  --      1.7055                 1.4674                 1.5159
 IR Inten    --      8.6052                 1.6767                19.7085

                     85                     86                     87
                      A                      A                      A
 Frequencies --   1547.9045              1651.6887              1667.5707
 Red. masses --      2.1455                 5.4113                 5.4492
 Frc consts  --      3.0288                 8.6978                 8.9279
 IR Inten    --     15.1840                 5.1802                16.4150

                     88                     89                     90
                      A                      A                      A
 Frequencies --   1762.3070              1849.0758              3042.2162
 Red. masses --      7.7760                 9.6089                 1.0404
 Frc consts  --     14.2288                19.3568                 5.6734
 IR Inten    --    433.3579               232.2701                31.6522

                     91                     92                     93
                      A                      A                      A
 Frequencies --   3054.9169              3059.2149              3087.5195
 Red. masses --      1.0429                 1.0572                 1.0606
 Frc consts  --      5.7347                 5.8296                 5.9567
 IR Inten    --     15.0117                20.9599                11.5558

                     94                     95                     96
                      A                      A                      A
 Frequencies --   3099.4239              3100.4991              3107.8622
 Red. masses --      1.0956                 1.0599                 1.0990
 Frc consts  --      6.2010                 6.0029                 6.2541
 IR Inten    --     19.2676                10.2761                 3.4330

                     97                     98                     99
                      A                      A                      A
 Frequencies --   3123.6087              3127.3334              3131.9868
 Red. masses --      1.1008                 1.1029                 1.0984
 Frc consts  --      6.3282                 6.3553                 6.3485
 IR Inten    --     21.3605                17.1150                23.8183

                    100                    101                    102
                      A                      A                      A
 Frequencies --   3136.8934              3147.7272              3158.0334
 Red. masses --      1.0906                 1.1059                 1.1062
 Frc consts  --      6.3230                 6.4560                 6.4999
 IR Inten    --     19.8162                 1.3935                 2.6845

                    103                    104                    105
                      A                      A                      A
 Frequencies --   3174.7554              3183.2365              3195.0646
 Red. masses --      1.0858                 1.0904                 1.0914
 Frc consts  --      6.4479                 6.5097                 6.5643
 IR Inten    --      1.7596                25.0742                 2.6479

                    106                    107                    108
                      A                      A                      A
 Frequencies --   3201.4855              3577.4387              3669.1250
 Red. masses --      1.0964                 1.0753                 1.0639
 Frc consts  --      6.6210                 8.1083                 8.4384
 IR Inten    --     33.0911                48.9814                55.0462

 - Thermochemistry -
 -------------------
 Temperature   298.150 Kelvin.  Pressure   1.00000 Atm.
 Atom     1 has atomic number  6 and mass  12.00000

 Molecular mass:   281.10857 amu.
 Principal axes and moments of inertia in atomic units:
                           1         2         3
     Eigenvalues --  2383.68711********************
           X            0.99983  -0.01836   0.00279
           Y            0.01840   0.99972  -0.01474
           Z           -0.00252   0.01479   0.99989
 This molecule is an asymmetric top.
 Rotational symmetry number  1.
 Warning -- assumption of classical behavior for rotation
           may cause significant error
 Rotational temperatures (Kelvin)      0.03634     0.00709     0.00636
 Rotational constants (GHZ):           0.75712     0.14782     0.13248
 Zero-point vibrational energy     827674.3 (Joules/Mol)
                                  197.81892 (Kcal/Mol)
 Warning -- explicit consideration of  29 degrees of freedom as
           vibrations may cause significant error
 Vibrational temperatures:     15.75    38.94    55.90    60.54    61.60
          (Kelvin)             74.48    86.15    95.81   134.06   163.60
                              210.87   248.32   280.34   307.16   332.42
                              378.44   391.42   423.36   458.55   496.05
                              556.50   580.25   602.81   650.98   708.09
                              738.11   772.03   799.96   857.46   895.52
                              929.67   959.50   961.24   985.83  1044.18
                             1081.04  1104.81  1127.03  1137.34  1161.94
                             1249.43  1264.62  1290.19  1307.88  1336.93
                             1351.87  1369.60  1396.97  1402.69  1470.14
                             1489.57  1506.81  1551.22  1601.22  1622.07
                             1624.55  1663.99  1684.04  1721.40  1722.37
                             1732.91  1750.93  1830.41  1843.46  1845.55
                             1870.63  1892.18  1935.17  1951.77  1972.19
                             1992.13  2007.87  2052.31  2075.37  2083.76
                             2129.08  2148.47  2155.17  2178.69  2184.70
                             2189.18  2196.01  2203.34  2206.15  2227.09
                             2376.41  2399.26  2535.57  2660.41  4377.07
                             4395.34  4401.53  4442.25  4459.38  4460.93
                             4471.52  4494.18  4499.54  4506.23  4513.29
                             4528.88  4543.71  4567.76  4579.97  4596.99
                             4606.22  5147.14  5279.05

 Zero-point correction=                           0.315245 (Hartree/Particle)
 Thermal correction to Energy=                    0.335608
 Thermal correction to Enthalpy=                  0.336552
 Thermal correction to Gibbs Free Energy=         0.261831
 Sum of electronic and zero-point Energies=          -1223.345134
 Sum of electronic and thermal Energies=             -1223.324771
 Sum of electronic and thermal Enthalpies=           -1223.323827
 Sum of electronic and thermal Free Energies=        -1223.398548

                     E (Thermal)             CV                S
                      KCal/Mol        Cal/Mol-Kelvin    Cal/Mol-Kelvin
 Total                  210.597             73.716            157.264
 Electronic               0.000              0.000              0.000
 Translational            0.889              2.981             42.799
 Rotational               0.889              2.981             34.338
 Vibrational            208.819             67.754             80.127
 Vibration     1          0.593              1.987              7.832
 Vibration     2          0.593              1.984              6.034
 Vibration     3          0.594              1.981              5.317
 Vibration     4          0.595              1.980              5.159
 Vibration     5          0.595              1.980              5.124
 Vibration     6          0.596              1.977              4.749
 Vibration     7          0.597              1.973              4.461
 Vibration     8          0.598              1.970              4.252
 Vibration     9          0.602              1.954              3.592
 Vibration    10          0.607              1.938              3.205
 Vibration    11          0.617              1.906              2.716
 Vibration    12          0.626              1.876              2.407
 Vibration    13          0.636              1.847              2.181
 Vibration    14          0.644              1.820              2.014
 Vibration    15          0.653              1.794              1.871
 Vibration    16          0.670              1.741              1.642
 Vibration    17          0.675              1.725              1.583
 Vibration    18          0.689              1.684              1.449
 Vibration    19          0.705              1.638              1.317
 Vibration    20          0.723              1.586              1.190
 Vibration    21          0.755              1.498              1.013
 Vibration    22          0.769              1.463              0.951
 Vibration    23          0.782              1.429              0.895
 Vibration    24          0.811              1.355              0.788
 Vibration    25          0.848              1.267              0.678
 Vibration    26          0.868              1.221              0.626
 Vibration    27          0.892              1.169              0.573
 Vibration    28          0.911              1.127              0.532
 Vibration    29          0.954              1.040              0.457

 Optimization completed.
    -- Stationary point found.
 Normal termination of Gaussian 16 at Sat Dec 12 10:28:45 2020.

 ----------------------------------------------------------------------
 # B3LYP/6-311++G(d,p) empiricaldispersion=gd3bj scf=xqc pop=npa geom=c
 heck
 ----------------------------------------------------------------------

 --------------------------------------
 CID_43387367_JID_9801_Energie_neutraal
 --------------------------------------
 Structure from the checkpoint file:  "JID_9801.chk"
 Charge =  0 Multiplicity = 1

 SCF Done:  E(RB3LYP) =  -1223.93041631     A.U. after   16 cycles
 Normal termination of Gaussian 16 at Sat Dec 12 10:35:29 2020.

 ----------------------------------------------------------------------
 # B3LYP/6-311++G(d,p) empiricaldispersion=gd3bj scf=xqc pop=npa geom=c
 heck
 ----------------------------------------------------------------------

 ------------------------------------
 CID_43387367_JID_9801_Energie_kation
 ------------------------------------
 Structure from the checkpoint file:  "JID_9801.chk"
 Charge =  1 Multiplicity = 2

 SCF Done:  E(UB3LYP) =  -1223.63882865     A.U. after   28 cycles
 Normal termination of Gaussian 16 at Sat Dec 12 10:51:12 2020.
 Gaussian 16:  ES64L-G16RevA.03 25-Dec-2016

 ----------------------------------------------------------------------
 # B3LYP/6-311++G(d,p) empiricaldispersion=gd3bj scf=xqc pop=npa geom=c
 heck
 ----------------------------------------------------------------------

 -----------------------------------
 CID_43387367_JID_9801_Energie_anion
 -----------------------------------
 Structure from the checkpoint file:  "JID_9801.chk"
 Charge = -1 Multiplicity = 2

                         Standard orientation:
 ---------------------------------------------------------------------
 Center     Atomic      Atomic             Coordinates (Angstroms)
 Number     Number       Type             X           Y           Z
 ---------------------------------------------------------------------
      1          6           0       -4.358730    2.094335   -0.137131
      2          6           0       -3.401467    1.082837   -0.769734
      3          6           0       -3.053301   -0.113262    0.148677
      4          6           0       -4.300611   -0.948719    0.400584
      5          8           0       -4.709909   -1.801490   -0.355199
      6          8           0       -4.931263   -0.601979    1.542825
      7          7           0       -2.062434   -0.989952   -0.451285
      8          6           0       -0.702945   -0.973631   -0.318243
      9          8           0        0.008597   -1.648183   -1.059729
     10          6           0       -0.091782   -0.100581    0.766558
     11         16           0        0.197826    1.616666    0.182910
     12          6           0        1.526325    1.295150   -1.070563
     13          6           0        2.809157    0.798559   -0.463805
     14          6           0        3.720046    1.691711    0.113942
     15          6           0        4.893179    1.214820    0.691506
     16          6           0        5.165001   -0.154822    0.702109
     17          6           0        4.268879   -1.064383    0.131902
     18          6           0        3.092002   -0.571965   -0.447025
     19          6           0        4.566617   -2.544320    0.113785
     20          1           0       -5.333632    1.653232    0.094038
     21          1           0       -4.524381    2.935837   -0.817257
     22          1           0       -3.946225    2.494961    0.796122
     23          1           0       -3.820846    0.681993   -1.700875
     24          1           0       -2.451565    1.566221   -1.017795
     25          1           0       -2.683995    0.261522    1.104357
     26          1           0       -5.737375   -1.151682    1.591674
     27          1           0       -2.400840   -1.579343   -1.204732
     28          1           0       -0.716371   -0.016658    1.658818
     29          1           0        0.865057   -0.542942    1.050794
     30          1           0        1.660682    2.265913   -1.557052
     31          1           0        1.132592    0.589970   -1.805446
     32          1           0        3.502183    2.756855    0.115606
     33          1           0        5.599158    1.909772    1.138166
     34          1           0        6.081722   -0.520349    1.158894
     35          1           0        2.370883   -1.261284   -0.878623
     36          1           0        5.097308   -2.829859   -0.804084
     37          1           0        5.197899   -2.836797    0.959500
     38          1           0        3.645953   -3.135515    0.151780
 ---------------------------------------------------------------------

 SCF Done:  E(UB3LYP) =  -1223.92291959     A.U. after   33 cycles
 SCF Done:  E(UB3LYP) =  -1223.92291959     a.u. after    1 cycles

 The electronic state is 2-A.
 Alpha  occ. eigenvalues --  -88.75632 -19.08092 -19.03115 -19.00570 -14.25450
 Alpha  occ. eigenvalues --  -10.22048 -10.19495 -10.14355 -10.12013 -10.11224
 Alpha  occ. eigenvalues --  -10.09164 -10.08824 -10.08748 -10.08719 -10.08662
 Alpha  occ. eigenvalues --  -10.07979 -10.07896 -10.07497 -10.06932  -7.84218
 Alpha  occ. eigenvalues --   -5.80619  -5.80266  -5.79553  -1.02409  -0.95729
 Alpha  occ. eigenvalues --   -0.93709  -0.84701  -0.77363  -0.72607  -0.70785
 Alpha  occ. eigenvalues --   -0.68836  -0.66992  -0.63239  -0.62099  -0.60028
 Alpha  occ. eigenvalues --   -0.55259  -0.54442  -0.51370  -0.51058  -0.49520
 Alpha  occ. eigenvalues --   -0.47703  -0.43098  -0.42131  -0.41608  -0.40267
 Alpha  occ. eigenvalues --   -0.39068  -0.38375  -0.37963  -0.36552  -0.35839
 Alpha  occ. eigenvalues --   -0.34788  -0.34105  -0.33855  -0.33216  -0.32728
 Alpha  occ. eigenvalues --   -0.32160  -0.31965  -0.31259  -0.30829  -0.29772
 Alpha  occ. eigenvalues --   -0.29265  -0.28474  -0.26708  -0.26389  -0.25989
 Alpha  occ. eigenvalues --   -0.25774  -0.25146  -0.23737  -0.23189  -0.20308
 Alpha  occ. eigenvalues --   -0.18538  -0.17310  -0.16204  -0.15782  -0.13758
 Alpha  occ. eigenvalues --    0.04022
 Alpha virt. eigenvalues --    0.05509   0.05977   0.06599   0.07032   0.07321
 Alpha virt. eigenvalues --    0.07561   0.07750   0.07830   0.08131   0.08993
 Alpha virt. eigenvalues --    0.09349   0.09782   0.10570   0.10911   0.11114

  Beta  occ. eigenvalues --  -88.75614 -19.08014 -19.03088 -19.00567 -14.25442
  Beta  occ. eigenvalues --  -10.22033 -10.19495 -10.14332 -10.12002 -10.11208
  Beta  occ. eigenvalues --  -10.09128 -10.08740 -10.08739 -10.08720 -10.08678
  Beta  occ. eigenvalues --  -10.07931 -10.07810 -10.07497 -10.06892  -7.84197
  Beta  occ. eigenvalues --   -5.80587  -5.80248  -5.79538  -1.02308  -0.95722
  Beta  occ. eigenvalues --   -0.93618  -0.84680  -0.77247  -0.72525  -0.70742
  Beta  occ. eigenvalues --   -0.68749  -0.66907  -0.63165  -0.62035  -0.59945
  Beta  occ. eigenvalues --   -0.55143  -0.54337  -0.51282  -0.51032  -0.49443
  Beta  occ. eigenvalues --   -0.47607  -0.43037  -0.42088  -0.41555  -0.40217
  Beta  occ. eigenvalues --   -0.39016  -0.38321  -0.37912  -0.36475  -0.35778
  Beta  occ. eigenvalues --   -0.34735  -0.34057  -0.33795  -0.33192  -0.32676
  Beta  occ. eigenvalues --   -0.32108  -0.31931  -0.31220  -0.30783  -0.29729
  Beta  occ. eigenvalues --   -0.29158  -0.28384  -0.26643  -0.26336  -0.25927
  Beta  occ. eigenvalues --   -0.25623  -0.25109  -0.23653  -0.23105  -0.20245
  Beta  occ. eigenvalues --   -0.18495  -0.17283  -0.15999  -0.15389  -0.13639
  Beta virt. eigenvalues --    0.05740   0.06386   0.06822   0.06969   0.07208
  Beta virt. eigenvalues --    0.07481   0.07730   0.07929   0.08094   0.08829
  Beta virt. eigenvalues --    0.09016   0.09378   0.09759   0.10558   0.11159

 Mulliken charges and spin densities:
               1          2
     1  C    0.624876  -1.341357
     2  C   -1.077437   1.365166
     3  C    0.477827  -1.341238
     4  C    0.633143  -0.553631
     5  O   -0.293670   0.030919
     6  O   -0.126156   0.051698
     7  N   -0.051592   0.098763
     8  C   -0.201182   0.020000
     9  O   -0.302663  -0.005786
    10  C   -0.235961   0.062667
    11  S    0.365718  -0.459705
    12  C   -0.531878  -0.182125
    13  C    0.931453   0.269978
    14  C   -0.582926   0.123016
    15  C   -0.176128  -0.226516
    16  C   -0.367006  -0.023203
    17  C    0.362577   0.079886
    18  C   -0.525704   0.054471
    19  C   -0.488027  -0.087294
    20  H   -0.154305   0.323705
    21  H   -0.239215   0.384262
    22  H   -0.287953   0.434493
    23  H    0.081775   0.080868
    24  H    0.003245   0.150769
    25  H    0.333465  -0.113107
    26  H   -0.661736   0.966473
    27  H    0.285404   0.017487
    28  H   -0.102619   0.376894
    29  H    0.187502   0.020368
    30  H    0.126516   0.117789
    31  H    0.219645   0.012032
    32  H    0.005937   0.110850
    33  H    0.069323   0.081457
    34  H    0.081848   0.037866
    35  H    0.237473   0.001598
    36  H    0.160777  -0.005208
    37  H    0.080869   0.048636
    38  H    0.136787   0.017056
 Sum of Mulliken charges =  -1.00000   1.00000

 Dipole moment (field-independent basis, Debye):
    X=             10.1256    Y=              0.0129    Z=             -2.7604  Tot=             10.4951
 Quadrupole moment (field-independent basis, Debye-Ang):
   XX=           -249.9950   YY=           -159.6952   ZZ=           -150.7016
   XY=             -6.7319   XZ=             17.9884   YZ=             -2.2043

 Summary of Natural Population Analysis:

                                       Natural Population
                Natural  -----------------------------------------------
    Atom  No    Charge         Core      Valence    Rydberg      Total
 -----------------------------------------------------------------------
      C    1   -0.28827      0.99966     2.28354    0.00507     3.28827
      C    2   -0.19418      0.99962     2.18673    0.00783     3.19418
      C    3   -0.05504      0.99953     2.04142    0.01409     3.05504
      C    4    0.41081      0.99969     1.56317    0.02633     2.58919
      O    5   -0.30790      0.99987     3.30163    0.00641     4.30790
      O    6   -0.33689      0.99988     3.32989    0.00713     4.33689
      N    7   -0.31276      0.99965     2.80296    0.01014     3.81276
      C    8    0.33719      0.99965     1.64073    0.02242     2.66281
      O    9   -0.32949      0.99988     3.32369    0.00592     4.32949
      C   10   -0.29797      0.99955     2.28834    0.01008     3.29797
      S   11    0.10403      4.99965     2.87953    0.01679     7.89597
      C   12   -0.25100      0.99954     2.23912    0.01233     3.25100
      C   13   -0.01469      0.99950     2.00484    0.01036     3.01469
      C   14   -0.09402      0.99951     2.08564    0.00887     3.09402
      C   15   -0.10417      0.99957     2.09422    0.01038     3.10417
      C   16   -0.09408      0.99952     2.08511    0.00945     3.09408
      C   17   -0.01262      0.99952     2.00521    0.00789     3.01262
      C   18   -0.10775      0.99947     2.10001    0.00827     3.10775
      C   19   -0.29192      0.99964     2.28730    0.00498     3.29192
      H   20    0.10264      0.00000     0.39588    0.00148     0.39736
      H   21    0.10064      0.00000     0.39838    0.00098     0.39936
      H   22    0.10122      0.00000     0.39739    0.00139     0.39878
      H   23    0.09684      0.00000     0.40193    0.00123     0.40316
      H   24    0.10958      0.00000     0.38861    0.00181     0.39042
      H   25    0.11151      0.00000     0.38614    0.00235     0.38849
      H   26    0.24868      0.00000     0.21789    0.03343     0.25132
      H   27    0.20233      0.00000     0.29530    0.00236     0.29767
      H   28    0.11434      0.00000     0.38456    0.00110     0.38566
      H   29    0.12043      0.00000     0.37822    0.00134     0.37957
      H   30    0.10919      0.00000     0.38982    0.00099     0.39081
      H   31    0.11313      0.00000     0.38562    0.00125     0.38687
      H   32    0.09854      0.00000     0.40027    0.00119     0.40146
      H   33    0.09708      0.00000     0.40201    0.00091     0.40292
      H   34    0.09464      0.00000     0.40442    0.00094     0.40536
      H   35    0.11515      0.00000     0.38359    0.00126     0.38485
      H   36    0.10116      0.00000     0.39779    0.00104     0.39884
      H   37    0.09902      0.00000     0.39992    0.00106     0.40098
      H   38    0.10459      0.00000     0.39448    0.00093     0.39541
 =======================================================================
   * Total *   -0.00000     22.99290    51.74532    0.26178    75.00000

 Normal termination of Gaussian 16 at Sat Dec 12 11:10:04 2020.
