 Gaussian 16, Revision A.03,

 -----------------------------------------------------------
 # opt freq B3LYP/6-31G(d) empiricaldispersion=gd3bj scf=xqc
 -----------------------------------------------------------

 -------------------------------
 CID_104421594_JID_6819_neutraal
 -------------------------------
 Symbolic Z-matrix:
 Charge =  0 Multiplicity = 1

 SCF Done:  E(RB3LYP) =  -747.804036405     A.U. after   14 cycles
 SCF Done:  E(RB3LYP) =  -747.800170980     A.U. after   12 cycles
 SCF Done:  E(RB3LYP) =  -747.809746968     A.U. after   12 cycles
 SCF Done:  E(RB3LYP) =  -747.811595693     A.U. after   13 cycles
 SCF Done:  E(RB3LYP) =  -747.812243584     A.U. after   12 cycles
 SCF Done:  E(RB3LYP) =  -747.812975086     A.U. after   12 cycles
 SCF Done:  E(RB3LYP) =  -747.813765777     A.U. after   11 cycles
 SCF Done:  E(RB3LYP) =  -747.814927247     A.U. after   12 cycles
 SCF Done:  E(RB3LYP) =  -747.815044834     A.U. after   14 cycles
 SCF Done:  E(RB3LYP) =  -747.816015689     A.U. after   12 cycles
 SCF Done:  E(RB3LYP) =  -747.820082689     A.U. after    9 cycles
 SCF Done:  E(RB3LYP) =  -747.820090115     A.U. after    9 cycles
 SCF Done:  E(RB3LYP) =  -747.820093370     A.U. after    9 cycles
 SCF Done:  E(RB3LYP) =  -747.820094184     A.U. after    8 cycles
 SCF Done:  E(RB3LYP) =  -747.820094388     A.U. after    7 cycles
 SCF Done:  E(RB3LYP) =  -747.820094464     A.U. after    6 cycles
 Optimization completed.
    -- Stationary point found.
 Normal termination of Gaussian 16 at Fri Dec 11 01:34:34 2020.

 --------------------------------------------------------------------
 #N Geom=AllCheck Guess=TCheck SCRF=Check GenChk RB3LYP/6-31G(d) Freq
 --------------------------------------------------------------------

 Structure from the checkpoint file:  "JID_6819.chk"
 -------------------------------
 CID_104421594_JID_6819_neutraal
 -------------------------------
 Charge =  0 Multiplicity = 1

 SCF Done:  E(RB3LYP) =  -747.820094464     A.U. after    1 cycles

  Exact polarizability: 147.491  -6.982 145.083  -4.093  -4.986 121.837
 Approx polarizability: 188.945 -11.753 208.854  -5.924  -7.479 190.704

                      1                      2                      3
                      A                      A                      A
 Frequencies --     21.3216                30.6309                41.4556
 Red. masses --      4.4226                 3.7013                 2.7130
 Frc consts  --      0.0012                 0.0020                 0.0027
 IR Inten    --      0.1081                 0.5166                 2.1502

                      4                      5                      6
                      A                      A                      A
 Frequencies --     58.7135                62.6390                70.2582
 Red. masses --      4.1076                 2.6706                 6.0650
 Frc consts  --      0.0083                 0.0062                 0.0176
 IR Inten    --      0.5118                 0.0614                 2.4611

                      7                      8                      9
                      A                      A                      A
 Frequencies --     82.9218                99.5178               117.4418
 Red. masses --      5.8038                 4.2790                 2.8434
 Frc consts  --      0.0235                 0.0250                 0.0231
 IR Inten    --      2.5166                 3.2542                 1.7113

                     10                     11                     12
                      A                      A                      A
 Frequencies --    154.2697               172.2912               208.6426
 Red. masses --      3.3343                 2.2711                 1.4505
 Frc consts  --      0.0468                 0.0397                 0.0372
 IR Inten    --      2.1449                10.1787                 0.0604

                     13                     14                     15
                      A                      A                      A
 Frequencies --    217.5625               233.6010               248.5242
 Red. masses --      1.7436                 1.1934                 1.5277
 Frc consts  --      0.0486                 0.0384                 0.0556
 IR Inten    --      1.2790                 1.0275                55.4776

                     16                     17                     18
                      A                      A                      A
 Frequencies --    263.3958               295.2164               297.6943
 Red. masses --      2.8703                 2.3311                 2.1365
 Frc consts  --      0.1173                 0.1197                 0.1116
 IR Inten    --      2.6740                 5.3731                 6.2723

                     19                     20                     21
                      A                      A                      A
 Frequencies --    330.6519               343.0366               409.0862
 Red. masses --      2.0905                 2.5398                 2.7907
 Frc consts  --      0.1347                 0.1761                 0.2752
 IR Inten    --      7.9105                 1.8832                 4.4689

                     22                     23                     24
                      A                      A                      A
 Frequencies --    424.5762               442.6664               473.2207
 Red. masses --      1.7877                 3.6168                 2.6526
 Frc consts  --      0.1899                 0.4176                 0.3500
 IR Inten    --      0.0631                 4.0087                11.9165

                     25                     26                     27
                      A                      A                      A
 Frequencies --    512.5618               521.6446               555.5744
 Red. masses --      2.6220                 2.5764                 2.1709
 Frc consts  --      0.4059                 0.4131                 0.3948
 IR Inten    --     12.0451                 9.6897                 6.7567

                     28                     29                     30
                      A                      A                      A
 Frequencies --    566.8446               595.1646               642.5454
 Red. masses --      2.3712                 3.9561                 2.3110
 Frc consts  --      0.4489                 0.8256                 0.5622
 IR Inten    --     55.0362                11.4511                16.0340

                     31                     32                     33
                      A                      A                      A
 Frequencies --    695.7567               708.4931               776.9682
 Red. masses --      1.9083                 1.3026                 1.8216
 Frc consts  --      0.5443                 0.3853                 0.6479
 IR Inten    --    119.9196                84.2000                 6.5897

                     34                     35                     36
                      A                      A                      A
 Frequencies --    784.6082               824.3165               832.6575
 Red. masses --      2.1795                 2.7199                 2.4890
 Frc consts  --      0.7905                 1.0889                 1.0167
 IR Inten    --      3.1023                 5.2730                11.6749

                     37                     38                     39
                      A                      A                      A
 Frequencies --    866.8105               897.9411               905.6014
 Red. masses --      1.6628                 1.4857                 1.6502
 Frc consts  --      0.7361                 0.7058                 0.7974
 IR Inten    --     91.3492                 7.5813                47.5279

                     40                     41                     42
                      A                      A                      A
 Frequencies --    922.8385               938.8817               944.6313
 Red. masses --      2.2992                 1.9892                 1.1961
 Frc consts  --      1.1537                 1.0331                 0.6289
 IR Inten    --     12.1550                15.3792                 1.2616

                     43                     44                     45
                      A                      A                      A
 Frequencies --    961.0833               982.1588               987.4909
 Red. masses --      1.8639                 1.5358                 2.0295
 Frc consts  --      1.0143                 0.8729                 1.1660
 IR Inten    --      2.8673                 2.2574                 2.6134

                     46                     47                     48
                      A                      A                      A
 Frequencies --   1045.7471              1067.0748              1096.8506
 Red. masses --      2.0563                 1.9513                 2.0892
 Frc consts  --      1.3249                 1.3090                 1.4809
 IR Inten    --      3.5351                 2.3057                31.5616

                     49                     50                     51
                      A                      A                      A
 Frequencies --   1104.2302              1130.8399              1146.7429
 Red. masses --      2.2232                 2.0774                 2.8402
 Frc consts  --      1.5971                 1.5652                 2.2005
 IR Inten    --      4.8293                 7.5760                 6.8712

                     52                     53                     54
                      A                      A                      A
 Frequencies --   1159.9513              1187.0884              1201.7391
 Red. masses --      2.2125                 1.3566                 2.3323
 Frc consts  --      1.7539                 1.1264                 1.9845
 IR Inten    --      0.4739                 2.7843                 1.3536

                     55                     56                     57
                      A                      A                      A
 Frequencies --   1211.4422              1214.7182              1219.3891
 Red. masses --      1.3697                 1.6945                 1.3581
 Frc consts  --      1.1843                 1.4732                 1.1898
 IR Inten    --      6.2186                 2.3575                20.8352

                     58                     59                     60
                      A                      A                      A
 Frequencies --   1269.6630              1291.9042              1302.1316
 Red. masses --      1.5661                 1.5665                 1.3295
 Frc consts  --      1.4875                 1.5404                 1.3281
 IR Inten    --     19.6760                74.8791                12.0770

                     61                     62                     63
                      A                      A                      A
 Frequencies --   1333.3755              1334.8223              1353.8703
 Red. masses --      1.2225                 1.2523                 1.3461
 Frc consts  --      1.2806                 1.3146                 1.4538
 IR Inten    --     27.6475                19.2350                 6.5725

                     64                     65                     66
                      A                      A                      A
 Frequencies --   1362.3481              1374.8584              1387.7853
 Red. masses --      1.2549                 1.4577                 1.3665
 Frc consts  --      1.3722                 1.6234                 1.5506
 IR Inten    --     24.2433                59.3102                 2.0418

                     67                     68                     69
                      A                      A                      A
 Frequencies --   1406.1979              1412.7030              1431.2215
 Red. masses --      1.4080                 1.3587                 1.2781
 Frc consts  --      1.6404                 1.5976                 1.5425
 IR Inten    --     11.3782                 4.4263                11.9188

                     70                     71                     72
                      A                      A                      A
 Frequencies --   1438.4538              1442.9332              1446.6023
 Red. masses --      1.6360                 1.5746                 1.5089
 Frc consts  --      1.9944                 1.9316                 1.8604
 IR Inten    --     50.5751                55.1199                 9.7600

                     73                     74                     75
                      A                      A                      A
 Frequencies --   1454.9823              1491.6034              1493.2343
 Red. masses --      1.3053                 1.2827                 1.7326
 Frc consts  --      1.6281                 1.6815                 2.2762
 IR Inten    --      4.2808                25.3646                39.4709

                     76                     77                     78
                      A                      A                      A
 Frequencies --   1496.3657              1504.9350              1509.4567
 Red. masses --      1.3010                 1.1247                 1.1128
 Frc consts  --      1.7163                 1.5009                 1.4938
 IR Inten    --     27.3169                 3.2294                18.4286

                     79                     80                     81
                      A                      A                      A
 Frequencies --   1515.1216              1517.4867              1524.1594
 Red. masses --      1.0698                 1.0536                 1.1658
 Frc consts  --      1.4469                 1.4294                 1.5956
 IR Inten    --      2.3144                 0.6019                24.7590

                     82                     83                     84
                      A                      A                      A
 Frequencies --   1528.9887              1533.1091              1535.8556
 Red. masses --      1.1288                 1.0549                 1.0870
 Frc consts  --      1.5548                 1.4609                 1.5106
 IR Inten    --     25.9173                 7.3310                 2.3177

                     85                     86                     87
                      A                      A                      A
 Frequencies --   1539.2806              1701.6826              1770.4855
 Red. masses --      1.0655                 1.0887                 8.0113
 Frc consts  --      1.4874                 1.8575                14.7958
 IR Inten    --     17.5638                34.2674               223.3393

                     88                     89                     90
                      A                      A                      A
 Frequencies --   1782.5078              2929.7408              3031.2274
 Red. masses --      7.7162                 1.0743                 1.0607
 Frc consts  --     14.4449                 5.4329                 5.7421
 IR Inten    --    373.7430                90.4281                20.3127

                     91                     92                     93
                      A                      A                      A
 Frequencies --   3037.5403              3042.3061              3057.8273
 Red. masses --      1.0375                 1.0438                 1.0599
 Frc consts  --      5.6399                 5.6919                 5.8390
 IR Inten    --     23.5928                20.4697                27.0019

                     94                     95                     96
                      A                      A                      A
 Frequencies --   3063.1598              3065.7249              3070.9684
 Red. masses --      1.0680                 1.0909                 1.0770
 Frc consts  --      5.9043                 6.0407                 5.9844
 IR Inten    --     16.4926                 8.7950                20.3883

                     97                     98                     99
                      A                      A                      A
 Frequencies --   3081.4618              3081.9354              3094.9685
 Red. masses --      1.0838                 1.0810                 1.1046
 Frc consts  --      6.0635                 6.0498                 6.2339
 IR Inten    --     17.4818                34.8655                 0.1720

                    100                    101                    102
                      A                      A                      A
 Frequencies --   3100.8927              3105.9574              3116.4418
 Red. masses --      1.0614                 1.0982                 1.0993
 Frc consts  --      6.0130                 6.2421                 6.2907
 IR Inten    --     25.2140                67.1255                14.7723

                    103                    104                    105
                      A                      A                      A
 Frequencies --   3122.5990              3124.5302              3132.7704
 Red. masses --      1.0959                 1.1014                 1.0957
 Frc consts  --      6.2960                 6.3354                 6.3355
 IR Inten    --     86.3988                14.5554                 8.5503

                    106                    107                    108
                      A                      A                      A
 Frequencies --   3140.1063              3153.6795              3470.2723
 Red. masses --      1.1017                 1.1038                 1.0500
 Frc consts  --      6.4004                 6.4683                 7.4500
 IR Inten    --     17.7654                23.4690                 2.1999

                    109                    110                    111
                      A                      A                      A
 Frequencies --   3552.2390              3581.5499              3591.2776
 Red. masses --      1.0920                 1.0756                 1.0758
 Frc consts  --      8.1188                 8.1289                 8.1752
 IR Inten    --      1.2476                24.4647                21.1006

 - Thermochemistry -
 -------------------
 Temperature   298.150 Kelvin.  Pressure   1.00000 Atm.
 Atom     1 has atomic number  6 and mass  12.00000

 Molecular mass:   229.17903 amu.
 Principal axes and moments of inertia in atomic units:
                           1         2         3
     Eigenvalues --  2859.244075364.934456572.48149
           X            0.99981   0.01504  -0.01246
           Y           -0.01529   0.99967  -0.02056
           Z            0.01215   0.02074   0.99971
 This molecule is an asymmetric top.
 Rotational symmetry number  1.
 Warning -- assumption of classical behavior for rotation
           may cause significant error
 Rotational temperatures (Kelvin)      0.03029     0.01614     0.01318
 Rotational constants (GHZ):           0.63120     0.33640     0.27459
 Zero-point vibrational energy     918415.2 (Joules/Mol)
                                  219.50649 (Kcal/Mol)
 Warning -- explicit consideration of  29 degrees of freedom as
           vibrations may cause significant error
 Vibrational temperatures:     30.68    44.07    59.65    84.48    90.12
          (Kelvin)            101.09   119.31   143.18   168.97   221.96
                              247.89   300.19   313.02   336.10   357.57
                              378.97   424.75   428.32   475.73   493.55
                              588.58   610.87   636.90   680.86   737.46
                              750.53   799.35   815.56   856.31   924.48
                             1001.04  1019.36  1117.88  1128.88  1186.01
                             1198.01  1247.15  1291.94  1302.96  1327.76
                             1350.84  1359.11  1382.78  1413.11  1420.78
                             1504.60  1535.28  1578.12  1588.74  1627.03
                             1649.91  1668.91  1707.96  1729.03  1743.00
                             1747.71  1754.43  1826.76  1858.76  1873.48
                             1918.43  1920.51  1947.92  1960.12  1978.11
                             1996.71  2023.21  2032.56  2059.21  2069.61
                             2076.06  2081.34  2093.39  2146.08  2148.43
                             2152.94  2165.27  2171.77  2179.92  2183.32
                             2192.93  2199.87  2205.80  2209.75  2214.68
                             2448.34  2547.33  2564.63  4215.24  4361.26
                             4370.34  4377.20  4399.53  4407.20  4410.89
                             4418.44  4433.54  4434.22  4452.97  4461.49
                             4468.78  4483.86  4492.72  4495.50  4507.36
                             4517.91  4537.44  4992.95  5110.88  5153.05
                             5167.05

 Zero-point correction=                           0.349806 (Hartree/Particle)
 Thermal correction to Energy=                    0.368881
 Thermal correction to Enthalpy=                  0.369825
 Thermal correction to Gibbs Free Energy=         0.300540
 Sum of electronic and zero-point Energies=           -747.470289
 Sum of electronic and thermal Energies=              -747.451214
 Sum of electronic and thermal Enthalpies=            -747.450269
 Sum of electronic and thermal Free Energies=         -747.519555

                     E (Thermal)             CV                S
                      KCal/Mol        Cal/Mol-Kelvin    Cal/Mol-Kelvin
 Total                  231.476             69.214            145.823
 Electronic               0.000              0.000              0.000
 Translational            0.889              2.981             42.190
 Rotational               0.889              2.981             32.977
 Vibrational            229.699             63.252             70.656
 Vibration     1          0.593              1.985              6.507
 Vibration     2          0.594              1.984              5.788
 Vibration     3          0.594              1.981              5.188
 Vibration     4          0.596              1.974              4.500
 Vibration     5          0.597              1.972              4.372
 Vibration     6          0.598              1.968              4.146
 Vibration     7          0.600              1.961              3.821
 Vibration     8          0.604              1.949              3.464
 Vibration     9          0.608              1.935              3.142
 Vibration    10          0.620              1.898              2.619
 Vibration    11          0.626              1.877              2.410
 Vibration    12          0.642              1.828              2.056
 Vibration    13          0.646              1.814              1.979
 Vibration    14          0.654              1.789              1.851
 Vibration    15          0.662              1.765              1.741
 Vibration    16          0.670              1.740              1.639
 Vibration    17          0.689              1.683              1.444
 Vibration    18          0.691              1.678              1.430
 Vibration    19          0.713              1.614              1.257
 Vibration    20          0.722              1.589              1.198
 Vibration    21          0.773              1.450              0.930
 Vibration    22          0.787              1.417              0.877
 Vibration    23          0.802              1.377              0.818
 Vibration    24          0.830              1.309              0.729
 Vibration    25          0.868              1.222              0.627
 Vibration    26          0.877              1.202              0.606
 Vibration    27          0.911              1.128              0.533
 Vibration    28          0.923              1.103              0.510
 Vibration    29          0.953              1.042              0.458

 Optimization completed.
    -- Stationary point found.
 Normal termination of Gaussian 16 at Fri Dec 11 01:48:14 2020.

 ----------------------------------------------------------------------
 # B3LYP/6-311++G(d,p) empiricaldispersion=gd3bj scf=xqc pop=npa geom=c
 heck
 ----------------------------------------------------------------------

 ---------------------------------------
 CID_104421594_JID_6819_Energie_neutraal
 ---------------------------------------
 Structure from the checkpoint file:  "JID_6819.chk"
 Charge =  0 Multiplicity = 1

 SCF Done:  E(RB3LYP) =  -748.053387655     A.U. after   14 cycles
 Normal termination of Gaussian 16 at Fri Dec 11 01:54:05 2020.

 ----------------------------------------------------------------------
 # B3LYP/6-311++G(d,p) empiricaldispersion=gd3bj scf=xqc pop=npa geom=c
 heck
 ----------------------------------------------------------------------

 -------------------------------------
 CID_104421594_JID_6819_Energie_kation
 -------------------------------------
 Structure from the checkpoint file:  "JID_6819.chk"
 Charge =  1 Multiplicity = 2

 SCF Done:  E(UB3LYP) =  -747.738524126     A.U. after   32 cycles
 Normal termination of Gaussian 16 at Fri Dec 11 02:11:39 2020.
 Gaussian 16:  ES64L-G16RevA.03 25-Dec-2016

 ----------------------------------------------------------------------
 # B3LYP/6-311++G(d,p) empiricaldispersion=gd3bj scf=xqc pop=npa geom=c
 heck
 ----------------------------------------------------------------------

 ------------------------------------
 CID_104421594_JID_6819_Energie_anion
 ------------------------------------
 Structure from the checkpoint file:  "JID_6819.chk"
 Charge = -1 Multiplicity = 2

                         Standard orientation:
 ---------------------------------------------------------------------
 Center     Atomic      Atomic             Coordinates (Angstroms)
 Number     Number       Type             X           Y           Z
 ---------------------------------------------------------------------
      1          6           0       -1.375700   -2.116587    1.433920
      2          6           0       -0.954877   -1.891395   -0.019751
      3          6           0       -0.203442   -3.098274   -0.590032
      4          6           0       -2.152872   -1.546156   -0.924133
      5          7           0       -2.943145   -0.400200   -0.482797
      6          6           0       -2.605005    0.921448   -0.508247
      7          8           0       -3.261421    1.760077    0.104994
      8          6           0       -1.388144    1.346440   -1.326257
      9          6           0       -0.577488    2.375663   -0.518579
     10          7           0       -0.228944    1.899380    0.812659
     11          6           0        0.753699    0.998350    1.134736
     12          8           0        0.755945    0.424152    2.218128
     13          6           0        1.853726    0.780246    0.097428
     14          6           0        2.831776   -0.316388    0.517552
     15          6           0        3.838963   -0.665189   -0.577960
     16          7           0        4.680001    0.489037   -0.920478
     17          1           0       -2.052842   -2.977251    1.518621
     18          1           0       -1.878755   -1.235297    1.842723
     19          1           0       -0.499466   -2.303333    2.061183
     20          1           0       -0.273963   -1.033712   -0.032960
     21          1           0       -0.836906   -3.994563   -0.588580
     22          1           0        0.123182   -2.920329   -1.622121
     23          1           0        0.685736   -3.319135    0.009917
     24          1           0       -1.813021   -1.375925   -1.951647
     25          1           0       -2.836811   -2.401811   -0.966411
     26          1           0       -3.719279   -0.584409    0.141585
     27          1           0       -0.759603    0.499533   -1.608730
     28          1           0       -1.747269    1.810160   -2.254030
     29          1           0        0.330280    2.654568   -1.059523
     30          1           0       -1.180496    3.276531   -0.391851
     31          1           0       -0.977128    1.936303    1.496346
     32          1           0        1.401523    0.530268   -0.872628
     33          1           0        2.382422    1.731875   -0.048034
     34          1           0        3.365673    0.002405    1.417420
     35          1           0        2.265804   -1.215139    0.787854
     36          1           0        4.501313   -1.455010   -0.205312
     37          1           0        3.296821   -1.092688   -1.443902
     38          1           0        5.445105    0.189856   -1.522229
     39          1           0        4.142286    1.156800   -1.470406
 ---------------------------------------------------------------------

 SCF Done:  E(UB3LYP) =  -748.048138369     A.U. after   32 cycles

 The electronic state is 2-A.
 Alpha  occ. eigenvalues --  -19.00264 -18.99634 -14.25239 -14.24322 -14.19659
 Alpha  occ. eigenvalues --  -10.18871 -10.18064 -10.12496 -10.12112 -10.09453
 Alpha  occ. eigenvalues --  -10.09348 -10.08916 -10.08464 -10.07054 -10.06885
 Alpha  occ. eigenvalues --  -10.06785  -0.95457  -0.94655  -0.83962  -0.83439
 Alpha  occ. eigenvalues --   -0.78732  -0.71549  -0.69022  -0.68347  -0.61097
 Alpha  occ. eigenvalues --   -0.60202  -0.59745  -0.57801  -0.51215  -0.49944
 Alpha  occ. eigenvalues --   -0.47520  -0.46113  -0.42148  -0.41834  -0.40814
 Alpha  occ. eigenvalues --   -0.40058  -0.38928  -0.37694  -0.37493  -0.36836
 Alpha  occ. eigenvalues --   -0.35478  -0.34063  -0.33511  -0.32326  -0.31481
 Alpha  occ. eigenvalues --   -0.31430  -0.30900  -0.30072  -0.29818  -0.28837
 Alpha  occ. eigenvalues --   -0.27812  -0.27605  -0.26049  -0.25657  -0.25080
 Alpha  occ. eigenvalues --   -0.24807  -0.24620  -0.24226  -0.17742  -0.17297
 Alpha  occ. eigenvalues --   -0.16941  -0.16317  -0.14945   0.03724
 Alpha virt. eigenvalues --    0.05695   0.06638   0.07381   0.08150   0.08355
 Alpha virt. eigenvalues --    0.08638   0.09149   0.09874   0.09956   0.10278
 Alpha virt. eigenvalues --    0.10861   0.11228   0.11821   0.12292   0.12535

  Beta  occ. eigenvalues --  -19.00261 -18.99629 -14.25231 -14.24323 -14.19621
  Beta  occ. eigenvalues --  -10.18869 -10.18055 -10.12483 -10.12082 -10.09428
  Beta  occ. eigenvalues --  -10.09318 -10.08912 -10.08441 -10.07025 -10.06883
  Beta  occ. eigenvalues --  -10.06774  -0.95449  -0.94643  -0.83944  -0.83432
  Beta  occ. eigenvalues --   -0.78669  -0.71527  -0.68985  -0.68312  -0.61052
  Beta  occ. eigenvalues --   -0.60149  -0.59701  -0.57757  -0.51173  -0.49905
  Beta  occ. eigenvalues --   -0.47474  -0.46072  -0.42112  -0.41801  -0.40786
  Beta  occ. eigenvalues --   -0.40023  -0.38888  -0.37666  -0.37452  -0.36795
  Beta  occ. eigenvalues --   -0.35438  -0.34011  -0.33490  -0.32305  -0.31451
  Beta  occ. eigenvalues --   -0.31397  -0.30867  -0.30044  -0.29791  -0.28815
  Beta  occ. eigenvalues --   -0.27778  -0.27576  -0.26027  -0.25625  -0.25047
  Beta  occ. eigenvalues --   -0.24783  -0.24594  -0.24194  -0.17726  -0.17290
  Beta  occ. eigenvalues --   -0.16928  -0.16297  -0.14901
  Beta virt. eigenvalues --    0.06092   0.06650   0.07175   0.07979   0.08386
  Beta virt. eigenvalues --    0.08713   0.08904   0.09398   0.10024   0.10316
  Beta virt. eigenvalues --    0.10570   0.11071   0.11438   0.11955   0.12507

 Mulliken charges and spin densities:
               1          2
     1  C   -0.673548   0.027258
     2  C   -0.336155   1.087264
     3  C    0.044852  -0.649280
     4  C    0.024812  -0.822506
     5  N   -0.102041  -0.004812
     6  C   -0.736997   0.472897
     7  O   -0.321231  -0.007261
     8  C    0.603190  -0.382635
     9  C    0.375152  -0.937739
    10  N   -0.089559   0.035848
    11  C    0.032075  -0.286778
    12  O   -0.244649   0.004410
    13  C   -0.162557  -0.113512
    14  C   -0.653147   0.659240
    15  C    0.539799  -1.189480
    16  N   -0.341841  -0.034442
    17  H   -0.068058   0.209846
    18  H    0.177801  -0.010761
    19  H    0.064952   0.106527
    20  H    2.263359  -2.278321
    21  H   -0.147828   0.285446
    22  H   -0.166294   0.320219
    23  H    0.047231   0.094989
    24  H   -0.323258   0.554077
    25  H   -0.265883   0.433546
    26  H    0.178168   0.123663
    27  H   -0.246026   0.373725
    28  H   -0.519467   0.747723
    29  H   -0.183756   0.375827
    30  H    0.252967  -0.042313
    31  H    0.290616   0.011264
    32  H   -0.176182   0.407125
    33  H    0.091410   0.108404
    34  H    0.130708   0.049672
    35  H    0.173696  -0.026848
    36  H   -0.032100   0.191231
    37  H   -0.378431   0.510119
    38  H   -0.022966   0.266451
    39  H   -0.098813   0.329915
 Sum of Mulliken charges =  -1.00000   1.00000

 Dipole moment (field-independent basis, Debye):
    X=             -2.5679    Y=             -0.0915    Z=              4.3870  Tot=              5.0841
 Quadrupole moment (field-independent basis, Debye-Ang):
   XX=           -172.7393   YY=           -143.1798   ZZ=           -153.7381
   XY=             -2.4011   XZ=              4.0531   YZ=             -1.5086

 Summary of Natural Population Analysis:

                                       Natural Population
                Natural  -----------------------------------------------
    Atom  No    Charge         Core      Valence    Rydberg      Total
 -----------------------------------------------------------------------
      C    1   -0.28578      0.99964     2.28010    0.00604     3.28578
      C    2   -0.12823      0.99959     2.11934    0.00929     3.12823
      C    3   -0.28386      0.99965     2.27802    0.00620     3.28386
      C    4   -0.08735      0.99958     2.07578    0.01199     3.08735
      N    5   -0.31312      0.99966     2.80342    0.01003     3.81312
      C    6    0.34575      0.99966     1.63120    0.02339     2.65425
      O    7   -0.33611      0.99988     3.33082    0.00540     4.33611
      C    8   -0.24100      0.99958     2.23267    0.00875     3.24100
      C    9   -0.08941      0.99962     2.07757    0.01223     3.08941
      N   10   -0.32267      0.99967     2.81447    0.00853     3.82267
      C   11    0.34569      0.99967     1.63126    0.02338     2.65431
      O   12   -0.32343      0.99988     3.31804    0.00551     4.32343
      C   13   -0.24377      0.99958     2.23576    0.00844     3.24377
      C   14   -0.19157      0.99963     2.18254    0.00941     3.19157
      C   15   -0.08719      0.99963     2.07621    0.01135     3.08719
      N   16   -0.42591      0.99977     2.91546    0.01068     3.92591
      H   17    0.09293      0.00000     0.40633    0.00074     0.40707
      H   18    0.10232      0.00000     0.39688    0.00080     0.39768
      H   19    0.10690      0.00000     0.39242    0.00068     0.39310
      H   20    0.09563      0.00000     0.39963    0.00474     0.40437
      H   21    0.09637      0.00000     0.40262    0.00100     0.40363
      H   22    0.10369      0.00000     0.39486    0.00145     0.39631
      H   23    0.10116      0.00000     0.39788    0.00096     0.39884
      H   24    0.10305      0.00000     0.39518    0.00177     0.39695
      H   25    0.09982      0.00000     0.39885    0.00133     0.40018
      H   26    0.19350      0.00000     0.30452    0.00197     0.30650
      H   27    0.10577      0.00000     0.39145    0.00278     0.39423
      H   28    0.11723      0.00000     0.38132    0.00145     0.38277
      H   29    0.10374      0.00000     0.39506    0.00120     0.39626
      H   30    0.10567      0.00000     0.39321    0.00112     0.39433
      H   31    0.19727      0.00000     0.30085    0.00188     0.30273
      H   32    0.10750      0.00000     0.38983    0.00267     0.39250
      H   33    0.11156      0.00000     0.38709    0.00135     0.38844
      H   34    0.10237      0.00000     0.39643    0.00121     0.39763
      H   35    0.10183      0.00000     0.39686    0.00132     0.39817
      H   36    0.08857      0.00000     0.41047    0.00096     0.41143
      H   37    0.08053      0.00000     0.41713    0.00234     0.41947
      H   38    0.17562      0.00000     0.32256    0.00181     0.32438
      H   39    0.17492      0.00000     0.32240    0.00268     0.32508
 =======================================================================
   * Total *   -0.00000     15.99470    46.79648    0.20882    63.00000

 Normal termination of Gaussian 16 at Fri Dec 11 02:29:06 2020.
