 Gaussian 16, Revision A.03,

 -----------------------------------------------------------
 # opt freq B3LYP/6-31G(d) empiricaldispersion=gd3bj scf=xqc
 -----------------------------------------------------------

 ------------------------------
 CID_23879187_JID_3953_neutraal
 ------------------------------
 Symbolic Z-matrix:
 Charge =  0 Multiplicity = 1

 SCF Done:  E(RB3LYP) =  -966.371570459     A.U. after   15 cycles
 SCF Done:  E(RB3LYP) =  -966.378336842     A.U. after   13 cycles
 SCF Done:  E(RB3LYP) =  -966.378592812     A.U. after   13 cycles
 SCF Done:  E(RB3LYP) =  -966.379954845     A.U. after   13 cycles
 SCF Done:  E(RB3LYP) =  -966.380838124     A.U. after   13 cycles
 SCF Done:  E(RB3LYP) =  -966.381432903     A.U. after   12 cycles
 SCF Done:  E(RB3LYP) =  -966.381877573     A.U. after   12 cycles
 SCF Done:  E(RB3LYP) =  -966.381952902     A.U. after   12 cycles
 SCF Done:  E(RB3LYP) =  -966.381998156     A.U. after   11 cycles
 SCF Done:  E(RB3LYP) =  -966.382003280     A.U. after   11 cycles
 SCF Done:  E(RB3LYP) =  -966.382006466     A.U. after   10 cycles
 SCF Done:  E(RB3LYP) =  -966.382007218     A.U. after    8 cycles
 SCF Done:  E(RB3LYP) =  -966.382007221     A.U. after    8 cycles
 SCF Done:  E(RB3LYP) =  -966.382007213     A.U. after    7 cycles
 Optimization completed.
    -- Stationary point found.
 Normal termination of Gaussian 16 at Mon Dec 14 16:31:38 2020.

 --------------------------------------------------------------------
 #N Geom=AllCheck Guess=TCheck SCRF=Check GenChk RB3LYP/6-31G(d) Freq
 --------------------------------------------------------------------

 Structure from the checkpoint file:  "JID_3953.chk"
 ------------------------------
 CID_23879187_JID_3953_neutraal
 ------------------------------
 Charge =  0 Multiplicity = 1

 SCF Done:  E(RB3LYP) =  -966.382007213     A.U. after    1 cycles

  Exact polarizability: 165.430  -8.190 111.101  11.072   7.305  92.902
 Approx polarizability: 235.932  -6.645 195.306  30.093  34.398 154.630

                      1                      2                      3
                      A                      A                      A
 Frequencies --     27.6187                51.2625                86.3061
 Red. masses --      3.6908                 3.9559                 3.2893
 Frc consts  --      0.0017                 0.0061                 0.0144
 IR Inten    --      0.3677                 0.3698                 1.1940

                      4                      5                      6
                      A                      A                      A
 Frequencies --    116.8796               124.7460               147.9476
 Red. masses --      2.4870                 4.1212                 1.1365
 Frc consts  --      0.0200                 0.0378                 0.0147
 IR Inten    --      1.3581                 7.5056                 0.1898

                      7                      8                      9
                      A                      A                      A
 Frequencies --    193.0761               241.6558               257.3367
 Red. masses --      2.9338                 2.3885                 1.7663
 Frc consts  --      0.0644                 0.0822                 0.0689
 IR Inten    --      2.9325                18.1627                 3.2181

                     10                     11                     12
                      A                      A                      A
 Frequencies --    261.0370               266.8823               291.8368
 Red. masses --      2.6240                 2.0831                 3.3474
 Frc consts  --      0.1053                 0.0874                 0.1680
 IR Inten    --     14.9225                23.9401                 6.1140

                     13                     14                     15
                      A                      A                      A
 Frequencies --    302.3509               349.0154               386.8832
 Red. masses --      1.5874                 4.7062                 5.4398
 Frc consts  --      0.0855                 0.3378                 0.4797
 IR Inten    --      0.2701                 1.3838                 9.6378

                     16                     17                     18
                      A                      A                      A
 Frequencies --    410.7365               436.5800               488.7735
 Red. masses --      6.2911                 2.3994                 7.8208
 Frc consts  --      0.6253                 0.2694                 1.1008
 IR Inten    --      1.4377                 2.8801                 6.1914

                     19                     20                     21
                      A                      A                      A
 Frequencies --    501.4948               580.6835               629.9505
 Red. masses --      8.3292                 5.2871                 4.7494
 Frc consts  --      1.2342                 1.0504                 1.1105
 IR Inten    --      6.1337                11.3143                 1.9754

                     22                     23                     24
                      A                      A                      A
 Frequencies --    650.0995               662.4702               713.3287
 Red. masses --      8.5162                 8.2951                 7.2318
 Frc consts  --      2.1206                 2.1449                 2.1681
 IR Inten    --     16.0731                 0.3366                 0.1225

                     25                     26                     27
                      A                      A                      A
 Frequencies --    756.4127               795.9622               868.0337
 Red. masses --      7.6109                 1.2918                 1.8628
 Frc consts  --      2.5657                 0.4822                 0.8270
 IR Inten    --      9.6916                 9.6301                 5.6664

                     28                     29                     30
                      A                      A                      A
 Frequencies --    900.5457               950.7690               976.9826
 Red. masses --      1.6966                 6.5209                 2.6776
 Frc consts  --      0.8107                 3.4730                 1.5058
 IR Inten    --      4.0782                31.8165                10.0221

                     31                     32                     33
                      A                      A                      A
 Frequencies --   1050.5983              1063.5444              1064.2781
 Red. masses --      1.9087                 1.6081                 1.6333
 Frc consts  --      1.2412                 1.0717                 1.0900
 IR Inten    --     55.3572                 1.9343                 4.0201

                     34                     35                     36
                      A                      A                      A
 Frequencies --   1088.5479              1092.9776              1107.8692
 Red. masses --      2.7389                 1.8137                 2.8275
 Frc consts  --      1.9121                 1.2765                 2.0447
 IR Inten    --     38.5656                 2.5036                41.5729

                     37                     38                     39
                      A                      A                      A
 Frequencies --   1119.5414              1217.0307              1260.6468
 Red. masses --      1.5845                 3.4951                 1.2812
 Frc consts  --      1.1701                 3.0501                 1.1997
 IR Inten    --      5.6407               103.2929                 0.8997

                     40                     41                     42
                      A                      A                      A
 Frequencies --   1294.4436              1326.3400              1346.4876
 Red. masses --      1.2589                 2.9564                 3.4284
 Frc consts  --      1.2429                 3.0643                 3.6623
 IR Inten    --      1.4859                51.7736                29.2221

                     43                     44                     45
                      A                      A                      A
 Frequencies --   1348.5811              1397.5694              1436.9489
 Red. masses --      1.3235                 1.4057                 1.3781
 Frc consts  --      1.4181                 1.6177                 1.6765
 IR Inten    --     10.8367                 5.1906                21.3289

                     46                     47                     48
                      A                      A                      A
 Frequencies --   1447.9417              1467.5031              1490.9953
 Red. masses --      1.2508                 2.2162                 1.3203
 Frc consts  --      1.5451                 2.8120                 1.7293
 IR Inten    --      3.2960                30.7015                10.6371

                     49                     50                     51
                      A                      A                      A
 Frequencies --   1498.9823              1503.1725              1511.5192
 Red. masses --      1.0450                 1.0976                 1.0843
 Frc consts  --      1.3834                 1.4613                 1.4595
 IR Inten    --      8.0834                 3.1369                 4.9085

                     52                     53                     54
                      A                      A                      A
 Frequencies --   1514.1545              1531.7063              1547.4655
 Red. masses --      3.3001                 1.0483                 1.0529
 Frc consts  --      4.4577                 1.4491                 1.4855
 IR Inten    --    121.7241                 8.5056                17.4321

                     55                     56                     57
                      A                      A                      A
 Frequencies --   1586.7021              1657.2054              1764.3909
 Red. masses --      5.1337                 1.2053                 6.0820
 Frc consts  --      7.6150                 1.9504                11.1554
 IR Inten    --     25.3664               183.5081               233.7133

                     58                     59                     60
                      A                      A                      A
 Frequencies --   3030.5965              3049.5166              3059.4199
 Red. masses --      1.0663                 1.0412                 1.0375
 Frc consts  --      5.7700                 5.7051                 5.7213
 IR Inten    --     34.6870                15.4340                 8.2360

                     61                     62                     63
                      A                      A                      A
 Frequencies --   3078.8116              3083.2115              3112.0984
 Red. masses --      1.0749                 1.0823                 1.0998
 Frc consts  --      6.0030                 6.0618                 6.2761
 IR Inten    --     22.0123                16.0602                 8.0831

                     64                     65                     66
                      A                      A                      A
 Frequencies --   3114.9102              3143.1425              3145.5172
 Red. masses --      1.0997                 1.1014                 1.1029
 Frc consts  --      6.2868                 6.4111                 6.4292
 IR Inten    --     41.4400                 8.4823                 8.5251

                     67                     68                     69
                      A                      A                      A
 Frequencies --   3171.1793              3414.6833              3521.2900
 Red. masses --      1.1021                 1.0483                 1.0947
 Frc consts  --      6.5300                 7.2015                 7.9977
 IR Inten    --      5.8124                19.2100                27.0060

 - Thermochemistry -
 -------------------
 Temperature   298.150 Kelvin.  Pressure   1.00000 Atm.
 Atom     1 has atomic number  6 and mass  12.00000

 Molecular mass:   200.07318 amu.
 Principal axes and moments of inertia in atomic units:
                           1         2         3
     Eigenvalues --  1513.165803769.789244106.85910
           X            0.99980  -0.00646  -0.01879
           Y            0.00450   0.99475  -0.10225
           Z            0.01935   0.10215   0.99458
 This molecule is an asymmetric top.
 Rotational symmetry number  1.
 Warning -- assumption of classical behavior for rotation
           may cause significant error
 Rotational temperatures (Kelvin)      0.05724     0.02298     0.02109
 Rotational constants (GHZ):           1.19269     0.47874     0.43945
 Zero-point vibrational energy     526890.3 (Joules/Mol)
                                  125.92980 (Kcal/Mol)
 Warning -- explicit consideration of  20 degrees of freedom as
           vibrations may cause significant error
 Vibrational temperatures:     39.74    73.76   124.18   168.16   179.48
          (Kelvin)            212.86   277.79   347.69   370.25   375.57
                              383.98   419.89   435.02   502.16   556.64
                              590.96   628.14   703.24   721.54   835.47
                              906.36   935.35   953.15  1026.32  1088.31
                             1145.21  1248.91  1295.68  1367.94  1405.66
                             1511.58  1530.20  1531.26  1566.18  1572.55
                             1593.98  1610.77  1751.04  1813.79  1862.42
                             1908.31  1937.30  1940.31  2010.79  2067.45
                             2083.27  2111.41  2145.21  2156.70  2162.73
                             2174.74  2178.53  2203.78  2226.46  2282.91
                             2384.35  2538.56  4360.35  4387.57  4401.82
                             4429.72  4436.05  4477.62  4481.66  4522.28
                             4525.70  4562.62  4912.97  5066.35

 Zero-point correction=                           0.200682 (Hartree/Particle)
 Thermal correction to Energy=                    0.214450
 Thermal correction to Enthalpy=                  0.215394
 Thermal correction to Gibbs Free Energy=         0.159590
 Sum of electronic and zero-point Energies=           -966.181325
 Sum of electronic and thermal Energies=              -966.167558
 Sum of electronic and thermal Enthalpies=            -966.166614
 Sum of electronic and thermal Free Energies=         -966.222417

                     E (Thermal)             CV                S
                      KCal/Mol        Cal/Mol-Kelvin    Cal/Mol-Kelvin
 Total                  134.569             50.204            117.449
 Electronic               0.000              0.000              0.000
 Translational            0.889              2.981             41.785
 Rotational               0.889              2.981             31.527
 Vibrational            132.792             44.243             44.136
 Vibration     1          0.593              1.984              5.994
 Vibration     2          0.596              1.977              4.768
 Vibration     3          0.601              1.959              3.742
 Vibration     4          0.608              1.935              3.151
 Vibration     5          0.610              1.928              3.025
 Vibration     6          0.617              1.905              2.698
 Vibration     7          0.635              1.849              2.198
 Vibration     8          0.658              1.777              1.791
 Vibration     9          0.667              1.750              1.680
 Vibration    10          0.669              1.744              1.655
 Vibration    11          0.672              1.734              1.616
 Vibration    12          0.687              1.689              1.463
 Vibration    13          0.694              1.669              1.404
 Vibration    14          0.726              1.577              1.171
 Vibration    15          0.755              1.498              1.012
 Vibration    16          0.775              1.447              0.924
 Vibration    17          0.797              1.390              0.837
 Vibration    18          0.845              1.275              0.687
 Vibration    19          0.857              1.247              0.654
 Vibration    20          0.937              1.073              0.484

                           ! Non-Optimized Parameters !
 Normal termination of Gaussian 16 at Mon Dec 14 16:38:00 2020.

 ----------------------------------------------------------------------
 # B3LYP/6-311++G(d,p) empiricaldispersion=gd3bj scf=xqc pop=npa geom=c
 heck
 ----------------------------------------------------------------------

 --------------------------------------
 CID_23879187_JID_3953_Energie_neutraal
 --------------------------------------
 Structure from the checkpoint file:  "JID_3953.chk"
 Charge =  0 Multiplicity = 1

 SCF Done:  E(RB3LYP) =  -966.572051162     A.U. after   15 cycles
 Normal termination of Gaussian 16 at Mon Dec 14 16:40:46 2020.

 ----------------------------------------------------------------------
 # B3LYP/6-311++G(d,p) empiricaldispersion=gd3bj scf=xqc pop=npa geom=c
 heck
 ----------------------------------------------------------------------

 ------------------------------------
 CID_23879187_JID_3953_Energie_kation
 ------------------------------------
 Structure from the checkpoint file:  "JID_3953.chk"
 Charge =  1 Multiplicity = 2

 SCF Done:  E(UB3LYP) =  -966.252336989     A.U. after   30 cycles
 Normal termination of Gaussian 16 at Mon Dec 14 16:48:20 2020.
 Gaussian 16:  ES64L-G16RevA.03 25-Dec-2016

 ----------------------------------------------------------------------
 # B3LYP/6-311++G(d,p) empiricaldispersion=gd3bj scf=xqc pop=npa geom=c
 heck
 ----------------------------------------------------------------------

 -----------------------------------
 CID_23879187_JID_3953_Energie_anion
 -----------------------------------
 Structure from the checkpoint file:  "JID_3953.chk"
 Charge = -1 Multiplicity = 2

                         Standard orientation:
 ---------------------------------------------------------------------
 Center     Atomic      Atomic             Coordinates (Angstroms)
 Number     Number       Type             X           Y           Z
 ---------------------------------------------------------------------
      1          6           0       -2.005470   -1.479868    1.592220
      2          6           0       -3.173350   -0.675796    1.017041
      3          6           0       -2.759201    0.576948    0.244258
      4         16           0       -1.842636    0.241190   -1.330019
      5          6           0       -0.191735   -0.091840   -0.756925
      6          7           0        0.338547   -1.243439   -1.083910
      7          7           0        1.634849   -1.509713   -0.742503
      8          6           0        2.340241   -0.641351   -0.066139
      9          6           0        1.833491    0.667996    0.325613
     10          8           0        2.441423    1.543969    0.937078
     11          7           0        0.513728    0.881759   -0.098086
     12          7           0       -0.059415    2.122299    0.252022
     13          6           0        3.749838   -0.974047    0.309388
     14          1           0       -1.412225   -1.945522    0.800480
     15          1           0       -2.372437   -2.277745    2.246345
     16          1           0       -1.340704   -0.840272    2.186417
     17          1           0       -3.786879   -1.316884    0.373048
     18          1           0       -3.825039   -0.336716    1.835215
     19          1           0       -3.639561    1.131111   -0.097803
     20          1           0       -2.150172    1.253147    0.848697
     21          1           0       -0.316500    2.593979   -0.616054
     22          1           0        0.717051    2.623843    0.693414
     23          1           0        4.001474   -1.969371   -0.060286
     24          1           0        4.443565   -0.235801   -0.108942
     25          1           0        3.875367   -0.939146    1.397756
 ---------------------------------------------------------------------

 SCF Done:  E(UB3LYP) =  -966.589152352     A.U. after   26 cycles

 The electronic state is 2-A.
 Alpha  occ. eigenvalues --  -88.72007 -18.94818 -14.24014 -14.21799 -14.17727
 Alpha  occ. eigenvalues --  -14.15924 -10.11928 -10.10703 -10.07433 -10.06384
 Alpha  occ. eigenvalues --  -10.04507 -10.03210 -10.02483  -7.80563  -5.76946
 Alpha  occ. eigenvalues --   -5.76587  -5.75964  -0.92518  -0.86491  -0.83285
 Alpha  occ. eigenvalues --   -0.71204  -0.68936  -0.67410  -0.62417  -0.58120
 Alpha  occ. eigenvalues --   -0.54387  -0.51127  -0.48448  -0.46295  -0.41575
 Alpha  occ. eigenvalues --   -0.39276  -0.36384  -0.35480  -0.34138  -0.32044
 Alpha  occ. eigenvalues --   -0.30259  -0.29839  -0.28297  -0.27709  -0.27026
 Alpha  occ. eigenvalues --   -0.24999  -0.24761  -0.24150  -0.23717  -0.23101
 Alpha  occ. eigenvalues --   -0.20871  -0.19856  -0.17230  -0.14396  -0.13067
 Alpha  occ. eigenvalues --   -0.11180  -0.09106  -0.08029   0.04384
 Alpha virt. eigenvalues --    0.07588   0.09209   0.09748   0.10401   0.10931
 Alpha virt. eigenvalues --    0.11844   0.12548   0.12769   0.13513   0.13687
 Alpha virt. eigenvalues --    0.14117   0.15040   0.15279   0.15928   0.16882

  Beta  occ. eigenvalues --  -88.72007 -18.94730 -14.23514 -14.21796 -14.17907
  Beta  occ. eigenvalues --  -14.15437 -10.11884 -10.10345 -10.07317 -10.06379
  Beta  occ. eigenvalues --  -10.04506 -10.02825 -10.02514  -7.80561  -5.76943
  Beta  occ. eigenvalues --   -5.76602  -5.75949  -0.92065  -0.86154  -0.82837
  Beta  occ. eigenvalues --   -0.70694  -0.68712  -0.67060  -0.62223  -0.57818
  Beta  occ. eigenvalues --   -0.54261  -0.50760  -0.47996  -0.46090  -0.41263
  Beta  occ. eigenvalues --   -0.38932  -0.35881  -0.35370  -0.34036  -0.31081
  Beta  occ. eigenvalues --   -0.30055  -0.29653  -0.28044  -0.27264  -0.26692
  Beta  occ. eigenvalues --   -0.24851  -0.24685  -0.23691  -0.23613  -0.22658
  Beta  occ. eigenvalues --   -0.19993  -0.19308  -0.16997  -0.13165  -0.12845
  Beta  occ. eigenvalues --   -0.10587  -0.07791  -0.07570
  Beta virt. eigenvalues --    0.07535   0.09170   0.09674   0.10345   0.10800
  Beta virt. eigenvalues --    0.11237   0.12020   0.12620   0.13388   0.13557
  Beta virt. eigenvalues --    0.13804   0.14217   0.15031   0.15377   0.15975

 Mulliken charges and spin densities:
               1          2
     1  C   -0.583626   0.005334
     2  C   -0.173241  -0.028592
     3  C   -0.136004  -0.153235
     4  S   -0.504262   0.063753
     5  C   -0.541383   0.275740
     6  N    0.126420  -0.101225
     7  N   -0.161684   0.236408
     8  C    0.155712   0.245888
     9  C    0.083471   0.047007
    10  O   -0.458017   0.033565
    11  N    0.373762   0.124984
    12  N   -0.441731   0.015153
    13  C   -0.481694  -0.013774
    14  H    0.182969  -0.004259
    15  H    0.130959   0.002428
    16  H    0.152262   0.000568
    17  H    0.105888   0.003436
    18  H    0.086366   0.017448
    19  H   -0.030772   0.200339
    20  H    0.236382  -0.010445
    21  H    0.241378   0.008318
    22  H    0.255637   0.002029
    23  H    0.120132  -0.001109
    24  H    0.128131   0.015921
    25  H    0.132945   0.014321
 Sum of Mulliken charges =  -1.00000   1.00000

 Dipole moment (field-independent basis, Debye):
    X=             -4.1549    Y=              2.3101    Z=              1.6583  Tot=              5.0348
 Quadrupole moment (field-independent basis, Debye-Ang):
   XX=           -118.9222   YY=           -103.9457   ZZ=           -100.7905
   XY=              0.6119   XZ=             -5.3283   YZ=             -8.9678

 Summary of Natural Population Analysis:

                                       Natural Population
                Natural  -----------------------------------------------
    Atom  No    Charge         Core      Valence    Rydberg      Total
 -----------------------------------------------------------------------
      C    1   -0.29308      0.99966     2.28853    0.00488     3.29308
      C    2   -0.19356      0.99963     2.18637    0.00756     3.19356
      C    3   -0.24357      0.99957     2.23000    0.01400     3.24357
      S    4    0.09299      4.99957     2.88589    0.02155     7.90701
      C    5    0.18463      0.99955     1.79394    0.02188     2.81537
      N    6   -0.20585      0.99964     2.69085    0.01536     3.70585
      N    7   -0.07333      0.99965     2.55792    0.01577     3.57333
      C    8    0.11187      0.99957     1.87023    0.01833     2.88813
      C    9    0.30793      0.99959     1.67056    0.02192     2.69207
      O   10   -0.34619      0.99988     3.33969    0.00663     4.34619
      N   11   -0.08809      0.99954     2.57705    0.01150     3.58809
      N   12   -0.32383      0.99977     2.81184    0.01222     3.82383
      C   13   -0.29884      0.99965     2.29409    0.00510     3.29884
      H   14    0.11477      0.00000     0.38380    0.00143     0.38523
      H   15    0.09065      0.00000     0.40845    0.00090     0.40935
      H   16    0.09767      0.00000     0.40130    0.00103     0.40233
      H   17    0.09283      0.00000     0.40560    0.00157     0.40717
      H   18    0.08909      0.00000     0.40932    0.00159     0.41091
      H   19    0.09720      0.00000     0.40130    0.00151     0.40280
      H   20    0.11501      0.00000     0.38310    0.00189     0.38499
      H   21    0.17767      0.00000     0.32080    0.00153     0.32233
      H   22    0.19182      0.00000     0.30612    0.00206     0.30818
      H   23    0.10052      0.00000     0.39822    0.00126     0.39948
      H   24    0.10092      0.00000     0.39797    0.00111     0.39908
      H   25    0.10079      0.00000     0.39811    0.00110     0.39921
 =======================================================================
   * Total *   -0.00000     16.99528    35.81104    0.19368    53.00000

 Normal termination of Gaussian 16 at Mon Dec 14 16:54:56 2020.
