 Gaussian 16, Revision A.03,

 -----------------------------------------------------------
 # opt freq B3LYP/6-31G(d) empiricaldispersion=gd3bj scf=xqc
 -----------------------------------------------------------

 ------------------------------
 CID_54399482_JID_2510_neutraal
 ------------------------------
 Symbolic Z-matrix:
 Charge =  0 Multiplicity = 1

 SCF Done:  E(RB3LYP) =  -606.767422279     A.U. after   15 cycles
 SCF Done:  E(RB3LYP) =  -606.772136356     A.U. after   12 cycles
 SCF Done:  E(RB3LYP) =  -606.772675636     A.U. after   12 cycles
 SCF Done:  E(RB3LYP) =  -606.772678046     A.U. after   11 cycles
 SCF Done:  E(RB3LYP) =  -606.772712425     A.U. after   11 cycles
 SCF Done:  E(RB3LYP) =  -606.772741646     A.U. after   10 cycles
 SCF Done:  E(RB3LYP) =  -606.772743459     A.U. after    9 cycles
 SCF Done:  E(RB3LYP) =  -606.772743892     A.U. after    8 cycles
 SCF Done:  E(RB3LYP) =  -606.772743951     A.U. after    7 cycles
 Optimization completed.
    -- Stationary point found.
 Normal termination of Gaussian 16 at Wed Dec  9 17:25:36 2020.

 --------------------------------------------------------------------
 #N Geom=AllCheck Guess=TCheck SCRF=Check GenChk RB3LYP/6-31G(d) Freq
 --------------------------------------------------------------------

 Structure from the checkpoint file:  "JID_2510.chk"
 ------------------------------
 CID_54399482_JID_2510_neutraal
 ------------------------------
 Charge =  0 Multiplicity = 1

 SCF Done:  E(RB3LYP) =  -606.772743951     A.U. after    1 cycles

  Exact polarizability: 125.425   0.737 105.011  -4.184   4.167  49.216
 Approx polarizability: 199.009   4.763 169.333 -10.262  10.496  72.961

                      1                      2                      3
                      A                      A                      A
 Frequencies --     47.1531                67.2818                84.6321
 Red. masses --      7.0545                 3.8602                 3.8583
 Frc consts  --      0.0092                 0.0103                 0.0163
 IR Inten    --      0.4789                 1.0056                 1.0052

                      4                      5                      6
                      A                      A                      A
 Frequencies --    142.9351               159.7998               210.5605
 Red. masses --      3.0704                 4.0751                 4.8022
 Frc consts  --      0.0370                 0.0613                 0.1254
 IR Inten    --      0.2928                 0.1946                 0.5014

                      7                      8                      9
                      A                      A                      A
 Frequencies --    222.1545               289.9265               368.7023
 Red. masses --      1.4414                 2.3367                 4.4225
 Frc consts  --      0.0419                 0.1157                 0.3542
 IR Inten    --      2.0592                 5.3714                 4.9260

                     10                     11                     12
                      A                      A                      A
 Frequencies --    390.2985               456.3643               491.8976
 Red. masses --      6.7892                 6.2293                 7.6058
 Frc consts  --      0.6093                 0.7644                 1.0843
 IR Inten    --      2.0863                 3.4597                 1.6492

                     13                     14                     15
                      A                      A                      A
 Frequencies --    495.8468               549.8212               633.3418
 Red. masses --      3.7785                 3.9532                 6.4330
 Frc consts  --      0.5473                 0.7041                 1.5203
 IR Inten    --      0.0819                33.8283                24.6484

                     16                     17                     18
                      A                      A                      A
 Frequencies --    655.5882               658.2267               724.0271
 Red. masses --      4.4998                 1.4346                 5.0752
 Frc consts  --      1.1395                 0.3662                 1.5675
 IR Inten    --     23.2881                80.1540                44.0539

                     19                     20                     21
                      A                      A                      A
 Frequencies --    757.1999               793.4558               818.1183
 Red. masses --      3.4656                 4.7852                 1.1742
 Frc consts  --      1.1707                 1.7750                 0.4631
 IR Inten    --      7.9501                33.1297                 1.2228

                     22                     23                     24
                      A                      A                      A
 Frequencies --    896.0705               907.7316               957.0802
 Red. masses --      2.8419                 1.5619                 1.4670
 Frc consts  --      1.3444                 0.7583                 0.7917
 IR Inten    --      5.3477                12.4815                 0.2307

                     25                     26                     27
                      A                      A                      A
 Frequencies --    991.3013              1030.3033              1063.3065
 Red. masses --      4.3352                 5.6385                 4.8299
 Frc consts  --      2.5100                 3.5265                 3.2174
 IR Inten    --      0.6440                33.7729                53.3773

                     28                     29                     30
                      A                      A                      A
 Frequencies --   1128.9316              1155.2598              1192.7980
 Red. masses --      1.9962                 3.5169                 1.9418
 Frc consts  --      1.4990                 2.7655                 1.6277
 IR Inten    --     21.3818               234.6616                20.5882

                     31                     32                     33
                      A                      A                      A
 Frequencies --   1209.7509              1255.6549              1284.4661
 Red. masses --      1.7560                 1.7662                 3.4975
 Frc consts  --      1.5142                 1.6407                 3.3998
 IR Inten    --     32.3071                90.2909                74.2283

                     34                     35                     36
                      A                      A                      A
 Frequencies --   1334.8029              1362.2269              1400.2426
 Red. masses --      1.3243                 1.8184                 1.5913
 Frc consts  --      1.3902                 1.9881                 1.8383
 IR Inten    --     37.8834               142.6745               112.2582

                     37                     38                     39
                      A                      A                      A
 Frequencies --   1426.0392              1442.1871              1475.3573
 Red. masses --      1.8220                 1.4444                 2.9211
 Frc consts  --      2.1830                 1.7701                 3.7462
 IR Inten    --     34.9543                44.4440               137.2457

                     40                     41                     42
                      A                      A                      A
 Frequencies --   1489.6972              1516.2366              1524.2094
 Red. masses --      2.7680                 1.0522                 1.2432
 Frc consts  --      3.6192                 1.4252                 1.7017
 IR Inten    --     21.6906                 2.6496                18.9287

                     43                     44                     45
                      A                      A                      A
 Frequencies --   1539.1527              1599.9175              1633.4964
 Red. masses --      1.1073                 8.0088                 5.8345
 Frc consts  --      1.5455                12.0785                 9.1725
 IR Inten    --      4.7592                74.1378                82.3577

                     46                     47                     48
                      A                      A                      A
 Frequencies --   1823.3286              3062.6846              3092.1438
 Red. masses --     10.0990                 1.0367                 1.0591
 Frc consts  --     19.7815                 5.7292                 5.9664
 IR Inten    --    271.6913                16.9185                27.6935

                     49                     50                     51
                      A                      A                      A
 Frequencies --   3128.6526              3140.5729              3161.0154
 Red. masses --      1.1012                 1.1058                 1.1058
 Frc consts  --      6.3506                 6.4263                 6.5102
 IR Inten    --     25.5993                 6.1380                32.2657

                     52                     53                     54
                      A                      A                      A
 Frequencies --   3199.5304              3236.2411              3690.8433
 Red. masses --      1.0918                 1.0927                 1.0640
 Frc consts  --      6.5849                 6.7424                 8.5398
 IR Inten    --     10.4804                 0.9695                69.0979

 - Thermochemistry -
 -------------------
 Temperature   298.150 Kelvin.  Pressure   1.00000 Atm.
 Atom     1 has atomic number  6 and mass  12.00000

 Molecular mass:   168.05349 amu.
 Principal axes and moments of inertia in atomic units:
                           1         2         3
     Eigenvalues --  1294.804282527.940343668.50599
           X            0.99907  -0.04274   0.00497
           Y            0.04277   0.99907  -0.00608
           Z           -0.00471   0.00629   0.99997
 This molecule is an asymmetric top.
 Rotational symmetry number  1.
 Warning -- assumption of classical behavior for rotation
           may cause significant error
 Rotational temperatures (Kelvin)      0.06689     0.03426     0.02361
 Rotational constants (GHZ):           1.39383     0.71392     0.49196
 Zero-point vibrational energy     402953.5 (Joules/Mol)
                                   96.30820 (Kcal/Mol)
 Warning -- explicit consideration of  14 degrees of freedom as
           vibrations may cause significant error
 Vibrational temperatures:     67.84    96.80   121.77   205.65   229.92
          (Kelvin)            302.95   319.63   417.14   530.48   561.55
                              656.61   707.73   713.41   791.07   911.24
                              943.25   947.04  1041.71  1089.44  1141.61
                             1177.09  1289.25  1306.02  1377.02  1426.26
                             1482.38  1529.86  1624.28  1662.16  1716.17
                             1740.56  1806.61  1848.06  1920.48  1959.94
                             2014.64  2051.75  2074.99  2122.71  2143.34
                             2181.53  2193.00  2214.50  2301.92  2350.24
                             2623.36  4406.52  4448.91  4501.43  4518.58
                             4548.00  4603.41  4656.23  5310.30

 Zero-point correction=                           0.153477 (Hartree/Particle)
 Thermal correction to Energy=                    0.164241
 Thermal correction to Enthalpy=                  0.165185
 Thermal correction to Gibbs Free Energy=         0.115912
 Sum of electronic and zero-point Energies=           -606.619267
 Sum of electronic and thermal Energies=              -606.608503
 Sum of electronic and thermal Enthalpies=            -606.607559
 Sum of electronic and thermal Free Energies=         -606.656832

                     E (Thermal)             CV                S
                      KCal/Mol        Cal/Mol-Kelvin    Cal/Mol-Kelvin
 Total                  103.063             39.346            103.704
 Electronic               0.000              0.000              0.000
 Translational            0.889              2.981             41.265
 Rotational               0.889              2.981             30.863
 Vibrational            101.285             33.384             31.575
 Vibration     1          0.595              1.979              4.933
 Vibration     2          0.598              1.970              4.231
 Vibration     3          0.601              1.960              3.780
 Vibration     4          0.616              1.910              2.764
 Vibration     5          0.622              1.892              2.552
 Vibration     6          0.643              1.825              2.039
 Vibration     7          0.648              1.807              1.941
 Vibration     8          0.686              1.692              1.474
 Vibration     9          0.741              1.537              1.085
 Vibration    10          0.758              1.491              0.999
 Vibration    11          0.815              1.347              0.777
 Vibration    12          0.848              1.268              0.679
 Vibration    13          0.851              1.259              0.669
 Vibration    14          0.905              1.140              0.545

 Optimization completed.
    -- Stationary point found.
 Normal termination of Gaussian 16 at Wed Dec  9 17:29:38 2020.

 ----------------------------------------------------------------------
 # B3LYP/6-311++G(d,p) empiricaldispersion=gd3bj scf=xqc pop=npa geom=c
 heck
 ----------------------------------------------------------------------

 --------------------------------------
 CID_54399482_JID_2510_Energie_neutraal
 --------------------------------------
 Structure from the checkpoint file:  "JID_2510.chk"
 Charge =  0 Multiplicity = 1

 SCF Done:  E(RB3LYP) =  -606.950602813     A.U. after   15 cycles
 Normal termination of Gaussian 16 at Wed Dec  9 17:31:20 2020.

 ----------------------------------------------------------------------
 # B3LYP/6-311++G(d,p) empiricaldispersion=gd3bj scf=xqc pop=npa geom=c
 heck
 ----------------------------------------------------------------------

 ------------------------------------
 CID_54399482_JID_2510_Energie_kation
 ------------------------------------
 Structure from the checkpoint file:  "JID_2510.chk"
 Charge =  1 Multiplicity = 2

 SCF Done:  E(UB3LYP) =  -606.615397644     A.U. after   25 cycles
 Normal termination of Gaussian 16 at Wed Dec  9 17:35:40 2020.
 Gaussian 16:  ES64L-G16RevA.03 25-Dec-2016

 ----------------------------------------------------------------------
 # B3LYP/6-311++G(d,p) empiricaldispersion=gd3bj scf=xqc pop=npa geom=c
 heck
 ----------------------------------------------------------------------

 -----------------------------------
 CID_54399482_JID_2510_Energie_anion
 -----------------------------------
 Structure from the checkpoint file:  "JID_2510.chk"
 Charge = -1 Multiplicity = 2

                         Standard orientation:
 ---------------------------------------------------------------------
 Center     Atomic      Atomic             Coordinates (Angstroms)
 Number     Number       Type             X           Y           Z
 ---------------------------------------------------------------------
      1          6           0        2.801721   -1.620402    0.801560
      2          6           0        2.746485   -0.853154   -0.509616
      3          8           0        2.349531    0.524020   -0.309901
      4          6           0        1.042397    0.781263   -0.148612
      5          7           0        0.145218   -0.191115   -0.178023
      6          6           0       -1.139309    0.175320   -0.016955
      7          6           0       -1.513230    1.501587    0.172186
      8          7           0       -0.596457    2.487094    0.202670
      9          6           0        0.669522    2.134041    0.044413
     10          6           0       -2.198277   -0.878152   -0.035365
     11          8           0       -3.383025   -0.641586    0.088691
     12          8           0       -1.708320   -2.123827   -0.201365
     13          1           0        3.449440   -1.108964    1.520778
     14          1           0        3.206495   -2.623216    0.624221
     15          1           0        1.802002   -1.724771    1.230263
     16          1           0        3.734659   -0.772749   -0.967969
     17          1           0        2.056458   -1.323780   -1.214766
     18          1           0       -2.555300    1.771197    0.302041
     19          1           0        1.431050    2.909534    0.063254
     20          1           0       -2.487469   -2.710966   -0.195427
 ---------------------------------------------------------------------

 SCF Done:  E(UB3LYP) =  -606.973511302     A.U. after   21 cycles

 The electronic state is 2-A.
 Alpha  occ. eigenvalues --  -19.01928 -19.01281 -18.93713 -14.14362 -14.13595
 Alpha  occ. eigenvalues --  -10.12131 -10.10678 -10.10441 -10.05284 -10.03587
 Alpha  occ. eigenvalues --  -10.03256 -10.02356  -0.94983  -0.94196  -0.85448
 Alpha  occ. eigenvalues --   -0.80335  -0.73429  -0.65592  -0.60439  -0.53899
 Alpha  occ. eigenvalues --   -0.51924  -0.47063  -0.44744  -0.38904  -0.37988
 Alpha  occ. eigenvalues --   -0.34217  -0.33662  -0.32955  -0.32187  -0.30979
 Alpha  occ. eigenvalues --   -0.29934  -0.28481  -0.26289  -0.25473  -0.24905
 Alpha  occ. eigenvalues --   -0.23451  -0.21156  -0.20257  -0.17307  -0.16075
 Alpha  occ. eigenvalues --   -0.14322  -0.12598  -0.08922  -0.08414   0.04480
 Alpha virt. eigenvalues --    0.08117   0.09976   0.10462   0.11058   0.12231
 Alpha virt. eigenvalues --    0.13117   0.13147   0.13673   0.14934   0.16249
 Alpha virt. eigenvalues --    0.17361   0.17465   0.18234   0.18651   0.19098

  Beta  occ. eigenvalues --  -19.01953 -19.01220 -18.93380 -14.14136 -14.13105
  Beta  occ. eigenvalues --  -10.11908 -10.10677 -10.10568 -10.05280 -10.03617
  Beta  occ. eigenvalues --  -10.02980 -10.01923  -0.94699  -0.94222  -0.84959
  Beta  occ. eigenvalues --   -0.79736  -0.72652  -0.65532  -0.59938  -0.53573
  Beta  occ. eigenvalues --   -0.51364  -0.46690  -0.44576  -0.38745  -0.37792
  Beta  occ. eigenvalues --   -0.33941  -0.33458  -0.32831  -0.31913  -0.30699
  Beta  occ. eigenvalues --   -0.28823  -0.28208  -0.26023  -0.24867  -0.24678
  Beta  occ. eigenvalues --   -0.23194  -0.21077  -0.19735  -0.15979  -0.13836
  Beta  occ. eigenvalues --   -0.13692  -0.12242  -0.08011  -0.07376
  Beta virt. eigenvalues --    0.08081   0.09965   0.10419   0.11005   0.11500
  Beta virt. eigenvalues --    0.12196   0.13119   0.13626   0.13868   0.14890
  Beta virt. eigenvalues --    0.16260   0.17364   0.17461   0.18253   0.18649

 Mulliken charges and spin densities:
               1          2
     1  C   -0.369794  -0.009765
     2  C   -0.224118   0.000267
     3  O   -0.112857   0.000054
     4  C    0.156061  -0.061426
     5  N   -0.131528   0.218885
     6  C   -0.064085   0.195632
     7  C   -0.412971   0.000786
     8  N   -0.121723   0.091860
     9  C   -0.342381   0.323389
    10  C    0.009128   0.130026
    11  O   -0.443213   0.112867
    12  O   -0.208759   0.013655
    13  H    0.126239  -0.000874
    14  H    0.085076   0.004703
    15  H    0.180150   0.006308
    16  H    0.121477   0.004591
    17  H    0.177434  -0.001284
    18  H    0.183960   0.000712
    19  H    0.132647  -0.028866
    20  H    0.259256  -0.001520
 Sum of Mulliken charges =  -1.00000   1.00000

 Dipole moment (field-independent basis, Debye):
    X=              4.8263    Y=             -4.1825    Z=             -0.3343  Tot=              6.3952
 Quadrupole moment (field-independent basis, Debye-Ang):
   XX=            -98.1156   YY=            -88.9273   ZZ=            -75.2364
   XY=             -0.2761   XZ=              0.6060   YZ=             -0.4499

 Summary of Natural Population Analysis:

                                       Natural Population
                Natural  -----------------------------------------------
    Atom  No    Charge         Core      Valence    Rydberg      Total
 -----------------------------------------------------------------------
      C    1   -0.30107      0.99967     2.29706    0.00435     3.30107
      C    2   -0.01395      0.99959     2.00356    0.01080     3.01395
      O    3   -0.28857      0.99985     3.27832    0.01040     4.28857
      C    4    0.22221      0.99948     1.76227    0.01604     2.77779
      N    5   -0.18654      0.99963     2.67667    0.01024     3.68654
      C    6    0.06749      0.99949     1.91968    0.01334     2.93251
      C    7   -0.00095      0.99956     1.98739    0.01400     3.00095
      N    8   -0.20436      0.99971     2.69086    0.01379     3.70436
      C    9    0.06840      0.99958     1.91718    0.01484     2.93160
      C   10    0.41550      0.99969     1.56010    0.02471     2.58450
      O   11   -0.30333      0.99987     3.29654    0.00692     4.30333
      O   12   -0.34269      0.99988     3.33588    0.00693     4.34269
      H   13    0.09372      0.00000     0.40522    0.00106     0.40628
      H   14    0.09143      0.00000     0.40756    0.00101     0.40857
      H   15    0.11466      0.00000     0.38410    0.00124     0.38534
      H   16    0.07889      0.00000     0.41990    0.00121     0.42111
      H   17    0.09584      0.00000     0.40264    0.00152     0.40416
      H   18    0.09339      0.00000     0.40520    0.00141     0.40661
      H   19    0.07669      0.00000     0.42148    0.00182     0.42331
      H   20    0.22325      0.00000     0.27062    0.00613     0.27675
 =======================================================================
   * Total *   -0.00000     11.99600    31.84224    0.16176    44.00000

 Normal termination of Gaussian 16 at Wed Dec  9 17:39:22 2020.
