 Gaussian 16, Revision A.03,

 -----------------------------------------------------------
 # opt freq B3LYP/6-31G(d) empiricaldispersion=gd3bj scf=xqc
 -----------------------------------------------------------

 -------------------------------
 CID_20491388_JID_10286_neutraal
 -------------------------------
 Symbolic Z-matrix:
 Charge =  0 Multiplicity = 1

 SCF Done:  E(RB3LYP) =  -819.915463048     A.U. after   16 cycles
 SCF Done:  E(RB3LYP) =  -819.939508719     A.U. after   13 cycles
 SCF Done:  E(RB3LYP) =  -819.940196975     A.U. after   13 cycles
 SCF Done:  E(RB3LYP) =  -819.940285465     A.U. after   12 cycles
 SCF Done:  E(RB3LYP) =  -819.940330146     A.U. after   11 cycles
 SCF Done:  E(RB3LYP) =  -819.940362357     A.U. after   11 cycles
 SCF Done:  E(RB3LYP) =  -819.940405697     A.U. after   15 cycles
 SCF Done:  E(RB3LYP) =  -819.940440147     A.U. after   10 cycles
 SCF Done:  E(RB3LYP) =  -819.940428111     A.U. after   13 cycles
 SCF Done:  E(RB3LYP) =  -819.940416865     A.U. after   15 cycles
 SCF Done:  E(RB3LYP) =  -819.940507910     A.U. after   11 cycles
 SCF Done:  E(RB3LYP) =  -819.940511654     A.U. after   11 cycles
 SCF Done:  E(RB3LYP) =  -819.940511821     A.U. after    7 cycles
 SCF Done:  E(RB3LYP) =  -819.940511785     A.U. after    8 cycles
 SCF Done:  E(RB3LYP) =  -819.940511882     A.U. after    8 cycles
 Optimization completed.
    -- Stationary point found.
 Normal termination of Gaussian 16 at Mon Dec 14 13:50:35 2020.

 --------------------------------------------------------------------
 #N Geom=AllCheck Guess=TCheck SCRF=Check GenChk RB3LYP/6-31G(d) Freq
 --------------------------------------------------------------------

 Structure from the checkpoint file:  "JID_10286.chk"
 -------------------------------
 CID_20491388_JID_10286_neutraal
 -------------------------------
 Charge =  0 Multiplicity = 1

 SCF Done:  E(RB3LYP) =  -819.940511882     A.U. after    1 cycles

  Exact polarizability: 195.968  -6.073 177.435   9.725  -3.424 157.761
 Approx polarizability: 291.591 -15.743 268.706  19.915  -5.115 287.954

                      1                      2                      3
                      A                      A                      A
 Frequencies --     24.0296                25.0923                47.2807
 Red. masses --      4.0720                 4.3333                 4.3870
 Frc consts  --      0.0014                 0.0016                 0.0058
 IR Inten    --      0.9355                 2.6870                 1.8084

                      4                      5                      6
                      A                      A                      A
 Frequencies --     66.3811                80.5275                90.5025
 Red. masses --      4.7058                 5.3294                 5.0617
 Frc consts  --      0.0122                 0.0204                 0.0244
 IR Inten    --      0.1966                 1.8976                 0.0855

                      7                      8                      9
                      A                      A                      A
 Frequencies --    122.1712               136.4043               231.4587
 Red. masses --      9.2254                 9.2348                 4.5798
 Frc consts  --      0.0811                 0.1012                 0.1446
 IR Inten    --      2.3069                 2.8528                 3.1018

                     10                     11                     12
                      A                      A                      A
 Frequencies --    248.1253               277.7159               298.3130
 Red. masses --      4.6281                 5.4566                 6.0793
 Frc consts  --      0.1679                 0.2480                 0.3187
 IR Inten    --      1.9151                 4.2437                 1.6370

                     13                     14                     15
                      A                      A                      A
 Frequencies --    317.8330               336.1558               412.5570
 Red. masses --      5.4873                 5.6767                 2.9539
 Frc consts  --      0.3266                 0.3779                 0.2962
 IR Inten    --      5.3615                 3.5591                 0.1054

                     16                     17                     18
                      A                      A                      A
 Frequencies --    418.2241               423.3240               474.4492
 Red. masses --      2.9997                 6.3774                 7.5090
 Frc consts  --      0.3091                 0.6733                 0.9959
 IR Inten    --      0.2495                 1.8034                 3.7742

                     19                     20                     21
                      A                      A                      A
 Frequencies --    480.7087               529.7355               552.8449
 Red. masses --      9.1926                 4.1247                 4.0016
 Frc consts  --      1.2516                 0.6820                 0.7206
 IR Inten    --      1.6223                 5.9842                 4.6462

                     22                     23                     24
                      A                      A                      A
 Frequencies --    574.2639               635.4653               636.5762
 Red. masses --      1.5396                 6.2782                 6.3695
 Frc consts  --      0.2991                 1.4937                 1.5208
 IR Inten    --     41.1706                 0.0340                 0.0921

                     25                     26                     27
                      A                      A                      A
 Frequencies --    650.4094               659.1820               691.0091
 Red. masses --      2.4106                 6.4057                 6.4115
 Frc consts  --      0.6008                 1.6399                 1.8037
 IR Inten    --     13.6269                 8.4599                 5.0495

                     28                     29                     30
                      A                      A                      A
 Frequencies --    710.9617               718.7636               724.8412
 Red. masses --      1.7882                 1.9277                 1.3866
 Frc consts  --      0.5325                 0.5868                 0.4292
 IR Inten    --     29.3179                23.8224                22.3996

                     31                     32                     33
                      A                      A                      A
 Frequencies --    749.5438               769.7389               777.9701
 Red. masses --      3.7027                 1.8023                 2.0012
 Frc consts  --      1.2256                 0.6292                 0.7136
 IR Inten    --      8.2439                32.7572                24.2783

                     34                     35                     36
                      A                      A                      A
 Frequencies --    855.3817               856.2973               869.1523
 Red. masses --      1.2535                 1.2831                 1.2473
 Frc consts  --      0.5404                 0.5543                 0.5551
 IR Inten    --      0.4801                 7.9266                 0.5216

                     37                     38                     39
                      A                      A                      A
 Frequencies --    900.2095               915.9369               937.2824
 Red. masses --      3.9154                 2.4663                 2.2028
 Frc consts  --      1.8695                 1.2191                 1.1402
 IR Inten    --      7.1272                 7.6814                 2.5396

                     40                     41                     42
                      A                      A                      A
 Frequencies --    939.9159               951.3154               969.5279
 Red. masses --      2.8936                 2.3216                 1.3582
 Frc consts  --      1.5061                 1.2379                 0.7522
 IR Inten    --      4.6260                 1.1601                 0.1791

                     43                     44                     45
                      A                      A                      A
 Frequencies --    981.0323               996.7670              1003.6588
 Red. masses --      1.3465                 1.2704                 1.2909
 Frc consts  --      0.7635                 0.7437                 0.7662
 IR Inten    --      0.0365                 0.1712                 0.0323

                     46                     47                     48
                      A                      A                      A
 Frequencies --   1013.2568              1023.6153              1024.2101
 Red. masses --      3.2707                 6.0814                 6.1451
 Frc consts  --      1.9785                 3.7543                 3.7980
 IR Inten    --      3.2381                 1.9472                 1.5894

                     49                     50                     51
                      A                      A                      A
 Frequencies --   1052.9375              1064.2642              1066.7022
 Red. masses --      4.1474                 2.2433                 2.3032
 Frc consts  --      2.7091                 1.4970                 1.5441
 IR Inten    --     10.0848                 4.8906                 1.9975

                     52                     53                     54
                      A                      A                      A
 Frequencies --   1117.4164              1121.5459              1126.5175
 Red. masses --      1.4638                 1.5886                 1.6337
 Frc consts  --      1.0769                 1.1773                 1.2215
 IR Inten    --     30.4538                 0.8508                 7.0265

                     55                     56                     57
                      A                      A                      A
 Frequencies --   1147.7106              1190.7805              1195.6514
 Red. masses --      2.0870                 2.7166                 1.1568
 Frc consts  --      1.6197                 2.2696                 0.9744
 IR Inten    --      4.1760                 2.2532                 0.1615

                     58                     59                     60
                      A                      A                      A
 Frequencies --   1196.6416              1201.7412              1215.1128
 Red. masses --      1.0977                 3.2265                 3.8398
 Frc consts  --      0.9261                 2.7454                 3.3404
 IR Inten    --      0.0035                 3.2515                 2.2610

                     61                     62                     63
                      A                      A                      A
 Frequencies --   1223.1798              1224.1415              1285.7711
 Red. masses --      1.1525                 1.1407                 2.4966
 Frc consts  --      1.0159                 1.0071                 2.4318
 IR Inten    --      4.8170                 1.7097                29.3057

                     64                     65                     66
                      A                      A                      A
 Frequencies --   1348.1572              1353.7563              1373.6708
 Red. masses --      3.9775                 3.3471                 1.6235
 Frc consts  --      4.2594                 3.6141                 1.8049
 IR Inten    --      1.6243                 1.0422                 0.2822

                     67                     68                     69
                      A                      A                      A
 Frequencies --   1374.3151              1408.4233              1469.6038
 Red. masses --      1.6215                 3.4136                 3.8955
 Frc consts  --      1.8044                 3.9896                 4.9570
 IR Inten    --      1.3946                 0.9997                19.1953

                     70                     71                     72
                      A                      A                      A
 Frequencies --   1495.9227              1497.5351              1501.2277
 Red. masses --      3.2330                 2.2594                 2.9246
 Frc consts  --      4.2627                 2.9853                 3.8834
 IR Inten    --     11.9079                13.4581                 6.1322

                     73                     74                     75
                      A                      A                      A
 Frequencies --   1544.7790              1546.4132              1581.8489
 Red. masses --      2.1135                 2.1359                 3.7365
 Frc consts  --      2.9715                 3.0094                 5.5087
 IR Inten    --     20.3958                11.1803                34.4531

                     76                     77                     78
                      A                      A                      A
 Frequencies --   1644.3197              1649.1737              1661.2018
 Red. masses --      5.5759                 5.6997                 5.4165
 Frc consts  --      8.8826                 9.1334                 8.8067
 IR Inten    --      0.7782                 0.5773                 7.2456

                     79                     80                     81
                      A                      A                      A
 Frequencies --   1664.9677              2367.4569              3186.9684
 Red. masses --      5.4623                12.7094                 1.0852
 Frc consts  --      8.9214                41.9701                 6.4941
 IR Inten    --      2.1037                 4.9817                 0.4443

                     82                     83                     84
                      A                      A                      A
 Frequencies --   3189.4400              3195.0473              3198.8653
 Red. masses --      1.0855                 1.0885                 1.0887
 Frc consts  --      6.5058                 6.5466                 6.5637
 IR Inten    --      0.1340                 5.1546                 8.6855

                     85                     86                     87
                      A                      A                      A
 Frequencies --   3203.9255              3208.7159              3213.6994
 Red. masses --      1.0928                 1.0918                 1.0971
 Frc consts  --      6.6096                 6.6230                 6.6757
 IR Inten    --     24.1727                16.9258                24.0151

                     88                     89                     90
                      A                      A                      A
 Frequencies --   3215.2737              3220.0617              3231.0393
 Red. masses --      1.0939                 1.0965                 1.0924
 Frc consts  --      6.6629                 6.6985                 6.7193
 IR Inten    --     11.1803                 9.7252                 4.2515

                     91                     92                     93
                      A                      A                      A
 Frequencies --   3266.2073              3297.0795              3640.5119
 Red. masses --      1.0927                 1.1033                 1.0810
 Frc consts  --      6.8682                 7.0665                 8.4412
 IR Inten    --      7.5030                 3.5746                65.2391

 - Thermochemistry -
 -------------------
 Temperature   298.150 Kelvin.  Pressure   1.00000 Atm.
 Atom     1 has atomic number  6 and mass  12.00000

 Molecular mass:   259.11095 amu.
 Principal axes and moments of inertia in atomic units:
                           1         2         3
     Eigenvalues --  4381.002975184.620546917.73820
           X            0.99999   0.00148   0.00480
           Y           -0.00143   0.99994  -0.01122
           Z           -0.00482   0.01121   0.99993
 This molecule is an asymmetric top.
 Rotational symmetry number  1.
 Warning -- assumption of classical behavior for rotation
           may cause significant error
 Rotational temperatures (Kelvin)      0.01977     0.01671     0.01252
 Rotational constants (GHZ):           0.41195     0.34810     0.26089
 Zero-point vibrational energy     683724.7 (Joules/Mol)
                                  163.41412 (Kcal/Mol)
 Warning -- explicit consideration of  22 degrees of freedom as
           vibrations may cause significant error
 Vibrational temperatures:     34.57    36.10    68.03    95.51   115.86
          (Kelvin)            130.21   175.78   196.26   333.02   357.00
                              399.57   429.21   457.29   483.65   593.58
                              601.73   609.07   682.63   691.63   762.17
                              795.42   826.24   914.29   915.89   935.79
                              948.42   994.21  1022.92  1034.14  1042.88
                             1078.43  1107.48  1119.33  1230.70  1232.02
                             1250.52  1295.20  1317.83  1348.54  1352.33
                             1368.73  1394.93  1411.49  1434.13  1444.04
                             1457.85  1472.75  1473.61  1514.94  1531.24
                             1534.75  1607.71  1613.65  1620.81  1651.30
                             1713.27  1720.28  1721.70  1729.04  1748.28
                             1759.88  1761.27  1849.94  1939.70  1947.75
                             1976.41  1977.33  2026.41  2114.43  2152.30
                             2154.62  2159.93  2222.59  2224.94  2275.93
                             2365.81  2372.79  2390.10  2395.52  3406.24
                             4585.34  4588.89  4596.96  4602.45  4609.73
                             4616.63  4623.80  4626.06  4632.95  4648.74
                             4699.34  4743.76  5237.88

 Zero-point correction=                           0.260417 (Hartree/Particle)
 Thermal correction to Energy=                    0.276450
 Thermal correction to Enthalpy=                  0.277394
 Thermal correction to Gibbs Free Energy=         0.214644
 Sum of electronic and zero-point Energies=           -819.680095
 Sum of electronic and thermal Energies=              -819.664062
 Sum of electronic and thermal Enthalpies=            -819.663118
 Sum of electronic and thermal Free Energies=         -819.725868

                     E (Thermal)             CV                S
                      KCal/Mol        Cal/Mol-Kelvin    Cal/Mol-Kelvin
 Total                  173.475             62.640            132.068
 Electronic               0.000              0.000              0.000
 Translational            0.889              2.981             42.556
 Rotational               0.889              2.981             33.418
 Vibrational            171.698             56.678             56.094
 Vibration     1          0.593              1.985              6.270
 Vibration     2          0.593              1.985              6.184
 Vibration     3          0.595              1.979              4.928
 Vibration     4          0.598              1.970              4.258
 Vibration     5          0.600              1.962              3.878
 Vibration     6          0.602              1.956              3.649
 Vibration     7          0.610              1.931              3.066
 Vibration     8          0.614              1.917              2.854
 Vibration     9          0.653              1.793              1.868
 Vibration    10          0.662              1.766              1.744
 Vibration    11          0.679              1.715              1.548
 Vibration    12          0.691              1.677              1.426
 Vibration    13          0.704              1.640              1.321
 Vibration    14          0.717              1.603              1.230
 Vibration    15          0.776              1.443              0.918
 Vibration    16          0.781              1.431              0.898
 Vibration    17          0.785              1.420              0.881
 Vibration    18          0.831              1.307              0.725
 Vibration    19          0.837              1.293              0.708
 Vibration    20          0.885              1.184              0.588
 Vibration    21          0.908              1.133              0.538
 Vibration    22          0.931              1.087              0.496

                           ! Non-Optimized Parameters !
 Normal termination of Gaussian 16 at Mon Dec 14 14:08:23 2020.

 ----------------------------------------------------------------------
 # B3LYP/6-311++G(d,p) empiricaldispersion=gd3bj scf=xqc pop=npa geom=c
 heck
 ----------------------------------------------------------------------

 ---------------------------------------
 CID_20491388_JID_10286_Energie_neutraal
 ---------------------------------------
 Structure from the checkpoint file:  "JID_10286.chk"
 Charge =  0 Multiplicity = 1

 SCF Done:  E(RB3LYP) =  -820.152446061     A.U. after   16 cycles
 Normal termination of Gaussian 16 at Mon Dec 14 14:14:42 2020.

 ----------------------------------------------------------------------
 # B3LYP/6-311++G(d,p) empiricaldispersion=gd3bj scf=xqc pop=npa geom=c
 heck
 ----------------------------------------------------------------------

 -------------------------------------
 CID_20491388_JID_10286_Energie_kation
 -------------------------------------
 Structure from the checkpoint file:  "JID_10286.chk"
 Charge =  1 Multiplicity = 2

 SCF Done:  E(UB3LYP) =  -819.845128133     A.U. after   31 cycles
 Normal termination of Gaussian 16 at Mon Dec 14 14:31:12 2020.
 Gaussian 16:  ES64L-G16RevA.03 25-Dec-2016

 ----------------------------------------------------------------------
 # B3LYP/6-311++G(d,p) empiricaldispersion=gd3bj scf=xqc pop=npa geom=c
 heck
 ----------------------------------------------------------------------

 ------------------------------------
 CID_20491388_JID_10286_Energie_anion
 ------------------------------------
 Structure from the checkpoint file:  "JID_10286.chk"
 Charge = -1 Multiplicity = 2

                         Standard orientation:
 ---------------------------------------------------------------------
 Center     Atomic      Atomic             Coordinates (Angstroms)
 Number     Number       Type             X           Y           Z
 ---------------------------------------------------------------------
      1          6           0       -3.745308   -1.602353   -0.642576
      2          6           0       -2.901334   -2.251361    0.262332
      3          6           0       -1.717634   -1.644092    0.670376
      4          6           0       -1.366014   -0.379909    0.182381
      5          6           0       -2.212988    0.270882   -0.713948
      6          6           0       -3.398569   -0.342928   -1.126779
      7          6           0       -0.017964    0.231735    0.627919
      8          6           0       -0.022875    0.302010    2.104080
      9          7           0       -0.009572    0.308376    3.263909
     10          6           0        1.157324   -0.652966    0.154344
     11          6           0        2.307630   -0.812619    0.931847
     12          6           0        3.389198   -1.547747    0.445362
     13          6           0        3.337543   -2.119247   -0.826012
     14          6           0        2.192979   -1.957971   -1.608374
     15          6           0        1.106015   -1.232661   -1.119867
     16          6           0        0.180212    1.643355    0.099840
     17          7           0       -0.456318    2.716946    0.523010
     18          6           0       -0.007316    3.750824   -0.268293
     19          6           0        0.909643    3.293693   -1.184290
     20          7           0        1.019013    1.941304   -0.938964
     21          1           0       -4.669520   -2.075302   -0.961909
     22          1           0       -3.165778   -3.230451    0.651097
     23          1           0       -1.059880   -2.149734    1.371485
     24          1           0       -1.963645    1.261869   -1.074557
     25          1           0       -4.052628    0.173228   -1.823670
     26          1           0        2.354333   -0.369675    1.921363
     27          1           0        4.272916   -1.671995    1.064325
     28          1           0        4.180258   -2.691452   -1.202779
     29          1           0        2.138499   -2.405689   -2.596547
     30          1           0        0.208778   -1.126601   -1.721174
     31          1           0       -0.368328    4.760457   -0.130034
     32          1           0        1.483098    3.783176   -1.956395
     33          1           0        1.626781    1.283922   -1.406920
 ---------------------------------------------------------------------

 SCF Done:  E(UB3LYP) =  -820.147479548     A.U. after   33 cycles
 SCF Done:  E(UB3LYP) =  -820.147480442     a.u. after    3 cycles

 The electronic state is 2-A.
 Alpha  occ. eigenvalues --  -14.27449 -14.21350 -14.20250 -10.15158 -10.14303
 Alpha  occ. eigenvalues --  -10.11490 -10.10806 -10.10022 -10.09404 -10.08941
 Alpha  occ. eigenvalues --  -10.08714 -10.08678 -10.08618 -10.08573 -10.08484
 Alpha  occ. eigenvalues --  -10.07730 -10.07701 -10.07466 -10.07444 -10.06834
 Alpha  occ. eigenvalues --   -0.92753  -0.81636  -0.78209  -0.78156  -0.76168
 Alpha  occ. eigenvalues --   -0.72588  -0.66227  -0.65834  -0.65005  -0.64775
 Alpha  occ. eigenvalues --   -0.61070  -0.52808  -0.52405  -0.51761  -0.51227
 Alpha  occ. eigenvalues --   -0.50024  -0.49460  -0.45901  -0.43999  -0.42886
 Alpha  occ. eigenvalues --   -0.39370  -0.37439  -0.37221  -0.35939  -0.35023
 Alpha  occ. eigenvalues --   -0.34901  -0.34259  -0.34002  -0.33525  -0.32613
 Alpha  occ. eigenvalues --   -0.32265  -0.31984  -0.28206  -0.27659  -0.26908
 Alpha  occ. eigenvalues --   -0.26813  -0.26002  -0.25709  -0.24983  -0.23535
 Alpha  occ. eigenvalues --   -0.22933  -0.19608  -0.18684  -0.17204  -0.16870
 Alpha  occ. eigenvalues --   -0.16075  -0.15421  -0.14049   0.04059
 Alpha virt. eigenvalues --    0.06143   0.06236   0.06716   0.06791   0.06994
 Alpha virt. eigenvalues --    0.08007   0.08156   0.08496   0.09008   0.09333
 Alpha virt. eigenvalues --    0.09875   0.10019   0.11001   0.11284   0.12222

  Beta  occ. eigenvalues --  -14.27426 -14.21334 -14.20242 -10.15173 -10.14284
  Beta  occ. eigenvalues --  -10.11489 -10.10786 -10.09970 -10.09402 -10.08949
  Beta  occ. eigenvalues --  -10.08693 -10.08559 -10.08546 -10.08496 -10.08476
  Beta  occ. eigenvalues --  -10.07749 -10.07713 -10.07424 -10.07396 -10.06673
  Beta  occ. eigenvalues --   -0.92725  -0.81595  -0.78158  -0.78063  -0.76025
  Beta  occ. eigenvalues --   -0.72485  -0.66161  -0.65728  -0.64909  -0.64573
  Beta  occ. eigenvalues --   -0.60969  -0.52761  -0.52338  -0.51638  -0.51145
  Beta  occ. eigenvalues --   -0.49957  -0.49251  -0.45830  -0.43959  -0.42795
  Beta  occ. eigenvalues --   -0.39300  -0.37367  -0.37116  -0.35886  -0.34959
  Beta  occ. eigenvalues --   -0.34825  -0.34208  -0.33926  -0.33484  -0.32581
  Beta  occ. eigenvalues --   -0.32224  -0.31899  -0.28039  -0.27544  -0.26781
  Beta  occ. eigenvalues --   -0.26584  -0.25944  -0.25637  -0.24906  -0.23492
  Beta  occ. eigenvalues --   -0.22843  -0.19581  -0.18653  -0.16880  -0.16606
  Beta  occ. eigenvalues --   -0.15791  -0.14783  -0.13986
  Beta virt. eigenvalues --    0.06144   0.06778   0.06831   0.06900   0.07314
  Beta virt. eigenvalues --    0.07989   0.08132   0.08478   0.08624   0.09317
  Beta virt. eigenvalues --    0.09444   0.10056   0.10135   0.11304   0.11606

 Mulliken charges and spin densities:
               1          2
     1  C   -0.274182  -0.087909
     2  C   -0.292722  -0.095259
     3  C   -0.488284   0.146273
     4  C    1.065012  -0.187071
     5  C   -0.189175   0.066436
     6  C   -0.554070   0.154046
     7  C    1.542611  -0.239318
     8  C   -0.261031  -0.161870
     9  N   -0.279124   0.022407
    10  C    0.828188  -0.713252
    11  C   -0.514448   0.388671
    12  C   -0.617173   0.244778
    13  C    0.560493  -0.908661
    14  C   -0.514965   0.468539
    15  C   -0.676397   0.102114
    16  C    0.389105  -1.274274
    17  N   -0.039393   0.046840
    18  C    0.604493  -0.594538
    19  C   -0.205728   0.261344
    20  N   -0.265167   0.234753
    21  H    0.012530   0.120573
    22  H    0.108188   0.052560
    23  H    0.182266  -0.000634
    24  H    0.174059   0.015441
    25  H   -0.038044   0.212917
    26  H    0.172673   0.011459
    27  H   -0.023192   0.187137
    28  H   -0.141530   0.267654
    29  H   -0.507984   0.692966
    30  H    0.225007  -0.084425
    31  H    0.112808   0.050887
    32  H   -1.132749   1.313826
    33  H    0.037922   0.285590
 Sum of Mulliken charges =  -1.00000   1.00000

 Dipole moment (field-independent basis, Debye):
    X=             -3.4595    Y=             -2.2931    Z=              0.8073  Tot=              4.2282
 Quadrupole moment (field-independent basis, Debye-Ang):
   XX=           -161.5885   YY=           -159.4794   ZZ=           -166.2490
   XY=              1.7874   XZ=             12.5802   YZ=             -0.7644

 Summary of Natural Population Analysis:

                                       Natural Population
                Natural  -----------------------------------------------
    Atom  No    Charge         Core      Valence    Rydberg      Total
 -----------------------------------------------------------------------
      C    1   -0.09512      0.99957     2.08583    0.00972     3.09512
      C    2   -0.10221      0.99957     2.09349    0.00915     3.10221
      C    3   -0.09065      0.99950     2.08237    0.00878     3.09065
      C    4    0.00616      0.99949     1.98264    0.01170     2.99384
      C    5   -0.09885      0.99949     2.08998    0.00937     3.09885
      C    6   -0.09604      0.99957     2.08751    0.00897     3.09604
      C    7   -0.11285      0.99939     2.09845    0.01501     3.11285
      C    8    0.17970      0.99963     1.79871    0.02196     2.82030
      N    9   -0.17839      0.99978     2.66776    0.01084     3.67839
      C   10    0.00765      0.99949     1.98045    0.01241     2.99235
      C   11   -0.10314      0.99950     2.09472    0.00893     3.10314
      C   12   -0.09168      0.99956     2.08227    0.00985     3.09168
      C   13   -0.07576      0.99956     2.06631    0.00989     3.07576
      C   14   -0.10207      0.99956     2.09205    0.01047     3.10207
      C   15   -0.10202      0.99950     2.09245    0.01007     3.10202
      C   16    0.19920      0.99959     1.78116    0.02005     2.80080
      N   17   -0.25393      0.99968     2.74541    0.00884     3.75393
      C   18   -0.03666      0.99957     2.02369    0.01339     3.03666
      C   19   -0.03424      0.99956     2.02212    0.01257     3.03424
      N   20   -0.26831      0.99964     2.75847    0.01021     3.76831
      H   21    0.09806      0.00000     0.40121    0.00073     0.40194
      H   22    0.09931      0.00000     0.39995    0.00074     0.40069
      H   23    0.10629      0.00000     0.39248    0.00123     0.39371
      H   24    0.11040      0.00000     0.38797    0.00163     0.38960
      H   25    0.09982      0.00000     0.39940    0.00078     0.40018
      H   26    0.10690      0.00000     0.39155    0.00155     0.39310
      H   27    0.09836      0.00000     0.40090    0.00073     0.40164
      H   28    0.09749      0.00000     0.40160    0.00091     0.40251
      H   29    0.10155      0.00000     0.39737    0.00108     0.39845
      H   30    0.10732      0.00000     0.39092    0.00175     0.39268
      H   31    0.09622      0.00000     0.40294    0.00084     0.40378
      H   32    0.10761      0.00000     0.39004    0.00235     0.39239
      H   33    0.21986      0.00000     0.27578    0.00436     0.28014
 =======================================================================
   * Total *    0.00000     19.99121    47.75793    0.25086    68.00000

 Normal termination of Gaussian 16 at Mon Dec 14 15:27:51 2020.
