 Gaussian 16, Revision A.03,

 -----------------------------------------------------------
 # opt freq B3LYP/6-31G(d) empiricaldispersion=gd3bj scf=xqc
 -----------------------------------------------------------

 -------------------------------
 CID_148824476_JID_6028_neutraal
 -------------------------------
 Symbolic Z-matrix:
 Charge =  0 Multiplicity = 1

 SCF Done:  E(RB3LYP) =  -652.671674806     A.U. after   14 cycles
 SCF Done:  E(RB3LYP) =  -652.673058541     A.U. after   13 cycles
 SCF Done:  E(RB3LYP) =  -652.676653724     A.U. after   13 cycles
 SCF Done:  E(RB3LYP) =  -652.678530941     A.U. after   12 cycles
 SCF Done:  E(RB3LYP) =  -652.678989160     A.U. after   12 cycles
 SCF Done:  E(RB3LYP) =  -652.679131989     A.U. after   11 cycles
 SCF Done:  E(RB3LYP) =  -652.679188217     A.U. after   11 cycles
 SCF Done:  E(RB3LYP) =  -652.679216639     A.U. after   10 cycles
 SCF Done:  E(RB3LYP) =  -652.679226459     A.U. after    9 cycles
 SCF Done:  E(RB3LYP) =  -652.679231523     A.U. after    9 cycles
 SCF Done:  E(RB3LYP) =  -652.679235636     A.U. after    9 cycles
 SCF Done:  E(RB3LYP) =  -652.679237949     A.U. after    9 cycles
 SCF Done:  E(RB3LYP) =  -652.679239701     A.U. after    9 cycles
 SCF Done:  E(RB3LYP) =  -652.679239980     A.U. after    8 cycles
 Optimization completed.
    -- Stationary point found.
 Normal termination of Gaussian 16 at Thu Dec 10 21:11:00 2020.

 --------------------------------------------------------------------
 #N Geom=AllCheck Guess=TCheck SCRF=Check GenChk RB3LYP/6-31G(d) Freq
 --------------------------------------------------------------------

 Structure from the checkpoint file:  "JID_6028.chk"
 -------------------------------
 CID_148824476_JID_6028_neutraal
 -------------------------------
 Charge =  0 Multiplicity = 1

 SCF Done:  E(RB3LYP) =  -652.679239980     A.U. after    1 cycles

  Exact polarizability: 250.037   4.185 172.320   0.373   6.753  80.829
 Approx polarizability: 389.330   7.022 283.242   0.458  16.843 129.789

                      1                      2                      3
                      A                      A                      A
 Frequencies --     59.4500                95.5052               124.9063
 Red. masses --      4.0010                 3.3443                 2.3001
 Frc consts  --      0.0083                 0.0180                 0.0211
 IR Inten    --      0.2637                 0.4422                 5.8783

                      4                      5                      6
                      A                      A                      A
 Frequencies --    139.7633               151.3671               170.0527
 Red. masses --      2.1280                 3.3104                 1.6689
 Frc consts  --      0.0245                 0.0447                 0.0284
 IR Inten    --      1.6983                 3.4566                14.1370

                      7                      8                      9
                      A                      A                      A
 Frequencies --    197.3360               232.2867               272.1863
 Red. masses --      3.1123                 3.5200                 3.8603
 Frc consts  --      0.0714                 0.1119                 0.1685
 IR Inten    --      6.0540                 1.6453                 3.1407

                     10                     11                     12
                      A                      A                      A
 Frequencies --    299.4049               347.7462               361.7046
 Red. masses --      3.0429                 2.6154                 3.8868
 Frc consts  --      0.1607                 0.1863                 0.2996
 IR Inten    --      0.8423                 0.2101                 4.3060

                     13                     14                     15
                      A                      A                      A
 Frequencies --    422.3170               434.7505               445.5337
 Red. masses --      3.7456                 2.4183                 1.3343
 Frc consts  --      0.3936                 0.2693                 0.1561
 IR Inten    --      5.1286                31.7676               121.8102

                     16                     17                     18
                      A                      A                      A
 Frequencies --    469.6243               499.6254               520.4117
 Red. masses --      4.1088                 3.1903                 2.8709
 Frc consts  --      0.5339                 0.4692                 0.4581
 IR Inten    --     11.3336                 5.5422                41.7978

                     19                     20                     21
                      A                      A                      A
 Frequencies --    532.0478               568.5141               581.6624
 Red. masses --      4.8084                 2.6742                 4.1241
 Frc consts  --      0.8020                 0.5093                 0.8221
 IR Inten    --      3.1144                24.3826                 0.6946

                     22                     23                     24
                      A                      A                      A
 Frequencies --    621.8681               638.6619               664.0146
 Red. masses --      1.8644                 4.1139                 4.1534
 Frc consts  --      0.4248                 0.9887                 1.0790
 IR Inten    --    109.3676                13.3582                14.8385

                     25                     26                     27
                      A                      A                      A
 Frequencies --    708.4844               717.8722               751.5076
 Red. masses --      3.8539                 2.5986                 1.8107
 Frc consts  --      1.1398                 0.7890                 0.6025
 IR Inten    --     12.6792                11.2426                18.0034

                     28                     29                     30
                      A                      A                      A
 Frequencies --    772.4458               790.3045               813.4702
 Red. masses --      1.9527                 1.7554                 1.4073
 Frc consts  --      0.6865                 0.6460                 0.5487
 IR Inten    --     69.3910                30.4949               201.4064

                     31                     32                     33
                      A                      A                      A
 Frequencies --    842.2540               860.6961               874.0160
 Red. masses --      2.8369                 1.5607                 1.5055
 Frc consts  --      1.1857                 0.6812                 0.6776
 IR Inten    --      5.5404                 0.4655                12.6481

                     34                     35                     36
                      A                      A                      A
 Frequencies --    887.4939               892.6258               929.4898
 Red. masses --      2.5336                 2.4557                 1.4592
 Frc consts  --      1.1758                 1.1528                 0.7428
 IR Inten    --      1.3597                 5.2519                 1.4744

                     37                     38                     39
                      A                      A                      A
 Frequencies --    957.9857               969.2409               998.2721
 Red. masses --      1.9308                 1.2454                 2.3275
 Frc consts  --      1.0440                 0.6893                 1.3666
 IR Inten    --      0.7439                 0.0278                 0.8998

                     40                     41                     42
                      A                      A                      A
 Frequencies --   1053.9162              1056.5328              1079.0440
 Red. masses --      2.3665                 2.4512                 1.9518
 Frc consts  --      1.5487                 1.6121                 1.3390
 IR Inten    --      3.3885                 2.5737                 7.1200

                     43                     44                     45
                      A                      A                      A
 Frequencies --   1097.1841              1133.4060              1146.4625
 Red. masses --      2.5618                 1.7848                 3.4299
 Frc consts  --      1.8170                 1.3508                 2.6562
 IR Inten    --      2.5199                 1.2629                 9.1759

                     46                     47                     48
                      A                      A                      A
 Frequencies --   1170.8314              1186.5818              1190.5348
 Red. masses --      1.9296                 1.3833                 1.3748
 Frc consts  --      1.5585                 1.1475                 1.1480
 IR Inten    --     28.7785                 3.2845                 5.3568

                     49                     50                     51
                      A                      A                      A
 Frequencies --   1195.0049              1209.1929              1226.0515
 Red. masses --      1.3690                 1.3419                 2.1394
 Frc consts  --      1.1519                 1.1560                 1.8948
 IR Inten    --      3.2615                 0.5836                 7.6912

                     52                     53                     54
                      A                      A                      A
 Frequencies --   1246.5810              1257.8672              1296.4692
 Red. masses --      1.7992                 1.6354                 1.2207
 Frc consts  --      1.6473                 1.5246                 1.2089
 IR Inten    --     31.0787                 7.9038                 2.6938

                     55                     56                     57
                      A                      A                      A
 Frequencies --   1306.2484              1319.6552              1340.7597
 Red. masses --      1.9108                 1.5853                 1.5275
 Frc consts  --      1.9209                 1.6266                 1.6178
 IR Inten    --     31.6318                16.6727                11.1253

                     58                     59                     60
                      A                      A                      A
 Frequencies --   1367.3248              1374.5121              1379.3803
 Red. masses --      1.2812                 3.5000                 1.4635
 Frc consts  --      1.4113                 3.8959                 1.6407
 IR Inten    --     11.0184                20.0279                 3.9180

                     61                     62                     63
                      A                      A                      A
 Frequencies --   1390.6682              1430.4018              1448.5403
 Red. masses --      1.5525                 2.7640                 2.0604
 Frc consts  --      1.7690                 3.3320                 2.5472
 IR Inten    --      4.7635                18.6721                19.1357

                     64                     65                     66
                      A                      A                      A
 Frequencies --   1508.8013              1511.9710              1513.5004
 Red. masses --      2.4766                 1.5719                 1.5370
 Frc consts  --      3.3218                 2.1172                 2.0744
 IR Inten    --      2.5730                13.0146                19.8756

                     67                     68                     69
                      A                      A                      A
 Frequencies --   1524.7917              1535.6220              1637.0610
 Red. masses --      1.1253                 1.0981                 5.4665
 Frc consts  --      1.5415                 1.5257                 8.6316
 IR Inten    --      9.6682                 0.5887                 8.9329

                     70                     71                     72
                      A                      A                      A
 Frequencies --   1658.7234              1664.8139              1681.8730
 Red. masses --      5.0302                 3.7780                 1.9264
 Frc consts  --      8.1543                 6.1695                 3.2106
 IR Inten    --     39.4628                31.0512                79.3726

                     73                     74                     75
                      A                      A                      A
 Frequencies --   1702.7660              1727.8651              2974.7564
 Red. masses --      1.2462                 2.2538                 1.0803
 Frc consts  --      2.1289                 3.9645                 5.6326
 IR Inten    --     62.8126               160.7243                14.0233

                     76                     77                     78
                      A                      A                      A
 Frequencies --   3018.1122              3044.0626              3057.5520
 Red. masses --      1.0696                 1.0609                 1.0615
 Frc consts  --      5.7404                 5.7919                 5.8466
 IR Inten    --     44.6431                37.7380                53.1634

                     79                     80                     81
                      A                      A                      A
 Frequencies --   3075.9245              3087.9255              3102.7109
 Red. masses --      1.0997                 1.0981                 1.1052
 Frc consts  --      6.1304                 6.1691                 6.2689
 IR Inten    --     14.6258                38.4866                63.5294

                     82                     83                     84
                      A                      A                      A
 Frequencies --   3171.7869              3179.1352              3179.2825
 Red. masses --      1.0861                 1.0890                 1.0879
 Frc consts  --      6.4376                 6.4848                 6.4786
 IR Inten    --     13.1905                17.3813                 2.6487

                     85                     86                     87
                      A                      A                      A
 Frequencies --   3190.8408              3206.0529              3529.9068
 Red. masses --      1.0920                 1.0967                 1.0490
 Frc consts  --      6.5504                 6.6417                 7.7009
 IR Inten    --     36.0532                40.0308                 6.2670

                     88                     89                     90
                      A                      A                      A
 Frequencies --   3541.7257              3624.8205              3645.9418
 Red. masses --      1.0486                 1.0965                 1.0982
 Frc consts  --      7.7496                 8.4888                 8.6014
 IR Inten    --     10.3308                11.1618                19.7388

 - Thermochemistry -
 -------------------
 Temperature   298.150 Kelvin.  Pressure   1.00000 Atm.
 Atom     1 has atomic number  6 and mass  12.00000

 Molecular mass:   212.13135 amu.
 Principal axes and moments of inertia in atomic units:
                           1         2         3
     Eigenvalues --  1965.668834205.764475885.22581
           X            0.99994  -0.01079   0.00068
           Y            0.01079   0.99994   0.00076
           Z           -0.00069  -0.00076   1.00000
 This molecule is an asymmetric top.
 Rotational symmetry number  1.
 Warning -- assumption of classical behavior for rotation
           may cause significant error
 Rotational temperatures (Kelvin)      0.04406     0.02059     0.01472
 Rotational constants (GHZ):           0.91813     0.42911     0.30666
 Zero-point vibrational energy     722654.4 (Joules/Mol)
                                  172.71854 (Kcal/Mol)
 Warning -- explicit consideration of  21 degrees of freedom as
           vibrations may cause significant error
 Vibrational temperatures:     85.54   137.41   179.71   201.09   217.78
          (Kelvin)            244.67   283.92   334.21   391.62   430.78
                              500.33   520.41   607.62   625.51   641.02
                              675.68   718.85   748.76   765.50   817.97
                              836.88   894.73   918.89   955.37  1019.35
                             1032.86  1081.25  1111.38  1137.07  1170.40
                             1211.82  1238.35  1257.51  1276.91  1284.29
                             1337.33  1378.33  1394.52  1436.29  1516.35
                             1520.12  1552.50  1578.60  1630.72  1649.50
                             1684.57  1707.23  1712.91  1719.35  1739.76
                             1764.01  1793.55  1809.79  1865.33  1879.40
                             1898.69  1929.05  1967.28  1977.62  1984.62
                             2000.86  2058.03  2084.13  2170.83  2175.39
                             2177.59  2193.84  2209.42  2355.37  2386.53
                             2395.30  2419.84  2449.90  2486.01  4280.01
                             4342.39  4379.73  4399.14  4425.57  4442.84
                             4464.11  4563.49  4574.07  4574.28  4590.91
                             4612.80  5078.75  5095.75  5215.31  5245.70

 Zero-point correction=                           0.275245 (Hartree/Particle)
 Thermal correction to Energy=                    0.288812
 Thermal correction to Enthalpy=                  0.289756
 Thermal correction to Gibbs Free Energy=         0.235861
 Sum of electronic and zero-point Energies=           -652.403995
 Sum of electronic and thermal Energies=              -652.390428
 Sum of electronic and thermal Enthalpies=            -652.389484
 Sum of electronic and thermal Free Energies=         -652.443379

                     E (Thermal)             CV                S
                      KCal/Mol        Cal/Mol-Kelvin    Cal/Mol-Kelvin
 Total                  181.232             55.642            113.433
 Electronic               0.000              0.000              0.000
 Translational            0.889              2.981             41.960
 Rotational               0.889              2.981             32.253
 Vibrational            179.455             49.680             39.220
 Vibration     1          0.597              1.974              4.475
 Vibration     2          0.603              1.952              3.544
 Vibration     3          0.610              1.928              3.023
 Vibration     4          0.615              1.914              2.807
 Vibration     5          0.619              1.901              2.655
 Vibration     6          0.625              1.879              2.435
 Vibration     7          0.637              1.844              2.158
 Vibration     8          0.653              1.792              1.861
 Vibration     9          0.675              1.725              1.582
 Vibration    10          0.692              1.675              1.420
 Vibration    11          0.725              1.580              1.176
 Vibration    12          0.736              1.551              1.115
 Vibration    13          0.785              1.422              0.884
 Vibration    14          0.795              1.394              0.843
 Vibration    15          0.805              1.371              0.809
 Vibration    16          0.827              1.317              0.739
 Vibration    17          0.855              1.251              0.659
 Vibration    18          0.875              1.205              0.609
 Vibration    19          0.887              1.179              0.583
 Vibration    20          0.925              1.099              0.507
 Vibration    21          0.938              1.071              0.482

 Optimization completed.
    -- Stationary point found.
 Normal termination of Gaussian 16 at Thu Dec 10 21:22:30 2020.

 ----------------------------------------------------------------------
 # B3LYP/6-311++G(d,p) empiricaldispersion=gd3bj scf=xqc pop=npa geom=c
 heck
 ----------------------------------------------------------------------

 ---------------------------------------
 CID_148824476_JID_6028_Energie_neutraal
 ---------------------------------------
 Structure from the checkpoint file:  "JID_6028.chk"
 Charge =  0 Multiplicity = 1

 SCF Done:  E(RB3LYP) =  -652.859996070     A.U. after   15 cycles
 Normal termination of Gaussian 16 at Thu Dec 10 21:27:21 2020.

 ----------------------------------------------------------------------
 # B3LYP/6-311++G(d,p) empiricaldispersion=gd3bj scf=xqc pop=npa geom=c
 heck
 ----------------------------------------------------------------------

 -------------------------------------
 CID_148824476_JID_6028_Energie_kation
 -------------------------------------
 Structure from the checkpoint file:  "JID_6028.chk"
 Charge =  1 Multiplicity = 2

 SCF Done:  E(UB3LYP) =  -652.629826321     A.U. after   19 cycles
 Normal termination of Gaussian 16 at Thu Dec 10 21:35:41 2020.
 Gaussian 16:  ES64L-G16RevA.03 25-Dec-2016

 ----------------------------------------------------------------------
 # B3LYP/6-311++G(d,p) empiricaldispersion=gd3bj scf=xqc pop=npa geom=c
 heck
 ----------------------------------------------------------------------

 ------------------------------------
 CID_148824476_JID_6028_Energie_anion
 ------------------------------------
 Structure from the checkpoint file:  "JID_6028.chk"
 Charge = -1 Multiplicity = 2

                         Standard orientation:
 ---------------------------------------------------------------------
 Center     Atomic      Atomic             Coordinates (Angstroms)
 Number     Number       Type             X           Y           Z
 ---------------------------------------------------------------------
      1          6           0        2.072781   -2.443019    0.252792
      2          6           0        0.594016   -2.155346    0.634595
      3          6           0       -0.025591   -1.153058   -0.349151
      4          6           0       -1.445903   -0.702885   -0.120860
      5          6           0       -2.614687   -1.432250    0.023088
      6          6           0       -3.828281   -0.747532    0.187919
      7          6           0       -3.858297    0.649186    0.189171
      8          6           0       -2.683345    1.391543    0.030767
      9          6           0       -1.475627    0.708056   -0.121217
     10          6           0       -0.108340    1.205895   -0.285860
     11          6           0        0.763593    0.150854   -0.332407
     12          6           0        2.209898    0.029934   -0.290735
     13          6           0        3.095159    0.935350    0.195934
     14          7           0        2.831693    2.204810    0.706305
     15          6           0        2.690502   -1.356834   -0.670125
     16          7           0        0.168898    2.582246   -0.325203
     17          1           0        2.670950   -2.516682    1.167908
     18          1           0        2.149192   -3.414400   -0.250918
     19          1           0        0.015226   -3.085828    0.659592
     20          1           0        0.538936   -1.719010    1.638224
     21          1           0        0.029938   -1.597659   -1.357935
     22          1           0       -2.594918   -2.519381    0.017354
     23          1           0       -4.750386   -1.306918    0.317863
     24          1           0       -4.805170    1.166188    0.319621
     25          1           0       -2.720947    2.478303    0.047746
     26          1           0        4.154724    0.691582    0.165566
     27          1           0        3.524877    2.540695    1.362152
     28          1           0        1.886412    2.357247    1.039577
     29          1           0        3.783483   -1.417134   -0.626114
     30          1           0        2.408906   -1.578166   -1.709512
     31          1           0       -0.615024    3.127203   -0.667878
     32          1           0        1.004387    2.805212   -0.854415
 ---------------------------------------------------------------------

 SCF Done:  E(UB3LYP) =  -652.848256282     A.U. after   33 cycles
 SCF Done:  E(UB3LYP) =  -652.848256282     a.u. after    1 cycles

 The electronic state is 2-A.
 Alpha  occ. eigenvalues --  -14.20581 -14.19145 -10.07556 -10.06795 -10.05998
 Alpha  occ. eigenvalues --  -10.05928 -10.05551 -10.05539 -10.05486 -10.05367
 Alpha  occ. eigenvalues --  -10.05348 -10.05293 -10.05236 -10.05102 -10.03857
 Alpha  occ. eigenvalues --  -10.03660  -0.80638  -0.78259  -0.75136  -0.71589
 Alpha  occ. eigenvalues --   -0.67121  -0.64356  -0.62793  -0.59656  -0.56484
 Alpha  occ. eigenvalues --   -0.53517  -0.50102  -0.47894  -0.45911  -0.44940
 Alpha  occ. eigenvalues --   -0.41053  -0.40902  -0.39948  -0.37627  -0.36000
 Alpha  occ. eigenvalues --   -0.35494  -0.34511  -0.32515  -0.31433  -0.31057
 Alpha  occ. eigenvalues --   -0.29171  -0.28511  -0.28206  -0.27187  -0.25420
 Alpha  occ. eigenvalues --   -0.24067  -0.24003  -0.22758  -0.22527  -0.22290
 Alpha  occ. eigenvalues --   -0.21248  -0.20187  -0.19568  -0.14475  -0.13364
 Alpha  occ. eigenvalues --   -0.12176  -0.05311   0.04889
 Alpha virt. eigenvalues --    0.07064   0.07348   0.07659   0.08549   0.08901
 Alpha virt. eigenvalues --    0.09458   0.10052   0.10201   0.10927   0.11385
 Alpha virt. eigenvalues --    0.11848   0.12542   0.13237   0.13640   0.13967

  Beta  occ. eigenvalues --  -14.20580 -14.19055 -10.07495 -10.06584 -10.06022
  Beta  occ. eigenvalues --  -10.05942 -10.05546 -10.05532 -10.05431 -10.05354
  Beta  occ. eigenvalues --  -10.05304 -10.05258 -10.05152 -10.04978 -10.03917
  Beta  occ. eigenvalues --  -10.03542  -0.80542  -0.78075  -0.75031  -0.71493
  Beta  occ. eigenvalues --   -0.67030  -0.64237  -0.62661  -0.59533  -0.56303
  Beta  occ. eigenvalues --   -0.53367  -0.49908  -0.47766  -0.45801  -0.44853
  Beta  occ. eigenvalues --   -0.40958  -0.40835  -0.39893  -0.37496  -0.35932
  Beta  occ. eigenvalues --   -0.35418  -0.34407  -0.32458  -0.31365  -0.30895
  Beta  occ. eigenvalues --   -0.29043  -0.28474  -0.28140  -0.27097  -0.25149
  Beta  occ. eigenvalues --   -0.23960  -0.23867  -0.22632  -0.22259  -0.22113
  Beta  occ. eigenvalues --   -0.20989  -0.20124  -0.19492  -0.14033  -0.13074
  Beta  occ. eigenvalues --   -0.11728  -0.04692
  Beta virt. eigenvalues --    0.07110   0.07675   0.07908   0.08638   0.08832
  Beta virt. eigenvalues --    0.09133   0.09499   0.10166   0.10597   0.11158
  Beta virt. eigenvalues --    0.11398   0.11847   0.12477   0.13344   0.13983

 Mulliken charges and spin densities:
               1          2
     1  C    0.067417  -0.564342
     2  C   -0.316868  -0.351129
     3  C    0.310414  -0.305080
     4  C    0.713301   0.032655
     5  C   -0.757440   0.327398
     6  C    0.015710  -0.245257
     7  C   -0.238311  -0.184731
     8  C   -0.959216   0.593090
     9  C    0.688411  -0.048026
    10  C   -0.594747   0.031062
    11  C    0.795029  -0.480802
    12  C    0.355076   0.364773
    13  C   -0.438054  -0.112347
    14  N   -0.331750  -0.033922
    15  C   -0.022738  -0.648082
    16  N   -0.326513   0.016782
    17  H    0.093984   0.031878
    18  H   -0.093547   0.213787
    19  H   -0.054709   0.178792
    20  H    0.057632   0.105734
    21  H    0.051248   0.152842
    22  H   -0.194842   0.318191
    23  H    0.064021   0.051959
    24  H    0.096277   0.028149
    25  H   -0.014557   0.096563
    26  H   -0.510919   0.643346
    27  H   -0.340414   0.605365
    28  H    0.192521   0.089537
    29  H    0.095276   0.049633
    30  H    0.097577   0.037997
    31  H    0.240940  -0.003120
    32  H    0.259791   0.007307
 Sum of Mulliken charges =  -1.00000   1.00000

 Dipole moment (field-independent basis, Debye):
    X=             -4.1586    Y=             -0.5599    Z=             -1.9648  Tot=              4.6334
 Quadrupole moment (field-independent basis, Debye-Ang):
   XX=           -160.1217   YY=           -131.4751   ZZ=           -118.3178
   XY=            -14.8216   XZ=             -5.0259   YZ=             -8.1769

 Summary of Natural Population Analysis:

                                       Natural Population
                Natural  -----------------------------------------------
    Atom  No    Charge         Core      Valence    Rydberg      Total
 -----------------------------------------------------------------------
      C    1   -0.18479      0.99963     2.17784    0.00732     3.18479
      C    2   -0.18202      0.99961     2.17336    0.00904     3.18202
      C    3   -0.12216      0.99955     2.11184    0.01077     3.12216
      C    4    0.01323      0.99948     1.97800    0.00928     2.98677
      C    5   -0.10572      0.99951     2.09791    0.00830     3.10572
      C    6   -0.09543      0.99958     2.08513    0.01072     3.09543
      C    7   -0.11388      0.99958     2.10395    0.01034     3.11388
      C    8   -0.10560      0.99953     2.09716    0.00891     3.10560
      C    9   -0.01405      0.99945     2.00636    0.00825     3.01405
      C   10    0.07525      0.99937     1.91467    0.01071     2.92475
      C   11   -0.01274      0.99946     2.00371    0.00957     3.01274
      C   12   -0.09533      0.99948     2.08394    0.01191     3.09533
      C   13    0.05497      0.99948     1.93132    0.01424     2.94503
      N   14   -0.40434      0.99973     2.89243    0.01217     3.90434
      C   15   -0.18525      0.99961     2.17775    0.00789     3.18525
      N   16   -0.41120      0.99971     2.90131    0.01018     3.91120
      H   17    0.09345      0.00000     0.40525    0.00130     0.40655
      H   18    0.09149      0.00000     0.40698    0.00154     0.40851
      H   19    0.09705      0.00000     0.40157    0.00138     0.40295
      H   20    0.09767      0.00000     0.40105    0.00128     0.40233
      H   21    0.10845      0.00000     0.39002    0.00152     0.39155
      H   22    0.09655      0.00000     0.40188    0.00157     0.40345
      H   23    0.09261      0.00000     0.40659    0.00081     0.40739
      H   24    0.09348      0.00000     0.40570    0.00082     0.40652
      H   25    0.09239      0.00000     0.40618    0.00144     0.40761
      H   26    0.08353      0.00000     0.41500    0.00147     0.41647
      H   27    0.18728      0.00000     0.30608    0.00664     0.31272
      H   28    0.19503      0.00000     0.30273    0.00224     0.30497
      H   29    0.09818      0.00000     0.40060    0.00122     0.40182
      H   30    0.09040      0.00000     0.40811    0.00149     0.40960
      H   31    0.18052      0.00000     0.31786    0.00162     0.31948
      H   32    0.19097      0.00000     0.30735    0.00168     0.30903
 =======================================================================
   * Total *    0.00000     15.99276    40.81960    0.18763    57.00000

 Normal termination of Gaussian 16 at Thu Dec 10 21:51:00 2020.
