 Gaussian 16, Revision A.03,

 -----------------------------------------------------------
 # opt freq B3LYP/6-31G(d) empiricaldispersion=gd3bj scf=xqc
 -----------------------------------------------------------

 ------------------------------
 CID_149302940_JID_320_neutraal
 ------------------------------
 Symbolic Z-matrix:
 Charge =  0 Multiplicity = 1

 SCF Done:  E(RB3LYP) =  -800.099445528     A.U. after   14 cycles
 SCF Done:  E(RB3LYP) =  -800.112523307     A.U. after   13 cycles
 SCF Done:  E(RB3LYP) =  -800.115716244     A.U. after   12 cycles
 SCF Done:  E(RB3LYP) =  -800.117132276     A.U. after   12 cycles
 SCF Done:  E(RB3LYP) =  -800.117963646     A.U. after   12 cycles
 SCF Done:  E(RB3LYP) =  -800.118455055     A.U. after   12 cycles
 SCF Done:  E(RB3LYP) =  -800.118983650     A.U. after   12 cycles
 SCF Done:  E(RB3LYP) =  -800.119493961     A.U. after   11 cycles
 SCF Done:  E(RB3LYP) =  -800.119877006     A.U. after   12 cycles
 SCF Done:  E(RB3LYP) =  -800.120294630     A.U. after   11 cycles
 SCF Done:  E(RB3LYP) =  -800.120551455     A.U. after   11 cycles
 SCF Done:  E(RB3LYP) =  -800.120582949     A.U. after   11 cycles
 SCF Done:  E(RB3LYP) =  -800.120611896     A.U. after   10 cycles
 SCF Done:  E(RB3LYP) =  -800.120615481     A.U. after    8 cycles
 SCF Done:  E(RB3LYP) =  -800.120615699     A.U. after    7 cycles
 Optimization completed.
    -- Stationary point found.
 Normal termination of Gaussian 16 at Tue Dec  8 10:25:49 2020.

 --------------------------------------------------------------------
 #N Geom=AllCheck Guess=TCheck SCRF=Check GenChk RB3LYP/6-31G(d) Freq
 --------------------------------------------------------------------

 Structure from the checkpoint file:  "JID_320.chk"
 ------------------------------
 CID_149302940_JID_320_neutraal
 ------------------------------
 Charge =  0 Multiplicity = 1

 SCF Done:  E(RB3LYP) =  -800.120615699     A.U. after    1 cycles

  Exact polarizability: 118.563 -10.830 120.777   1.808   0.937  79.698
 Approx polarizability: 162.046 -22.532 179.774   3.745   3.350 120.102

                      1                      2                      3
                      A                      A                      A
 Frequencies --     49.7856                65.1642                83.4897
 Red. masses --      2.7154                 4.0109                 3.0074
 Frc consts  --      0.0040                 0.0100                 0.0124
 IR Inten    --      0.5031                 2.3122                 0.5214

                      4                      5                      6
                      A                      A                      A
 Frequencies --    113.1561               127.7725               154.8654
 Red. masses --      3.2061                 2.3631                 1.4632
 Frc consts  --      0.0242                 0.0227                 0.0207
 IR Inten    --      1.5078                 1.9534                 1.6106

                      7                      8                      9
                      A                      A                      A
 Frequencies --    207.6006               236.1113               244.1274
 Red. masses --      3.5880                 1.0747                 2.9223
 Frc consts  --      0.0911                 0.0353                 0.1026
 IR Inten    --      6.8400                 0.3273                 6.9930

                     10                     11                     12
                      A                      A                      A
 Frequencies --    271.3615               325.3129               349.7220
 Red. masses --      1.0654                 1.8208                 1.5914
 Frc consts  --      0.0462                 0.1135                 0.1147
 IR Inten    --      0.6260                17.2495                 7.1346

                     13                     14                     15
                      A                      A                      A
 Frequencies --    352.7013               369.9787               399.3230
 Red. masses --      2.5695                 1.1645                 2.5216
 Frc consts  --      0.1883                 0.0939                 0.2369
 IR Inten    --      2.3045                93.0078                16.4351

                     16                     17                     18
                      A                      A                      A
 Frequencies --    431.3640               436.7452               492.1478
 Red. masses --      2.7393                 3.0181                 2.3089
 Frc consts  --      0.3003                 0.3392                 0.3295
 IR Inten    --      5.5841                15.5398                20.7660

                     19                     20                     21
                      A                      A                      A
 Frequencies --    505.9116               606.4192               661.9734
 Red. masses --      2.8912                 4.4464                 6.6626
 Frc consts  --      0.4360                 0.9634                 1.7202
 IR Inten    --     16.6276                 6.5011               122.8830

                     22                     23                     24
                      A                      A                      A
 Frequencies --    675.7805               709.1626               758.2993
 Red. masses --      2.0443                 3.1720                 1.3871
 Frc consts  --      0.5501                 0.9399                 0.4700
 IR Inten    --     69.2358                11.0716               322.6854

                     25                     26                     27
                      A                      A                      A
 Frequencies --    852.6950               927.2532               941.8833
 Red. masses --      2.4171                 2.9866                 1.2492
 Frc consts  --      1.0354                 1.5130                 0.6530
 IR Inten    --      6.8632                12.2789                 2.6597

                     28                     29                     30
                      A                      A                      A
 Frequencies --    957.7129               967.3564               978.2171
 Red. masses --      1.4728                 1.8050                 1.3652
 Frc consts  --      0.7959                 0.9952                 0.7697
 IR Inten    --      0.8014                 0.6172               118.8538

                     31                     32                     33
                      A                      A                      A
 Frequencies --   1035.2718              1067.5544              1126.5462
 Red. masses --      1.3862                 1.4968                 2.0114
 Frc consts  --      0.8754                 1.0051                 1.5040
 IR Inten    --      3.7764                17.5739                50.6443

                     34                     35                     36
                      A                      A                      A
 Frequencies --   1147.3117              1158.2854              1203.0245
 Red. masses --      1.1856                 2.1051                 1.9171
 Frc consts  --      0.9195                 1.6640                 1.6347
 IR Inten    --     11.5694                18.7703                36.7265

                     37                     38                     39
                      A                      A                      A
 Frequencies --   1210.2860              1244.7783              1352.4152
 Red. masses --      2.2079                 2.5161                 2.4777
 Frc consts  --      1.9055                 2.2970                 2.6700
 IR Inten    --      4.5267               101.4009                 7.8237

                     40                     41                     42
                      A                      A                      A
 Frequencies --   1359.6920              1384.9918              1422.6553
 Red. masses --      1.4675                 1.3025                 1.2884
 Frc consts  --      1.5985                 1.4721                 1.5364
 IR Inten    --      6.3313                 8.0761                12.6404

                     43                     44                     45
                      A                      A                      A
 Frequencies --   1440.5583              1442.2493              1479.0118
 Red. masses --      1.3276                 1.2617                 1.1988
 Frc consts  --      1.6232                 1.5463                 1.5451
 IR Inten    --      0.7911                 8.1235                27.0134

                     46                     47                     48
                      A                      A                      A
 Frequencies --   1511.5861              1516.8158              1518.8840
 Red. masses --      1.0648                 1.0520                 1.0606
 Frc consts  --      1.4334                 1.4260                 1.4416
 IR Inten    --      1.5332                 1.9836                 2.6439

                     49                     50                     51
                      A                      A                      A
 Frequencies --   1520.7570              1533.0271              1538.1251
 Red. masses --      1.0528                 1.0698                 1.0543
 Frc consts  --      1.4345                 1.4814                 1.4696
 IR Inten    --      5.7016                14.2999                 2.6285

                     52                     53                     54
                      A                      A                      A
 Frequencies --   1663.3156              1665.6046              1709.3995
 Red. masses --      1.3524                 1.0967                 3.0496
 Frc consts  --      2.2045                 1.7925                 5.2502
 IR Inten    --     51.1084                 9.8580                68.2556

                     55                     56                     57
                      A                      A                      A
 Frequencies --   3034.2805              3035.7454              3039.5841
 Red. masses --      1.0390                 1.0424                 1.0434
 Frc consts  --      5.6360                 5.6602                 5.6797
 IR Inten    --      8.5367                57.9845                29.6505

                     58                     59                     60
                      A                      A                      A
 Frequencies --   3068.3333              3080.7924              3099.7612
 Red. masses --      1.0812                 1.0992                 1.0979
 Frc consts  --      5.9974                 6.1467                 6.2155
 IR Inten    --      4.4990                18.8180                 9.6276

                     61                     62                     63
                      A                      A                      A
 Frequencies --   3111.0386              3123.3495              3132.9725
 Red. masses --      1.0961                 1.1017                 1.1032
 Frc consts  --      6.2504                 6.3325                 6.3800
 IR Inten    --     65.7572                24.7763                29.2473

                     64                     65                     66
                      A                      A                      A
 Frequencies --   3159.5755              3448.5061              3513.4723
 Red. masses --      1.0953                 1.0472                 1.0478
 Frc consts  --      6.4424                 7.3373                 7.6206
 IR Inten    --     14.0914                 1.7174                 4.6703

                     67                     68                     69
                      A                      A                      A
 Frequencies --   3523.9712              3545.6110              3611.5800
 Red. masses --      1.0735                 1.0962                 1.0966
 Frc consts  --      7.8548                 8.1192                 8.4277
 IR Inten    --      0.7708                 4.8004                 6.5068

 - Thermochemistry -
 -------------------
 Temperature   298.150 Kelvin.  Pressure   1.00000 Atm.
 Atom     1 has atomic number  6 and mass  12.00000

 Molecular mass:   161.09867 amu.
 Principal axes and moments of inertia in atomic units:
                           1         2         3
     Eigenvalues --  1460.450752039.066103001.54501
           X            0.99944  -0.03316  -0.00434
           Y            0.03307   0.99928  -0.01880
           Z            0.00497   0.01865   0.99981
 This molecule is an asymmetric top.
 Rotational symmetry number  1.
 Warning -- assumption of classical behavior for rotation
           may cause significant error
 Rotational temperatures (Kelvin)      0.05931     0.04248     0.02886
 Rotational constants (GHZ):           1.23574     0.88508     0.60127
 Zero-point vibrational energy     574411.6 (Joules/Mol)
                                  137.28766 (Kcal/Mol)
 Warning -- explicit consideration of  20 degrees of freedom as
           vibrations may cause significant error
 Vibrational temperatures:     71.63    93.76   120.12   162.81   183.84
          (Kelvin)            222.82   298.69   339.71   351.24   390.43
                              468.05   503.17   507.46   532.32   574.54
                              620.64   628.38   708.09   727.89   872.50
                              952.43   972.30  1020.33  1091.02  1226.84
                             1334.11  1355.16  1377.94  1391.81  1407.44
                             1489.53  1535.97  1620.85  1650.73  1666.51
                             1730.88  1741.33  1790.96  1945.82  1956.29
                             1992.69  2046.88  2072.64  2075.08  2127.97
                             2174.84  2182.36  2185.34  2188.03  2205.68
                             2213.02  2393.14  2396.43  2459.44  4365.65
                             4367.76  4373.28  4414.65  4432.57  4459.87
                             4476.09  4493.80  4507.65  4545.92  4961.63
                             5055.10  5070.21  5101.34  5196.26

 Zero-point correction=                           0.218782 (Hartree/Particle)
 Thermal correction to Energy=                    0.231966
 Thermal correction to Enthalpy=                  0.232910
 Thermal correction to Gibbs Free Energy=         0.179511
 Sum of electronic and zero-point Energies=           -799.901834
 Sum of electronic and thermal Energies=              -799.888650
 Sum of electronic and thermal Enthalpies=            -799.887706
 Sum of electronic and thermal Free Energies=         -799.941104

                     E (Thermal)             CV                S
                      KCal/Mol        Cal/Mol-Kelvin    Cal/Mol-Kelvin
 Total                  145.561             48.083            112.387
 Electronic               0.000              0.000              0.000
 Translational            0.889              2.981             41.139
 Rotational               0.889              2.981             30.570
 Vibrational            143.783             42.122             40.678
 Vibration     1          0.595              1.978              4.826
 Vibration     2          0.597              1.971              4.294
 Vibration     3          0.600              1.961              3.807
 Vibration     4          0.607              1.939              3.214
 Vibration     5          0.611              1.925              2.979
 Vibration     6          0.620              1.897              2.612
 Vibration     7          0.641              1.829              2.065
 Vibration     8          0.655              1.785              1.832
 Vibration     9          0.659              1.772              1.773
 Vibration    10          0.675              1.726              1.588
 Vibration    11          0.709              1.625              1.283
 Vibration    12          0.727              1.576              1.167
 Vibration    13          0.729              1.570              1.154
 Vibration    14          0.742              1.534              1.080
 Vibration    15          0.765              1.472              0.965
 Vibration    16          0.792              1.402              0.854
 Vibration    17          0.797              1.390              0.837
 Vibration    18          0.848              1.267              0.678
 Vibration    19          0.861              1.237              0.644
 Vibration    20          0.965              1.018              0.439

                           ! Non-Optimized Parameters !
 Normal termination of Gaussian 16 at Tue Dec  8 10:30:42 2020.

 ----------------------------------------------------------------------
 # B3LYP/6-311++G(d,p) empiricaldispersion=gd3bj scf=xqc pop=npa geom=c
 heck
 ----------------------------------------------------------------------

 --------------------------------------
 CID_149302940_JID_320_Energie_neutraal
 --------------------------------------
 Structure from the checkpoint file:  "JID_320.chk"
 Charge =  0 Multiplicity = 1

 SCF Done:  E(RB3LYP) =  -800.281370074     A.U. after   14 cycles
 Normal termination of Gaussian 16 at Tue Dec  8 10:33:24 2020.

 ----------------------------------------------------------------------
 # B3LYP/6-311++G(d,p) empiricaldispersion=gd3bj scf=xqc pop=npa geom=c
 heck
 ----------------------------------------------------------------------

 ------------------------------------
 CID_149302940_JID_320_Energie_kation
 ------------------------------------
 Structure from the checkpoint file:  "JID_320.chk"
 Charge =  1 Multiplicity = 2

 SCF Done:  E(UB3LYP) =  -800.021998957     A.U. after   21 cycles
 Normal termination of Gaussian 16 at Tue Dec  8 10:39:23 2020.
 Gaussian 16:  ES64L-G16RevA.03 25-Dec-2016

 ----------------------------------------------------------------------
 # B3LYP/6-311++G(d,p) empiricaldispersion=gd3bj scf=xqc pop=npa geom=c
 heck
 ----------------------------------------------------------------------

 -----------------------------------
 CID_149302940_JID_320_Energie_anion
 -----------------------------------
 Structure from the checkpoint file:  "JID_320.chk"
 Charge = -1 Multiplicity = 2

                         Standard orientation:
 ---------------------------------------------------------------------
 Center     Atomic      Atomic             Coordinates (Angstroms)
 Number     Number       Type             X           Y           Z
 ---------------------------------------------------------------------
      1          6           0       -3.186388    0.497342   -0.580864
      2          6           0       -1.958068    0.135231    0.251998
      3          6           0       -2.182140   -1.132041    1.086198
      4          7           0       -0.790343    0.041995   -0.644850
      5          6           0        0.493840   -0.069196   -0.050990
      6          6           0        1.294925   -1.163487   -0.136023
      7          6           0        0.813390   -2.499122   -0.640778
      8          7           0        2.674754   -1.129534    0.107589
      9         16           0        1.074441    1.451291    0.692689
     10          7           0        1.110971    2.580189   -0.632568
     11          1           0       -3.420571   -0.301341   -1.297901
     12          1           0       -3.012814    1.419225   -1.144545
     13          1           0       -4.065544    0.635328    0.057340
     14          1           0       -1.738476    0.963175    0.935799
     15          1           0       -2.469552   -1.976192    0.445110
     16          1           0       -1.266993   -1.403445    1.622583
     17          1           0       -2.980900   -0.985204    1.822451
     18          1           0       -0.938871   -0.656363   -1.367860
     19          1           0        1.191483   -2.698238   -1.651799
     20          1           0        1.187146   -3.306885    0.003081
     21          1           0       -0.275425   -2.567252   -0.652460
     22          1           0        2.975772   -0.276638    0.568395
     23          1           0        3.024851   -1.950159    0.590638
     24          1           0        1.786133    2.261148   -1.327149
     25          1           0        0.191678    2.561270   -1.075143
 ---------------------------------------------------------------------

 SCF Done:  E(UB3LYP) =  -800.269062992     A.U. after   30 cycles

 The electronic state is 2-A.
 Alpha  occ. eigenvalues --  -88.75458 -14.21728 -14.20535 -14.20385 -10.10671
 Alpha  occ. eigenvalues --  -10.09800 -10.09680 -10.06140 -10.05902 -10.05320
 Alpha  occ. eigenvalues --   -7.83863  -5.80388  -5.79844  -5.79179  -0.82713
 Alpha  occ. eigenvalues --   -0.79910  -0.78424  -0.67853  -0.63393  -0.61186
 Alpha  occ. eigenvalues --   -0.58605  -0.53858  -0.48593  -0.44728  -0.41963
 Alpha  occ. eigenvalues --   -0.38615  -0.38099  -0.36607  -0.35167  -0.33649
 Alpha  occ. eigenvalues --   -0.31705  -0.30824  -0.29310  -0.28972  -0.28054
 Alpha  occ. eigenvalues --   -0.27371  -0.25562  -0.24284  -0.23576  -0.21175
 Alpha  occ. eigenvalues --   -0.17316  -0.16568  -0.13680  -0.08252   0.04465
 Alpha virt. eigenvalues --    0.06666   0.07311   0.08160   0.09004   0.09882
 Alpha virt. eigenvalues --    0.10154   0.10636   0.11381   0.11750   0.12077
 Alpha virt. eigenvalues --    0.12520   0.13515   0.13976   0.14264   0.15098

  Beta  occ. eigenvalues --  -88.75453 -14.21707 -14.20491 -14.20365 -10.10668
  Beta  occ. eigenvalues --  -10.09795 -10.09678 -10.06079 -10.05870 -10.05288
  Beta  occ. eigenvalues --   -7.83858  -5.80378  -5.79840  -5.79176  -0.82682
  Beta  occ. eigenvalues --   -0.79857  -0.78386  -0.67818  -0.63322  -0.61137
  Beta  occ. eigenvalues --   -0.58543  -0.53795  -0.48525  -0.44674  -0.41911
  Beta  occ. eigenvalues --   -0.38580  -0.38044  -0.36568  -0.35128  -0.33608
  Beta  occ. eigenvalues --   -0.31653  -0.30772  -0.29247  -0.28927  -0.28005
  Beta  occ. eigenvalues --   -0.27335  -0.25531  -0.24246  -0.23533  -0.21127
  Beta  occ. eigenvalues --   -0.17296  -0.16545  -0.13662  -0.08225
  Beta virt. eigenvalues --    0.06734   0.07568   0.07857   0.08959   0.09405
  Beta virt. eigenvalues --    0.10523   0.10591   0.11056   0.11625   0.12159
  Beta virt. eigenvalues --    0.12487   0.13034   0.13820   0.14283   0.14355

 Mulliken charges and spin densities:
               1          2
     1  C    0.571830  -1.060710
     2  C   -1.457970   1.345947
     3  C    0.755644  -1.301365
     4  N    0.083566   0.023493
     5  C    0.957202  -0.773140
     6  C   -1.505951   1.387468
     7  C    2.109651  -2.764590
     8  N   -0.404366   0.156088
     9  S    0.304058  -0.576363
    10  N   -0.509709  -0.026119
    11  H   -0.247732   0.386492
    12  H   -0.171372   0.322587
    13  H   -0.074054   0.202265
    14  H    0.108970  -0.002111
    15  H   -0.083173   0.238022
    16  H   -0.062428   0.224325
    17  H   -0.108111   0.238768
    18  H    0.069604   0.183834
    19  H   -0.485327   0.662159
    20  H   -0.536277   0.675263
    21  H   -0.206941   0.335806
    22  H   -0.139680   0.360800
    23  H   -0.241991   0.497655
    24  H    0.077838   0.182001
    25  H    0.196718   0.081423
 Sum of Mulliken charges =  -1.00000   1.00000

 Dipole moment (field-independent basis, Debye):
    X=             -1.2749    Y=              4.1994    Z=              1.0244  Tot=              4.5066
 Quadrupole moment (field-independent basis, Debye-Ang):
   XX=           -124.2856   YY=           -126.1828   ZZ=           -101.0302
   XY=              4.4547   XZ=             -2.6827   YZ=             -1.5276

 Summary of Natural Population Analysis:

                                       Natural Population
                Natural  -----------------------------------------------
    Atom  No    Charge         Core      Valence    Rydberg      Total
 -----------------------------------------------------------------------
      C    1   -0.28638      0.99965     2.28064    0.00610     3.28638
      C    2   -0.01515      0.99960     2.00433    0.01122     3.01515
      C    3   -0.29444      0.99964     2.28923    0.00557     3.29444
      N    4   -0.34672      0.99969     2.83162    0.01541     3.84672
      C    5   -0.05507      0.99934     2.03582    0.01990     3.05507
      C    6    0.07609      0.99940     1.91170    0.01281     2.92391
      C    7   -0.30241      0.99962     2.29590    0.00689     3.30241
      N    8   -0.40301      0.99972     2.89269    0.01060     3.90301
      S    9    0.17697      4.99953     2.79918    0.02432     7.82303
      N   10   -0.47874      0.99979     2.96958    0.00937     3.97874
      H   11    0.09742      0.00000     0.40133    0.00125     0.40258
      H   12    0.10165      0.00000     0.39722    0.00113     0.39835
      H   13    0.09846      0.00000     0.40069    0.00086     0.40154
      H   14    0.09430      0.00000     0.40328    0.00242     0.40570
      H   15    0.09674      0.00000     0.40186    0.00141     0.40326
      H   16    0.10458      0.00000     0.39405    0.00136     0.39542
      H   17    0.09783      0.00000     0.40137    0.00080     0.40217
      H   18    0.18305      0.00000     0.31270    0.00426     0.31695
      H   19    0.10864      0.00000     0.38944    0.00193     0.39136
      H   20    0.10650      0.00000     0.39082    0.00268     0.39350
      H   21    0.10620      0.00000     0.39184    0.00196     0.39380
      H   22    0.18810      0.00000     0.30888    0.00301     0.31190
      H   23    0.18539      0.00000     0.31074    0.00387     0.31461
      H   24    0.17730      0.00000     0.32035    0.00235     0.32270
      H   25    0.18271      0.00000     0.31464    0.00265     0.31729
 =======================================================================
   * Total *   -0.00000     13.99599    29.84989    0.15412    44.00000

 Normal termination of Gaussian 16 at Tue Dec  8 10:47:47 2020.
