 Gaussian 16, Revision A.03,

 -----------------------------------------------------------
 # opt freq B3LYP/6-31G(d) empiricaldispersion=gd3bj scf=xqc
 -----------------------------------------------------------

 -------------------------------
 CID_130620823_JID_1459_neutraal
 -------------------------------
 Symbolic Z-matrix:
 Charge =  0 Multiplicity = 1

 SCF Done:  E(RB3LYP) =  -483.170732370     A.U. after   13 cycles
 SCF Done:  E(RB3LYP) =  -483.173917530     A.U. after   11 cycles
 SCF Done:  E(RB3LYP) =  -483.174272561     A.U. after   11 cycles
 SCF Done:  E(RB3LYP) =  -483.174290706     A.U. after   11 cycles
 SCF Done:  E(RB3LYP) =  -483.174490866     A.U. after   10 cycles
 SCF Done:  E(RB3LYP) =  -483.174489086     A.U. after   10 cycles
 SCF Done:  E(RB3LYP) =  -483.174488403     A.U. after   10 cycles
 SCF Done:  E(RB3LYP) =  -483.174506693     A.U. after    9 cycles
 SCF Done:  E(RB3LYP) =  -483.174507851     A.U. after    8 cycles
 SCF Done:  E(RB3LYP) =  -483.174508099     A.U. after    7 cycles
 Optimization completed.
    -- Stationary point found.
 Normal termination of Gaussian 16 at Tue Dec  8 20:02:49 2020.

 --------------------------------------------------------------------
 #N Geom=AllCheck Guess=TCheck SCRF=Check GenChk RB3LYP/6-31G(d) Freq
 --------------------------------------------------------------------

 Structure from the checkpoint file:  "JID_1459.chk"
 -------------------------------
 CID_130620823_JID_1459_neutraal
 -------------------------------
 Charge =  0 Multiplicity = 1

 SCF Done:  E(RB3LYP) =  -483.174508099     A.U. after    1 cycles

  Exact polarizability: 115.295  -0.636  98.178   5.782   8.379  90.221
 Approx polarizability: 143.596   4.904 150.486  11.684  17.104 134.295

                      1                      2                      3
                      A                      A                      A
 Frequencies --     52.9706                90.0052               107.2108
 Red. masses --      3.5311                 3.1895                 2.6232
 Frc consts  --      0.0058                 0.0152                 0.0178
 IR Inten    --      0.6151                 1.1383                 1.0953

                      4                      5                      6
                      A                      A                      A
 Frequencies --    191.1357               200.9804               231.7179
 Red. masses --      2.0081                 3.7691                 1.5250
 Frc consts  --      0.0432                 0.0897                 0.0482
 IR Inten    --     11.6129                 3.0543                 4.2257

                      7                      8                      9
                      A                      A                      A
 Frequencies --    245.5345               272.3735               296.8684
 Red. masses --      1.5930                 1.3044                 2.1460
 Frc consts  --      0.0566                 0.0570                 0.1114
 IR Inten    --      1.3721                 2.3325                 0.3005

                     10                     11                     12
                      A                      A                      A
 Frequencies --    302.5887               326.8281               377.8866
 Red. masses --      1.8507                 1.9397                 1.8691
 Frc consts  --      0.0998                 0.1221                 0.1573
 IR Inten    --     34.4545                30.6348                44.9642

                     13                     14                     15
                      A                      A                      A
 Frequencies --    403.9321               431.1358               450.5409
 Red. masses --      1.8283                 3.0221                 3.1129
 Frc consts  --      0.1758                 0.3310                 0.3723
 IR Inten    --     18.9414                 9.3469                10.0329

                     16                     17                     18
                      A                      A                      A
 Frequencies --    518.8262               533.2159               659.8072
 Red. masses --      3.2575                 3.6052                 2.5040
 Frc consts  --      0.5166                 0.6039                 0.6423
 IR Inten    --      4.5197                 1.1100                 8.9541

                     19                     20                     21
                      A                      A                      A
 Frequencies --    668.5410               715.5425               791.6389
 Red. masses --      1.3384                 3.0236                 2.3166
 Frc consts  --      0.3524                 0.9121                 0.8554
 IR Inten    --     10.9012                 3.9040                 1.7306

                     22                     23                     24
                      A                      A                      A
 Frequencies --    812.8092               901.5482               930.9631
 Red. masses --      1.8982                 2.9540                 2.1012
 Frc consts  --      0.7389                 1.4146                 1.0729
 IR Inten    --     13.5045                 1.1206                 4.2114

                     25                     26                     27
                      A                      A                      A
 Frequencies --    954.7426               977.8417               989.3323
 Red. masses --      2.1913                 1.6678                 1.1987
 Frc consts  --      1.1768                 0.9396                 0.6913
 IR Inten    --      5.4160                 0.9145                 1.9534

                     28                     29                     30
                      A                      A                      A
 Frequencies --   1005.2175              1024.1047              1037.5176
 Red. masses --      2.0623                 1.7163                 2.0064
 Frc consts  --      1.2278                 1.0605                 1.2725
 IR Inten    --     12.2116                 7.1140                10.0808

                     31                     32                     33
                      A                      A                      A
 Frequencies --   1049.0668              1068.4773              1080.4120
 Red. masses --      1.8650                 1.7467                 1.9318
 Frc consts  --      1.2093                 1.1749                 1.3286
 IR Inten    --     25.5639                 7.2655                 9.6452

                     34                     35                     36
                      A                      A                      A
 Frequencies --   1102.8638              1137.9949              1147.2173
 Red. masses --      2.1090                 2.0301                 2.0690
 Frc consts  --      1.5113                 1.5490                 1.6043
 IR Inten    --     50.1316                42.9892                18.1481

                     37                     38                     39
                      A                      A                      A
 Frequencies --   1177.9926              1213.8959              1237.8910
 Red. masses --      1.5393                 1.5673                 1.1763
 Frc consts  --      1.2585                 1.3607                 1.0620
 IR Inten    --      1.6977                28.5297                12.5675

                     40                     41                     42
                      A                      A                      A
 Frequencies --   1258.8450              1280.3785              1311.5405
 Red. masses --      1.3303                 1.9911                 1.5451
 Frc consts  --      1.2421                 1.9232                 1.5659
 IR Inten    --      0.9014                26.1433                 7.5473

                     43                     44                     45
                      A                      A                      A
 Frequencies --   1335.5744              1344.2462              1373.5578
 Red. masses --      1.3878                 1.3630                 1.3043
 Frc consts  --      1.4585                 1.4512                 1.4498
 IR Inten    --      3.3709                 7.5243                 3.1923

                     46                     47                     48
                      A                      A                      A
 Frequencies --   1383.7730              1395.6565              1426.3935
 Red. masses --      1.3558                 1.4433                 1.6034
 Frc consts  --      1.5296                 1.6564                 1.9221
 IR Inten    --     10.4920                10.0737                19.1427

                     49                     50                     51
                      A                      A                      A
 Frequencies --   1430.7518              1433.6214              1442.7385
 Red. masses --      1.2423                 1.2590                 1.4148
 Frc consts  --      1.4983                 1.5246                 1.7350
 IR Inten    --     15.7275                 7.1496                 8.4429

                     52                     53                     54
                      A                      A                      A
 Frequencies --   1446.3629              1465.3633              1501.8143
 Red. masses --      1.3295                 1.3665                 1.0966
 Frc consts  --      1.6386                 1.7288                 1.4573
 IR Inten    --     24.3084                25.6680                 1.4325

                     55                     56                     57
                      A                      A                      A
 Frequencies --   1515.2088              1522.7605              1529.6367
 Red. masses --      1.0650                 1.0509                 1.0635
 Frc consts  --      1.4407                 1.4358                 1.4661
 IR Inten    --      1.6033                 4.1570                 1.5995

                     58                     59                     60
                      A                      A                      A
 Frequencies --   1534.5806              1538.4528              1542.1423
 Red. masses --      1.0627                 1.0516                 1.0963
 Frc consts  --      1.4745                 1.4665                 1.5361
 IR Inten    --      3.7515                 2.9821                 7.0139

                     61                     62                     63
                      A                      A                      A
 Frequencies --   1746.9562              2883.8176              2949.8352
 Red. masses --      6.3562                 1.0738                 1.0735
 Frc consts  --     11.4290                 5.2613                 5.5034
 IR Inten    --      2.9101               104.1759                56.6657

                     64                     65                     66
                      A                      A                      A
 Frequencies --   3024.1154              3027.7161              3041.8539
 Red. masses --      1.0847                 1.0602                 1.0835
 Frc consts  --      5.8445                 5.7265                 5.9069
 IR Inten    --     26.8346                38.8416                10.5907

                     67                     68                     69
                      A                      A                      A
 Frequencies --   3053.2532              3057.5376              3059.6203
 Red. masses --      1.0445                 1.0787                 1.1016
 Frc consts  --      5.7372                 5.9413                 6.0758
 IR Inten    --     18.7293                50.6172                30.6803

                     70                     71                     72
                      A                      A                      A
 Frequencies --   3064.1468              3110.9895              3118.7609
 Red. masses --      1.0366                 1.0900                 1.0965
 Frc consts  --      5.7343                 6.2155                 6.2838
 IR Inten    --     13.5947                43.3115                28.6871

                     73                     74                     75
                      A                      A                      A
 Frequencies --   3132.4797              3136.2653              3139.3255
 Red. masses --      1.1025                 1.1007                 1.1019
 Frc consts  --      6.3740                 6.3789                 6.3980
 IR Inten    --     38.0937                30.8094                22.6936

                     76                     77                     78
                      A                      A                      A
 Frequencies --   3161.1853              3183.8925              3741.4327
 Red. masses --      1.0845                 1.0973                 1.0659
 Frc consts  --      6.3852                 6.5540                 8.7909
 IR Inten    --     10.7946                44.4545                 7.6118

 - Thermochemistry -
 -------------------
 Temperature   298.150 Kelvin.  Pressure   1.00000 Atm.
 Atom     1 has atomic number  6 and mass  12.00000

 Molecular mass:   155.13101 amu.
 Principal axes and moments of inertia in atomic units:
                           1         2         3
     Eigenvalues --  1008.092552433.322632615.02316
           X            0.99979  -0.02038   0.00181
           Y            0.02028   0.99880   0.04455
           Z           -0.00272  -0.04450   0.99901
 This molecule is an asymmetric top.
 Rotational symmetry number  1.
 Warning -- assumption of classical behavior for rotation
           may cause significant error
 Rotational temperatures (Kelvin)      0.08592     0.03559     0.03312
 Rotational constants (GHZ):           1.79025     0.74168     0.69014
 Zero-point vibrational energy     666115.1 (Joules/Mol)
                                  159.20534 (Kcal/Mol)
 Warning -- explicit consideration of  17 degrees of freedom as
           vibrations may cause significant error
 Vibrational temperatures:     76.21   129.50   154.25   275.00   289.17
          (Kelvin)            333.39   353.27   391.88   427.13   435.36
                              470.23   543.69   581.17   620.31   648.23
                              746.48   767.18   949.32   961.88  1029.51
                             1138.99  1169.45  1297.13  1339.45  1373.66
                             1406.90  1423.43  1446.28  1473.46  1492.76
                             1509.37  1537.30  1554.47  1586.78  1637.32
                             1650.59  1694.87  1746.53  1781.05  1811.20
                             1842.18  1887.01  1921.59  1934.07  1976.24
                             1990.94  2008.04  2052.26  2058.53  2062.66
                             2075.78  2080.99  2108.33  2160.78  2180.05
                             2190.91  2200.81  2207.92  2213.49  2218.80
                             2513.48  4149.17  4244.15  4351.03  4356.21
                             4376.55  4392.95  4399.11  4402.11  4408.62
                             4476.02  4487.20  4506.94  4512.39  4516.79
                             4548.24  4580.91  5383.09

 Zero-point correction=                           0.253710 (Hartree/Particle)
 Thermal correction to Energy=                    0.265456
 Thermal correction to Enthalpy=                  0.266400
 Thermal correction to Gibbs Free Energy=         0.216727
 Sum of electronic and zero-point Energies=           -482.920798
 Sum of electronic and thermal Energies=              -482.909053
 Sum of electronic and thermal Enthalpies=            -482.908108
 Sum of electronic and thermal Free Energies=         -482.957781

                     E (Thermal)             CV                S
                      KCal/Mol        Cal/Mol-Kelvin    Cal/Mol-Kelvin
 Total                  166.576             45.469            104.545
 Electronic               0.000              0.000              0.000
 Translational            0.889              2.981             41.027
 Rotational               0.889              2.981             30.240
 Vibrational            164.798             39.507             33.278
 Vibration     1          0.596              1.976              4.703
 Vibration     2          0.602              1.956              3.660
 Vibration     3          0.606              1.943              3.319
 Vibration     4          0.634              1.852              2.217
 Vibration     5          0.638              1.838              2.124
 Vibration     6          0.653              1.792              1.866
 Vibration     7          0.660              1.770              1.762
 Vibration     8          0.675              1.724              1.581
 Vibration     9          0.691              1.680              1.434
 Vibration    10          0.694              1.669              1.403
 Vibration    11          0.710              1.622              1.276
 Vibration    12          0.748              1.517              1.048
 Vibration    13          0.769              1.462              0.948
 Vibration    14          0.792              1.402              0.855
 Vibration    15          0.809              1.360              0.794
 Vibration    16          0.874              1.208              0.613
 Vibration    17          0.888              1.177              0.580

                           ! Non-Optimized Parameters !
 Normal termination of Gaussian 16 at Tue Dec  8 20:09:09 2020.

 ----------------------------------------------------------------------
 # B3LYP/6-311++G(d,p) empiricaldispersion=gd3bj scf=xqc pop=npa geom=c
 heck
 ----------------------------------------------------------------------

 ---------------------------------------
 CID_130620823_JID_1459_Energie_neutraal
 ---------------------------------------
 Structure from the checkpoint file:  "JID_1459.chk"
 Charge =  0 Multiplicity = 1

 SCF Done:  E(RB3LYP) =  -483.319702402     A.U. after   13 cycles
 Normal termination of Gaussian 16 at Tue Dec  8 20:11:30 2020.

 ----------------------------------------------------------------------
 # B3LYP/6-311++G(d,p) empiricaldispersion=gd3bj scf=xqc pop=npa geom=c
 heck
 ----------------------------------------------------------------------

 -------------------------------------
 CID_130620823_JID_1459_Energie_kation
 -------------------------------------
 Structure from the checkpoint file:  "JID_1459.chk"
 Charge =  1 Multiplicity = 2

 SCF Done:  E(UB3LYP) =  -483.040158757     A.U. after   20 cycles
 Normal termination of Gaussian 16 at Tue Dec  8 20:17:02 2020.
 Gaussian 16:  ES64L-G16RevA.03 25-Dec-2016

 ----------------------------------------------------------------------
 # B3LYP/6-311++G(d,p) empiricaldispersion=gd3bj scf=xqc pop=npa geom=c
 heck
 ----------------------------------------------------------------------

 ------------------------------------
 CID_130620823_JID_1459_Energie_anion
 ------------------------------------
 Structure from the checkpoint file:  "JID_1459.chk"
 Charge = -1 Multiplicity = 2

                         Standard orientation:
 ---------------------------------------------------------------------
 Center     Atomic      Atomic             Coordinates (Angstroms)
 Number     Number       Type             X           Y           Z
 ---------------------------------------------------------------------
      1          6           0        1.464937   -1.514599    1.395893
      2          6           0        1.044332   -0.118119    0.920392
      3          6           0        2.094172    0.504846   -0.047419
      4          6           0        2.569764   -0.371089   -1.210334
      5          8           0        1.658466    1.779492   -0.527790
      6          7           0       -0.354326   -0.125219    0.482682
      7          6           0       -0.689618   -0.739361   -0.790692
      8          6           0       -2.155558   -1.185372   -0.788602
      9          6           0       -3.041786   -0.068855   -0.307010
     10          6           0       -2.554006    0.966965    0.377769
     11          6           0       -1.106914    1.092527    0.764410
     12          1           0        1.387603   -2.259223    0.596878
     13          1           0        0.816853   -1.835801    2.215890
     14          1           0        2.503422   -1.515255    1.748015
     15          1           0        1.052941    0.540367    1.797314
     16          1           0        2.972995    0.735225    0.568143
     17          1           0        1.759584   -0.601746   -1.909158
     18          1           0        3.347196    0.165076   -1.763541
     19          1           0        2.991240   -1.318607   -0.860136
     20          1           0        0.945961    1.612010   -1.164274
     21          1           0       -0.535990   -0.056587   -1.652997
     22          1           0       -0.039430   -1.602807   -0.951555
     23          1           0       -2.448289   -1.498326   -1.800193
     24          1           0       -2.267495   -2.066943   -0.141552
     25          1           0       -4.103387   -0.118926   -0.541790
     26          1           0       -3.203469    1.782403    0.690226
     27          1           0       -1.040961    1.287840    1.844781
     28          1           0       -0.678159    1.990244    0.281053
 ---------------------------------------------------------------------

 SCF Done:  E(UB3LYP) =  -483.303944437     A.U. after   33 cycles
 SCF Done:  E(UB3LYP) =  -483.303944437     a.u. after    1 cycles

 The electronic state is 2-A.
 Alpha  occ. eigenvalues --  -19.01904 -14.19690 -10.11681 -10.09646 -10.09147
 Alpha  occ. eigenvalues --  -10.09018 -10.06468 -10.06451 -10.06345 -10.05644
 Alpha  occ. eigenvalues --  -10.05458  -0.92239  -0.82414  -0.70547  -0.66359
 Alpha  occ. eigenvalues --   -0.65186  -0.61924  -0.55474  -0.53651  -0.52038
 Alpha  occ. eigenvalues --   -0.47112  -0.41624  -0.40318  -0.39355  -0.36220
 Alpha  occ. eigenvalues --   -0.35203  -0.34592  -0.33780  -0.32883  -0.31616
 Alpha  occ. eigenvalues --   -0.29084  -0.28569  -0.28221  -0.27537  -0.27045
 Alpha  occ. eigenvalues --   -0.26480  -0.25357  -0.23322  -0.22314  -0.21565
 Alpha  occ. eigenvalues --   -0.17891  -0.14543  -0.10241   0.04607
 Alpha virt. eigenvalues --    0.06748   0.07366   0.07999   0.08790   0.09145
 Alpha virt. eigenvalues --    0.10010   0.10255   0.10789   0.11394   0.11617
 Alpha virt. eigenvalues --    0.12260   0.12800   0.13517   0.13935   0.14511

  Beta  occ. eigenvalues --  -19.01890 -14.19681 -10.11669 -10.09637 -10.09134
  Beta  occ. eigenvalues --  -10.08990 -10.06448 -10.06436 -10.06333 -10.05610
  Beta  occ. eigenvalues --  -10.05425  -0.92208  -0.82392  -0.70512  -0.66320
  Beta  occ. eigenvalues --   -0.65144  -0.61876  -0.55410  -0.53601  -0.51974
  Beta  occ. eigenvalues --   -0.47062  -0.41583  -0.40263  -0.39307  -0.36177
  Beta  occ. eigenvalues --   -0.35155  -0.34553  -0.33744  -0.32850  -0.31592
  Beta  occ. eigenvalues --   -0.29043  -0.28533  -0.28173  -0.27500  -0.27014
  Beta  occ. eigenvalues --   -0.26437  -0.25315  -0.23286  -0.22278  -0.21527
  Beta  occ. eigenvalues --   -0.17863  -0.14518  -0.10193
  Beta virt. eigenvalues --    0.06824   0.07703   0.08226   0.08460   0.09463
  Beta virt. eigenvalues --    0.09785   0.10398   0.10677   0.11136   0.11467
  Beta virt. eigenvalues --    0.12152   0.12852   0.13134   0.13886   0.14192

 Mulliken charges and spin densities:
               1          2
     1  C    0.980004  -1.561785
     2  C   -1.073903   1.136528
     3  C   -0.712179   0.275694
     4  C    1.117713  -1.548730
     5  O   -0.129806  -0.036705
     6  N    0.097610   0.095646
     7  C   -0.889280   0.728330
     8  C    2.329225  -2.980523
     9  C   -0.166152  -0.045935
    10  C    0.274139  -0.054969
    11  C    0.203224  -0.724263
    12  H   -0.323846   0.469293
    13  H    0.056009   0.106092
    14  H   -0.293289   0.436251
    15  H   -0.138854   0.324630
    16  H   -0.315294   0.505993
    17  H   -0.560647   0.722643
    18  H   -0.168875   0.326343
    19  H   -0.161510   0.310653
    20  H    0.165514   0.069102
    21  H   -0.135310   0.205888
    22  H    0.134571   0.045704
    23  H   -0.286925   0.437677
    24  H   -0.049271   0.197377
    25  H   -0.438862   0.610939
    26  H   -0.441302   0.630516
    27  H   -0.158245   0.299782
    28  H    0.085540   0.017830
 Sum of Mulliken charges =  -1.00000   1.00000

 Dipole moment (field-independent basis, Debye):
    X=             -0.1199    Y=              1.2311    Z=              0.8087  Tot=              1.4778
 Quadrupole moment (field-independent basis, Debye-Ang):
   XX=           -135.7942   YY=           -109.6302   ZZ=           -108.1193
   XY=              3.3269   XZ=             -1.4124   YZ=             -3.0507

 Summary of Natural Population Analysis:

                                       Natural Population
                Natural  -----------------------------------------------
    Atom  No    Charge         Core      Valence    Rydberg      Total
 -----------------------------------------------------------------------
      C    1   -0.28879      0.99964     2.28302    0.00614     3.28879
      C    2   -0.00833      0.99956     1.99516    0.01361     3.00833
      C    3    0.05900      0.99955     1.92701    0.01445     2.94100
      C    4   -0.30304      0.99964     2.29708    0.00632     3.30304
      O    5   -0.37148      0.99990     3.36500    0.00658     4.37148
      N    6   -0.28954      0.99969     2.77489    0.01497     3.78954
      C    7   -0.08369      0.99961     2.07111    0.01297     3.08369
      C    8   -0.20702      0.99961     2.19767    0.00974     3.20702
      C    9   -0.09403      0.99952     2.08438    0.01013     3.09403
      C   10   -0.09755      0.99952     2.08796    0.01007     3.09755
      C   11   -0.09598      0.99958     2.08518    0.01122     3.09598
      H   12    0.09930      0.00000     0.39936    0.00134     0.40070
      H   13    0.10338      0.00000     0.39525    0.00137     0.39662
      H   14    0.09923      0.00000     0.39950    0.00126     0.40077
      H   15    0.09676      0.00000     0.40118    0.00206     0.40324
      H   16    0.08610      0.00000     0.41246    0.00144     0.41390
      H   17    0.09861      0.00000     0.39969    0.00170     0.40139
      H   18    0.10293      0.00000     0.39600    0.00107     0.39707
      H   19    0.10443      0.00000     0.39417    0.00140     0.39557
      H   20    0.22622      0.00000     0.27028    0.00349     0.27378
      H   21    0.07257      0.00000     0.42526    0.00217     0.42743
      H   22    0.10160      0.00000     0.39640    0.00199     0.39840
      H   23    0.10112      0.00000     0.39731    0.00157     0.39888
      H   24    0.10266      0.00000     0.39570    0.00164     0.39734
      H   25    0.09701      0.00000     0.40161    0.00138     0.40299
      H   26    0.09776      0.00000     0.40104    0.00120     0.40224
      H   27    0.10014      0.00000     0.39829    0.00157     0.39986
      H   28    0.09065      0.00000     0.40773    0.00162     0.40935
 =======================================================================
   * Total *    0.00000     10.99583    31.85971    0.14446    43.00000

 Normal termination of Gaussian 16 at Tue Dec  8 20:24:28 2020.
