 Gaussian 16, Revision A.03,

 ----------------------------------------------------------------------
 # opt=(cartesian,calcfc,maxcycle=500) freq B3LYP/6-31G(d) empiricaldis
 persion=gd3bj scf=xqc
 ----------------------------------------------------------------------

 -------------------------------
 CID_108796799_JID_4484_neutraal
 -------------------------------
 Symbolic Z-matrix:
 Charge =  0 Multiplicity = 1

 SCF Done:  E(RB3LYP) =  -700.249973274     A.U. after   15 cycles
 SCF Done:  E(RB3LYP) =  -700.250196833     A.U. after   12 cycles
 SCF Done:  E(RB3LYP) =  -700.250363630     A.U. after   12 cycles
 SCF Done:  E(RB3LYP) =  -700.250575921     A.U. after   12 cycles
 SCF Done:  E(RB3LYP) =  -700.250629837     A.U. after   12 cycles
 SCF Done:  E(RB3LYP) =  -700.250778294     A.U. after   11 cycles
 SCF Done:  E(RB3LYP) =  -700.250691859     A.U. after   12 cycles
 SCF Done:  E(RB3LYP) =  -700.250956005     A.U. after   11 cycles
 SCF Done:  E(RB3LYP) =  -700.250966043     A.U. after   12 cycles
 SCF Done:  E(RB3LYP) =  -700.251172141     A.U. after   12 cycles
 SCF Done:  E(RB3LYP) =  -700.253067979     A.U. after    7 cycles
 SCF Done:  E(RB3LYP) =  -700.253065854     A.U. after    9 cycles
 SCF Done:  E(RB3LYP) =  -700.253068023     A.U. after    6 cycles
 SCF Done:  E(RB3LYP) =  -700.253066670     A.U. after    9 cycles
 SCF Done:  E(RB3LYP) =  -700.253068037     A.U. after    8 cycles
 Optimization completed.
    -- Stationary point found.
 Normal termination of Gaussian 16 at Wed Feb 24 14:26:42 2021.

 --------------------------------------------------------------------
 #N Geom=AllCheck Guess=TCheck SCRF=Check GenChk RB3LYP/6-31G(d) Freq
 --------------------------------------------------------------------

 Structure from the checkpoint file:  "JID_4484.chk"
 -------------------------------
 CID_108796799_JID_4484_neutraal
 -------------------------------
 Charge =  0 Multiplicity = 1

 SCF Done:  E(RB3LYP) =  -700.253068037     A.U. after    1 cycles

  Exact polarizability: 145.071   1.616  95.097  15.451   6.745  80.447
 Approx polarizability: 212.419   4.347 148.433  44.374  18.924 132.172

                      1                      2                      3
                      A                      A                      A
 Frequencies --     37.5082                38.3302                64.0186
 Red. masses --      5.6428                 3.6383                 5.1330
 Frc consts  --      0.0047                 0.0031                 0.0124
 IR Inten    --      1.2510                 0.2032                 3.3473

                      4                      5                      6
                      A                      A                      A
 Frequencies --     91.1509               133.7361               152.6840
 Red. masses --      6.3806                 6.0711                 9.0398
 Frc consts  --      0.0312                 0.0640                 0.1242
 IR Inten    --      0.8970                 0.4003                 1.1007

                      7                      8                      9
                      A                      A                      A
 Frequencies --    246.9000               264.4825               311.7961
 Red. masses --      3.9065                 3.1147                 5.5363
 Frc consts  --      0.1403                 0.1284                 0.3171
 IR Inten    --      2.3625                 2.1019                 1.4535

                     10                     11                     12
                      A                      A                      A
 Frequencies --    347.3434               357.7000               404.3061
 Red. masses --      7.1863                 9.4568                 4.1038
 Frc consts  --      0.5108                 0.7129                 0.3952
 IR Inten    --     13.6399                10.8585                16.6041

                     13                     14                     15
                      A                      A                      A
 Frequencies --    405.3744               526.9230               538.2533
 Red. masses --      5.5294                 2.7354                 3.7808
 Frc consts  --      0.5354                 0.4475                 0.6454
 IR Inten    --     20.8816                52.4130                 5.4045

                     16                     17                     18
                      A                      A                      A
 Frequencies --    577.6167               590.6272               625.9496
 Red. masses --      1.1501                 4.9456                 3.5871
 Frc consts  --      0.2261                 1.0165                 0.8281
 IR Inten    --     44.4431                20.9345                40.1992

                     19                     20                     21
                      A                      A                      A
 Frequencies --    647.1765               691.5477               735.5099
 Red. masses --      2.8810                 1.2550                 3.2136
 Frc consts  --      0.7109                 0.3536                 1.0243
 IR Inten    --     30.9111                57.3738                 5.8862

                     22                     23                     24
                      A                      A                      A
 Frequencies --    748.6976               760.3474               774.7665
 Red. masses --      8.1207                 3.4524                 3.2790
 Frc consts  --      2.6820                 1.1760                 1.1597
 IR Inten    --     62.6912                29.5372                 0.5424

                     25                     26                     27
                      A                      A                      A
 Frequencies --    779.2399               813.5600               843.0484
 Red. masses --      5.7328                 1.3369                 1.6504
 Frc consts  --      2.0510                 0.5214                 0.6911
 IR Inten    --     26.5630                 3.4034                 5.1948

                     28                     29                     30
                      A                      A                      A
 Frequencies --    894.7934               927.7254               942.1503
 Red. masses --      3.0361                 2.5958                 1.6121
 Frc consts  --      1.4322                 1.3163                 0.8431
 IR Inten    --      2.3060                 2.7970                 7.9679

                     31                     32                     33
                      A                      A                      A
 Frequencies --    955.4935               975.5346              1074.2702
 Red. masses --      3.7765                 3.2780                 1.2586
 Frc consts  --      2.0314                 1.8380                 0.8558
 IR Inten    --     46.3597                10.9949                 3.8768

                     34                     35                     36
                      A                      A                      A
 Frequencies --   1097.5353              1122.4803              1136.0760
 Red. masses --      1.3397                 1.3772                 1.1449
 Frc consts  --      0.9508                 1.0224                 0.8706
 IR Inten    --      2.1886                 1.8349                 1.6517

                     37                     38                     39
                      A                      A                      A
 Frequencies --   1165.1939              1200.1452              1219.7686
 Red. masses --      2.9464                 1.9462                 1.3666
 Frc consts  --      2.3569                 1.6516                 1.1980
 IR Inten    --      9.6058                90.4361                 0.3292

                     40                     41                     42
                      A                      A                      A
 Frequencies --   1241.1039              1256.8351              1290.3283
 Red. masses --      1.9871                 3.7288                 3.3486
 Frc consts  --      1.8034                 3.4703                 3.2848
 IR Inten    --     21.5523               132.7862               267.9979

                     43                     44                     45
                      A                      A                      A
 Frequencies --   1357.9785              1411.0461              1425.8712
 Red. masses --      1.7558                 1.7410                 2.6158
 Frc consts  --      1.9077                 2.0424                 3.1334
 IR Inten    --      5.8722                23.1198                67.3110

                     46                     47                     48
                      A                      A                      A
 Frequencies --   1451.0524              1452.0585              1481.3287
 Red. masses --      1.8051                 2.3393                 1.0918
 Frc consts  --      2.2393                 2.9060                 1.4116
 IR Inten    --      8.8722               218.1876                 2.4716

                     49                     50                     51
                      A                      A                      A
 Frequencies --   1510.1792              1521.0794              1710.1269
 Red. masses --      2.6862                 1.4179                 6.3946
 Frc consts  --      3.6094                 1.9329                11.0184
 IR Inten    --     86.6325                11.6552                33.7138

                     52                     53                     54
                      A                      A                      A
 Frequencies --   1795.3012              1807.7463              1851.9271
 Red. masses --      8.5753                 9.5461                 8.5858
 Frc consts  --     16.2845                18.3802                17.3492
 IR Inten    --    154.7995               628.6898               603.9598

                     55                     56                     57
                      A                      A                      A
 Frequencies --   3158.4214              3163.5944              3197.3137
 Red. masses --      1.0529                 1.0559                 1.0899
 Frc consts  --      6.1885                 6.2261                 6.5647
 IR Inten    --     15.9371                10.7263                13.4020

                     58                     59                     60
                      A                      A                      A
 Frequencies --   3240.8537              3244.1668              3257.3794
 Red. masses --      1.0944                 1.1198                 1.1168
 Frc consts  --      6.7723                 6.9438                 6.9816
 IR Inten    --      2.3732                 0.5346                 6.9644

                     61                     62                     63
                      A                      A                      A
 Frequencies --   3547.0572              3602.4215              3639.9300
 Red. masses --      1.0748                 1.0774                 1.0787
 Frc consts  --      7.9674                 8.2379                 8.4208
 IR Inten    --     26.1122                62.1083               107.6021

 - Thermochemistry -
 -------------------
 Temperature   298.150 Kelvin.  Pressure   1.00000 Atm.
 Atom     1 has atomic number  6 and mass  12.00000

 Molecular mass:   195.06439 amu.
 Principal axes and moments of inertia in atomic units:
                           1         2         3
     Eigenvalues --  1207.290804534.903284774.84954
           X            0.99980   0.01678  -0.01049
           Y           -0.01689   0.99981  -0.00997
           Z            0.01032   0.01014   0.99990
 This molecule is an asymmetric top.
 Rotational symmetry number  1.
 Warning -- assumption of classical behavior for rotation
           may cause significant error
 Rotational temperatures (Kelvin)      0.07174     0.01910     0.01814
 Rotational constants (GHZ):           1.49487     0.39797     0.37797
 Zero-point vibrational energy     465555.9 (Joules/Mol)
                                  111.27052 (Kcal/Mol)
 Warning -- explicit consideration of  17 degrees of freedom as
           vibrations may cause significant error
 Vibrational temperatures:     53.97    55.15    92.11   131.15   192.42
          (Kelvin)            219.68   355.23   380.53   448.60   499.75
                              514.65   581.71   583.24   758.12   774.43
                              831.06   849.78   900.60   931.14   994.98
                             1058.23  1077.21  1093.97  1114.72  1121.15
                             1170.53  1212.96  1287.41  1334.79  1355.54
                             1374.74  1403.58  1545.64  1579.11  1615.00
                             1634.56  1676.45  1726.74  1754.98  1785.67
                             1808.31  1856.49  1953.83  2030.18  2051.51
                             2087.74  2089.19  2131.30  2172.81  2188.49
                             2460.49  2583.04  2600.94  2664.51  4544.26
                             4551.71  4600.22  4662.87  4667.63  4686.64
                             5103.42  5183.08  5237.05

 Zero-point correction=                           0.177321 (Hartree/Particle)
 Thermal correction to Energy=                    0.189643
 Thermal correction to Enthalpy=                  0.190588
 Thermal correction to Gibbs Free Energy=         0.137129
 Sum of electronic and zero-point Energies=           -700.075747
 Sum of electronic and thermal Energies=              -700.063425
 Sum of electronic and thermal Enthalpies=            -700.062480
 Sum of electronic and thermal Free Energies=         -700.115939

                     E (Thermal)             CV                S
                      KCal/Mol        Cal/Mol-Kelvin    Cal/Mol-Kelvin
 Total                  119.003             46.243            112.512
 Electronic               0.000              0.000              0.000
 Translational            0.889              2.981             41.710
 Rotational               0.889              2.981             31.636
 Vibrational            117.226             40.281             39.167
 Vibration     1          0.594              1.982              5.387
 Vibration     2          0.594              1.982              5.344
 Vibration     3          0.597              1.971              4.329
 Vibration     4          0.602              1.955              3.635
 Vibration     5          0.613              1.920              2.892
 Vibration     6          0.619              1.900              2.639
 Vibration     7          0.661              1.768              1.753
 Vibration     8          0.671              1.738              1.632
 Vibration     9          0.700              1.651              1.353
 Vibration    10          0.725              1.581              1.178
 Vibration    11          0.733              1.559              1.132
 Vibration    12          0.769              1.461              0.947
 Vibration    13          0.770              1.459              0.943
 Vibration    14          0.882              1.190              0.594
 Vibration    15          0.893              1.165              0.569
 Vibration    16          0.934              1.080              0.490
 Vibration    17          0.948              1.052              0.466

 Normal termination of Gaussian 16 at Wed Feb 24 14:33:29 2021.

 ----------------------------------------------------------------------
 # B3LYP/6-311++G(d,p) empiricaldispersion=gd3bj scf=xqc pop=npa geom=c
 heck
 ----------------------------------------------------------------------

 ---------------------------------------
 CID_108796799_JID_4484_Energie_neutraal
 ---------------------------------------
 Structure from the checkpoint file:  "JID_4484.chk"
 Charge =  0 Multiplicity = 1

 SCF Done:  E(RB3LYP) =  -700.464174091     A.U. after   16 cycles
 Normal termination of Gaussian 16 at Wed Feb 24 14:36:03 2021.

 ----------------------------------------------------------------------
 # B3LYP/6-311++G(d,p) empiricaldispersion=gd3bj scf=xqc pop=npa geom=c
 heck
 ----------------------------------------------------------------------

 -------------------------------------
 CID_108796799_JID_4484_Energie_kation
 -------------------------------------
 Structure from the checkpoint file:  "JID_4484.chk"
 Charge =  1 Multiplicity = 2

 SCF Done:  E(UB3LYP) =  -700.133384881     A.U. after   27 cycles
 Normal termination of Gaussian 16 at Wed Feb 24 14:41:53 2021.
 Gaussian 16:  ES64L-G16RevA.03 25-Dec-2016

 ----------------------------------------------------------------------
 # B3LYP/6-311++G(d,p) empiricaldispersion=gd3bj scf=xqc pop=npa geom=c
 heck
 ----------------------------------------------------------------------

 ------------------------------------
 CID_108796799_JID_4484_Energie_anion
 ------------------------------------
 Structure from the checkpoint file:  "JID_4484.chk"
 Charge = -1 Multiplicity = 2

                         Standard orientation:
 ---------------------------------------------------------------------
 Center     Atomic      Atomic             Coordinates (Angstroms)
 Number     Number       Type             X           Y           Z
 ---------------------------------------------------------------------
      1          6           0       -3.371471   -0.581007    1.442597
      2          6           0       -2.875066   -1.562917    0.433770
      3          6           0       -2.048360   -0.327333    0.743590
      4          6           0       -2.035561    0.732667   -0.301938
      5          8           0       -3.035534    1.083629   -0.910268
      6          7           0       -0.817993    1.369163   -0.536173
      7          6           0        0.442391    0.798683   -0.249142
      8          6           0        1.344390    1.444193    0.526878
      9          7           0        2.596030    0.935835    0.769459
     10          6           0        3.048212   -0.287129    0.274690
     11          8           0        4.157528   -0.724511    0.509060
     12          7           0        2.098215   -0.933779   -0.499982
     13          6           0        0.802704   -0.501117   -0.839838
     14          8           0        0.081523   -1.178453   -1.549565
     15          1           0       -3.330299   -0.842640    2.495746
     16          1           0       -4.188881    0.069464    1.149174
     17          1           0       -2.478825   -2.516032    0.769848
     18          1           0       -3.355073   -1.575046   -0.539028
     19          1           0       -1.139003   -0.466366    1.318011
     20          1           0       -0.874058    1.980839   -1.345059
     21          1           0        1.115508    2.399969    0.983898
     22          1           0        3.259665    1.434771    1.345624
     23          1           0        2.385637   -1.825064   -0.888791
 ---------------------------------------------------------------------

 SCF Done:  E(UB3LYP) =  -700.474907118     A.U. after   33 cycles
 SCF Done:  E(UB3LYP) =  -700.474907118     a.u. after    1 cycles

 The electronic state is 2-A.
 Alpha  occ. eigenvalues --  -18.96752 -18.95814 -18.93337 -14.22377 -14.21167
 Alpha  occ. eigenvalues --  -14.20020 -10.17774 -10.14105 -10.11297 -10.06453
 Alpha  occ. eigenvalues --  -10.06424 -10.06332 -10.04902 -10.04168  -0.93778
 Alpha  occ. eigenvalues --   -0.91107  -0.89034  -0.82755  -0.78543  -0.77414
 Alpha  occ. eigenvalues --   -0.74717  -0.62161  -0.54017  -0.53051  -0.51131
 Alpha  occ. eigenvalues --   -0.49181  -0.46115  -0.42025  -0.40726  -0.39758
 Alpha  occ. eigenvalues --   -0.36537  -0.35357  -0.34095  -0.33258  -0.32270
 Alpha  occ. eigenvalues --   -0.31382  -0.29469  -0.28762  -0.26487  -0.26271
 Alpha  occ. eigenvalues --   -0.25581  -0.24963  -0.21998  -0.19625  -0.17638
 Alpha  occ. eigenvalues --   -0.16285  -0.14958  -0.14544  -0.13112  -0.11354
 Alpha  occ. eigenvalues --   -0.09531   0.05231
 Alpha virt. eigenvalues --    0.08296   0.08898   0.10411   0.10863   0.11284
 Alpha virt. eigenvalues --    0.11847   0.12778   0.13480   0.13726   0.14299
 Alpha virt. eigenvalues --    0.14742   0.15938   0.16161   0.16613   0.17397

  Beta  occ. eigenvalues --  -18.96731 -18.95787 -18.93079 -14.22290 -14.21030
  Beta  occ. eigenvalues --  -14.20043 -10.17746 -10.14073 -10.11077 -10.06454
  Beta  occ. eigenvalues --  -10.06413 -10.06326 -10.04245 -10.04054  -0.93651
  Beta  occ. eigenvalues --   -0.91047  -0.88596  -0.82398  -0.78421  -0.77083
  Beta  occ. eigenvalues --   -0.74697  -0.61470  -0.53903  -0.52541  -0.50638
  Beta  occ. eigenvalues --   -0.49149  -0.45940  -0.41947  -0.40443  -0.39643
  Beta  occ. eigenvalues --   -0.36249  -0.35260  -0.33906  -0.32649  -0.32051
  Beta  occ. eigenvalues --   -0.31287  -0.29191  -0.28566  -0.26338  -0.26080
  Beta  occ. eigenvalues --   -0.24929  -0.24341  -0.20408  -0.19576  -0.17575
  Beta  occ. eigenvalues --   -0.16202  -0.14682  -0.13716  -0.13048  -0.11038
  Beta  occ. eigenvalues --   -0.07862
  Beta virt. eigenvalues --    0.08238   0.08815   0.10334   0.10640   0.11208
  Beta virt. eigenvalues --    0.11722   0.12177   0.12830   0.13534   0.14166
  Beta virt. eigenvalues --    0.14793   0.15205   0.15923   0.16180   0.16540

 Mulliken charges and spin densities:
               1          2
     1  C   -0.313868  -0.051336
     2  C   -0.547225  -0.005082
     3  C    0.500843   0.056583
     4  C   -0.205720  -0.095906
     5  O   -0.391826   0.012779
     6  N   -0.129918   0.017522
     7  C   -0.551763  -0.104541
     8  C    0.113416   0.719069
     9  N   -0.338839  -0.017542
    10  C    0.304750   0.015236
    11  O   -0.429199   0.010035
    12  N   -0.412560   0.056312
    13  C    0.076830   0.139801
    14  O   -0.394690   0.093890
    15  H    0.057888   0.048261
    16  H    0.155651   0.007457
    17  H    0.127783   0.000473
    18  H    0.168081   0.005691
    19  H    0.264301   0.063086
    20  H    0.195809   0.086986
    21  H    0.136071  -0.054876
    22  H    0.302434   0.000069
    23  H    0.311750  -0.003968
 Sum of Mulliken charges =  -1.00000   1.00000

 Dipole moment (field-independent basis, Debye):
    X=             -0.4749    Y=              0.2430    Z=              2.9629  Tot=              3.0106
 Quadrupole moment (field-independent basis, Debye-Ang):
   XX=           -132.6491   YY=            -92.7655   ZZ=            -93.7516
   XY=             10.6632   XZ=             -6.8064   YZ=              0.0695

 Summary of Natural Population Analysis:

                                       Natural Population
                Natural  -----------------------------------------------
    Atom  No    Charge         Core      Valence    Rydberg      Total
 -----------------------------------------------------------------------
      C    1   -0.19267      0.99963     2.18596    0.00708     3.19267
      C    2   -0.18157      0.99963     2.17540    0.00654     3.18157
      C    3   -0.15827      0.99954     2.14796    0.01076     3.15827
      C    4    0.35305      0.99965     1.62086    0.02644     2.64695
      O    5   -0.33735      0.99987     3.33187    0.00560     4.33735
      N    6   -0.31386      0.99965     2.80347    0.01074     3.81386
      C    7   -0.01568      0.99942     2.00258    0.01368     3.01568
      C    8    0.15107      0.99951     1.83509    0.01433     2.84893
      N    9   -0.29550      0.99967     2.78723    0.00861     3.79550
      C   10    0.40950      0.99973     1.56951    0.02126     2.59050
      O   11   -0.34445      0.99987     3.33868    0.00590     4.34445
      N   12   -0.31138      0.99965     2.80277    0.00896     3.81138
      C   13    0.34607      0.99962     1.62929    0.02503     2.65393
      O   14   -0.30644      0.99987     3.30050    0.00606     4.30644
      H   15    0.09550      0.00000     0.40322    0.00128     0.40450
      H   16    0.10855      0.00000     0.39013    0.00132     0.39145
      H   17    0.09864      0.00000     0.40013    0.00122     0.40136
      H   18    0.10885      0.00000     0.39007    0.00108     0.39115
      H   19    0.11709      0.00000     0.38165    0.00126     0.38291
      H   20    0.18989      0.00000     0.30758    0.00253     0.31011
      H   21    0.08752      0.00000     0.41167    0.00081     0.41248
      H   22    0.19469      0.00000     0.30393    0.00138     0.30531
      H   23    0.19676      0.00000     0.30142    0.00182     0.30324
 =======================================================================
   * Total *    0.00000     13.99533    36.82097    0.18369    51.00000

 Normal termination of Gaussian 16 at Wed Feb 24 14:49:03 2021.
