 Gaussian 16, Revision A.03,

 -----------------------------------------------------------
 # opt freq B3LYP/6-31G(d) empiricaldispersion=gd3bj scf=xqc
 -----------------------------------------------------------

 -------------------------------
 CID_105195138_JID_5035_neutraal
 -------------------------------
 Symbolic Z-matrix:
 Charge =  0 Multiplicity = 1

 SCF Done:  E(RB3LYP) =  -616.919655919     A.U. after   13 cycles
 SCF Done:  E(RB3LYP) =  -616.927363976     A.U. after   12 cycles
 SCF Done:  E(RB3LYP) =  -616.928714754     A.U. after   11 cycles
 SCF Done:  E(RB3LYP) =  -616.928849258     A.U. after   12 cycles
 SCF Done:  E(RB3LYP) =  -616.928932537     A.U. after   11 cycles
 SCF Done:  E(RB3LYP) =  -616.928935157     A.U. after   11 cycles
 SCF Done:  E(RB3LYP) =  -616.929013809     A.U. after   10 cycles
 SCF Done:  E(RB3LYP) =  -616.929065910     A.U. after   11 cycles
 SCF Done:  E(RB3LYP) =  -616.929078469     A.U. after   10 cycles
 SCF Done:  E(RB3LYP) =  -616.929091860     A.U. after    9 cycles
 SCF Done:  E(RB3LYP) =  -616.929094001     A.U. after    8 cycles
 SCF Done:  E(RB3LYP) =  -616.929094583     A.U. after    8 cycles
 SCF Done:  E(RB3LYP) =  -616.929094667     A.U. after    7 cycles
 Optimization completed.
    -- Stationary point found.
 Normal termination of Gaussian 16 at Thu Dec 10 14:45:38 2020.

 --------------------------------------------------------------------
 #N Geom=AllCheck Guess=TCheck SCRF=Check GenChk RB3LYP/6-31G(d) Freq
 --------------------------------------------------------------------

 Structure from the checkpoint file:  "JID_5035.chk"
 -------------------------------
 CID_105195138_JID_5035_neutraal
 -------------------------------
 Charge =  0 Multiplicity = 1

 SCF Done:  E(RB3LYP) =  -616.929094667     A.U. after    1 cycles

  Exact polarizability: 190.904   0.894 153.035 -12.285   1.384  96.178
 Approx polarizability: 249.823   6.382 239.841 -25.816   4.008 154.258

                      1                      2                      3
                      A                      A                      A
 Frequencies --     33.9898                37.1103                49.1909
 Red. masses --      3.9209                 3.9642                 3.3230
 Frc consts  --      0.0027                 0.0032                 0.0047
 IR Inten    --      0.1372                 0.0273                 0.5955

                      4                      5                      6
                      A                      A                      A
 Frequencies --     72.3427                89.7056               104.6152
 Red. masses --      3.3020                 2.9671                 4.0436
 Frc consts  --      0.0102                 0.0141                 0.0261
 IR Inten    --      0.6150                 0.6285                 0.7170

                      7                      8                      9
                      A                      A                      A
 Frequencies --    128.2697               143.2565               175.5158
 Red. masses --      1.1356                 2.9976                 3.0963
 Frc consts  --      0.0110                 0.0362                 0.0562
 IR Inten    --     40.7025                 1.6198                 2.8278

                     10                     11                     12
                      A                      A                      A
 Frequencies --    208.8521               245.2068               277.4266
 Red. masses --      3.5549                 3.2600                 3.4064
 Frc consts  --      0.0914                 0.1155                 0.1545
 IR Inten    --      0.3923                 2.3102                 0.9163

                     13                     14                     15
                      A                      A                      A
 Frequencies --    299.7520               359.3577               390.5026
 Red. masses --      2.2672                 2.0391                 1.9677
 Frc consts  --      0.1200                 0.1551                 0.1768
 IR Inten    --      0.6813                 0.9189                 1.0063

                     16                     17                     18
                      A                      A                      A
 Frequencies --    422.8131               429.5247               470.3381
 Red. masses --      3.0269                 2.3989                 2.6282
 Frc consts  --      0.3188                 0.2608                 0.3426
 IR Inten    --      0.3784                 1.3100                 3.7471

                     19                     20                     21
                      A                      A                      A
 Frequencies --    473.5093               501.3735               524.3443
 Red. masses --      2.9502                 3.9986                 2.2150
 Frc consts  --      0.3897                 0.5922                 0.3588
 IR Inten    --      6.8446                 2.6487                 1.0435

                     22                     23                     24
                      A                      A                      A
 Frequencies --    638.7548               644.0517               671.8949
 Red. masses --      6.2031                 2.8964                 1.7371
 Frc consts  --      1.4912                 0.7079                 0.4620
 IR Inten    --      0.0971                 1.0149                 5.9275

                     25                     26                     27
                      A                      A                      A
 Frequencies --    724.0795               736.0274               775.4058
 Red. masses --      2.0163                 1.6425                 1.9443
 Frc consts  --      0.6228                 0.5243                 0.6888
 IR Inten    --     15.6095                46.2032                 8.1796

                     28                     29                     30
                      A                      A                      A
 Frequencies --    807.2483               853.7311               857.3467
 Red. masses --      2.5395                 2.5240                 2.8106
 Frc consts  --      0.9750                 1.0839                 1.2172
 IR Inten    --      2.3015                 8.9704                 2.1966

                     31                     32                     33
                      A                      A                      A
 Frequencies --    872.3743               897.9521               921.5235
 Red. masses --      1.2610                 1.8146                 2.0385
 Frc consts  --      0.5654                 0.8621                 1.0200
 IR Inten    --      0.3656                 2.2470                44.7709

                     34                     35                     36
                      A                      A                      A
 Frequencies --    936.8323               939.1977               949.7810
 Red. masses --      1.4634                 1.3553                 2.0324
 Frc consts  --      0.7567                 0.7043                 1.0802
 IR Inten    --     17.0004                34.3224                 4.4483

                     37                     38                     39
                      A                      A                      A
 Frequencies --    979.6741               981.1746              1008.9052
 Red. masses --      1.4291                 1.4737                 1.2569
 Frc consts  --      0.8081                 0.8359                 0.7538
 IR Inten    --      0.2712                 0.9236                12.3414

                     40                     41                     42
                      A                      A                      A
 Frequencies --   1013.9203              1021.8622              1041.8640
 Red. masses --      2.0662                 6.0601                 1.1102
 Frc consts  --      1.2515                 3.7283                 0.7100
 IR Inten    --     46.8199                 0.8588                 9.8918

                     43                     44                     45
                      A                      A                      A
 Frequencies --   1057.3569              1062.6996              1079.5504
 Red. masses --      1.5431                 2.2207                 1.7260
 Frc consts  --      1.0164                 1.4776                 1.1852
 IR Inten    --     14.0484                 3.1684                17.5689

                     46                     47                     48
                      A                      A                      A
 Frequencies --   1098.4996              1106.6811              1128.8813
 Red. masses --      1.7436                 2.6071                 1.7306
 Frc consts  --      1.2396                 1.8813                 1.2994
 IR Inten    --      6.4313                 2.1563                13.1827

                     49                     50                     51
                      A                      A                      A
 Frequencies --   1152.4981              1193.3586              1193.7983
 Red. masses --      1.7101                 1.1035                 1.1851
 Frc consts  --      1.3383                 0.9259                 0.9951
 IR Inten    --      8.6475                 0.2474                 0.9550

                     52                     53                     54
                      A                      A                      A
 Frequencies --   1207.2758              1218.1462              1234.9560
 Red. masses --      1.3611                 1.1694                 2.0239
 Frc consts  --      1.1688                 1.0224                 1.8186
 IR Inten    --     34.1674                 3.7107                 2.5928

                     55                     56                     57
                      A                      A                      A
 Frequencies --   1242.8003              1259.4770              1291.3490
 Red. masses --      1.4469                 1.3825                 1.3787
 Frc consts  --      1.3167                 1.2921                 1.3546
 IR Inten    --      3.5382                 5.6781                 3.6305

                     58                     59                     60
                      A                      A                      A
 Frequencies --   1310.2386              1336.0933              1351.5977
 Red. masses --      1.3080                 1.2489                 1.2291
 Frc consts  --      1.3230                 1.3135                 1.3230
 IR Inten    --      7.4684                 1.4213                 9.7168

                     61                     62                     63
                      A                      A                      A
 Frequencies --   1364.9359              1370.6225              1375.1636
 Red. masses --      3.6391                 1.5143                 1.2721
 Frc consts  --      3.9945                 1.6761                 1.4173
 IR Inten    --      0.7600                 0.6614                 1.9442

                     64                     65                     66
                      A                      A                      A
 Frequencies --   1392.0719              1400.9600              1411.8484
 Red. masses --      1.4153                 1.4111                 1.2922
 Frc consts  --      1.6160                 1.6318                 1.5176
 IR Inten    --      6.6140                 6.2231                 8.7699

                     67                     68                     69
                      A                      A                      A
 Frequencies --   1439.1628              1477.4921              1503.9498
 Red. masses --      1.4225                 1.1874                 2.1907
 Frc consts  --      1.7358                 1.5272                 2.9195
 IR Inten    --      5.6660                 1.3233                 5.6019

                     70                     71                     72
                      A                      A                      A
 Frequencies --   1508.6550              1519.3962              1526.3191
 Red. masses --      1.1010                 1.1091                 1.0904
 Frc consts  --      1.4764                 1.5086                 1.4967
 IR Inten    --      6.0192                 8.8522                13.5492

                     73                     74                     75
                      A                      A                      A
 Frequencies --   1530.2517              1541.9448              1548.5111
 Red. masses --      1.0984                 1.1691                 2.1695
 Frc consts  --      1.5155                 1.6377                 3.0650
 IR Inten    --      1.6200                 7.8550                13.7717

                     76                     77                     78
                      A                      A                      A
 Frequencies --   1643.2936              1667.6916              1694.6792
 Red. masses --      5.4404                 5.4963                 1.0586
 Frc consts  --      8.6559                 9.0065                 1.7912
 IR Inten    --      0.8469                 5.5511                34.9592

                     79                     80                     81
                      A                      A                      A
 Frequencies --   1734.9509              3014.7720              3027.1523
 Red. masses --      4.4764                 1.0796                 1.0679
 Frc consts  --      7.9388                 5.7811                 5.7656
 IR Inten    --      6.0672                40.5992                30.5053

                     82                     83                     84
                      A                      A                      A
 Frequencies --   3045.7115              3054.3721              3067.0481
 Red. masses --      1.0625                 1.0633                 1.0650
 Frc consts  --      5.8070                 5.8446                 5.9025
 IR Inten    --     12.4762                38.0936                24.3918

                     85                     86                     87
                      A                      A                      A
 Frequencies --   3074.0267              3083.7599              3101.0124
 Red. masses --      1.0925                 1.1020                 1.0994
 Frc consts  --      6.0823                 6.1746                 6.2290
 IR Inten    --     34.7207                37.8166                66.9154

                     88                     89                     90
                      A                      A                      A
 Frequencies --   3111.0462              3147.5608              3156.5193
 Red. masses --      1.1018                 1.0717                 1.0778
 Frc consts  --      6.2828                 6.2555                 6.3268
 IR Inten    --     13.1617                25.7410                 4.4698

                     91                     92                     93
                      A                      A                      A
 Frequencies --   3176.1315              3181.4538              3190.8393
 Red. masses --      1.0848                 1.0873                 1.0910
 Frc consts  --      6.4473                 6.4844                 6.5446
 IR Inten    --      5.5780                 3.4680                12.7170

                     94                     95                     96
                      A                      A                      A
 Frequencies --   3196.8879              3207.8755              3233.7264
 Red. masses --      1.0943                 1.0980                 1.1154
 Frc consts  --      6.5895                 6.6570                 6.8722
 IR Inten    --     32.5795                28.6389                20.9090

                     97                     98                     99
                      A                      A                      A
 Frequencies --   3404.1665              3424.5381              3495.2468
 Red. masses --      1.0532                 1.0713                 1.0913
 Frc consts  --      7.1911                 7.4025                 7.8553
 IR Inten    --      4.1879                 1.1994                 0.6258

 - Thermochemistry -
 -------------------
 Temperature   298.150 Kelvin.  Pressure   1.00000 Atm.
 Atom     1 has atomic number  6 and mass  12.00000

 Molecular mass:   204.16265 amu.
 Principal axes and moments of inertia in atomic units:
                           1         2         3
     Eigenvalues --  1723.527685803.097566981.17779
           X            0.99997   0.00737  -0.00254
           Y           -0.00736   0.99997   0.00244
           Z            0.00256  -0.00242   0.99999
 This molecule is an asymmetric top.
 Rotational symmetry number  1.
 Warning -- assumption of classical behavior for rotation
           may cause significant error
 Rotational temperatures (Kelvin)      0.05025     0.01493     0.01241
 Rotational constants (GHZ):           1.04712     0.31100     0.25852
 Zero-point vibrational energy     821126.3 (Joules/Mol)
                                  196.25391 (Kcal/Mol)
 Warning -- explicit consideration of  21 degrees of freedom as
           vibrations may cause significant error
 Vibrational temperatures:     48.90    53.39    70.77   104.08   129.07
          (Kelvin)            150.52   184.55   206.11   252.53   300.49
                              352.80   399.16   431.28   517.04   561.85
                              608.33   617.99   676.71   681.27   721.36
                              754.41   919.03   926.65   966.71  1041.79
                             1058.98  1115.64  1161.45  1228.33  1233.53
                             1255.15  1291.95  1325.87  1347.89  1351.30
                             1366.52  1409.53  1411.69  1451.59  1458.81
                             1470.23  1499.01  1521.30  1528.99  1553.23
                             1580.50  1592.27  1624.21  1658.19  1716.98
                             1717.61  1737.00  1752.64  1776.83  1788.11
                             1812.11  1857.96  1885.14  1922.34  1944.65
                             1963.84  1972.02  1978.55  2002.88  2015.67
                             2031.33  2070.63  2125.78  2163.85  2170.62
                             2186.07  2196.03  2201.69  2218.51  2227.96
                             2364.33  2399.44  2438.27  2496.21  4337.58
                             4355.40  4382.10  4394.56  4412.80  4422.84
                             4436.84  4461.67  4476.10  4528.64  4541.53
                             4569.74  4577.40  4590.91  4599.61  4615.42
                             4652.61  4897.84  4927.15  5028.88

 Zero-point correction=                           0.312751 (Hartree/Particle)
 Thermal correction to Energy=                    0.328264
 Thermal correction to Enthalpy=                  0.329208
 Thermal correction to Gibbs Free Energy=         0.268540
 Sum of electronic and zero-point Energies=           -616.616344
 Sum of electronic and thermal Energies=              -616.600830
 Sum of electronic and thermal Enthalpies=            -616.599886
 Sum of electronic and thermal Free Energies=         -616.660554

                     E (Thermal)             CV                S
                      KCal/Mol        Cal/Mol-Kelvin    Cal/Mol-Kelvin
 Total                  205.989             58.604            127.687
 Electronic               0.000              0.000              0.000
 Translational            0.889              2.981             41.846
 Rotational               0.889              2.981             32.612
 Vibrational            204.211             52.642             53.229
 Vibration     1          0.594              1.983              5.582
 Vibration     2          0.594              1.982              5.408
 Vibration     3          0.595              1.978              4.850
 Vibration     4          0.598              1.967              4.089
 Vibration     5          0.602              1.956              3.666
 Vibration     6          0.605              1.946              3.366
 Vibration     7          0.611              1.925              2.972
 Vibration     8          0.616              1.910              2.760
 Vibration     9          0.627              1.873              2.376
 Vibration    10          0.642              1.827              2.054
 Vibration    11          0.660              1.771              1.765
 Vibration    12          0.678              1.715              1.549
 Vibration    13          0.692              1.674              1.418
 Vibration    14          0.734              1.556              1.125
 Vibration    15          0.758              1.490              0.998
 Vibration    16          0.785              1.421              0.882
 Vibration    17          0.791              1.406              0.860
 Vibration    18          0.827              1.316              0.737
 Vibration    19          0.830              1.309              0.728
 Vibration    20          0.857              1.247              0.655
 Vibration    21          0.879              1.196              0.600

                           ! Non-Optimized Parameters !
 Normal termination of Gaussian 16 at Thu Dec 10 14:56:07 2020.

 ----------------------------------------------------------------------
 # B3LYP/6-311++G(d,p) empiricaldispersion=gd3bj scf=xqc pop=npa geom=c
 heck
 ----------------------------------------------------------------------

 ---------------------------------------
 CID_105195138_JID_5035_Energie_neutraal
 ---------------------------------------
 Structure from the checkpoint file:  "JID_5035.chk"
 Charge =  0 Multiplicity = 1

 SCF Done:  E(RB3LYP) =  -617.107081033     A.U. after   15 cycles
 Normal termination of Gaussian 16 at Thu Dec 10 15:01:15 2020.

 ----------------------------------------------------------------------
 # B3LYP/6-311++G(d,p) empiricaldispersion=gd3bj scf=xqc pop=npa geom=c
 heck
 ----------------------------------------------------------------------

 -------------------------------------
 CID_105195138_JID_5035_Energie_kation
 -------------------------------------
 Structure from the checkpoint file:  "JID_5035.chk"
 Charge =  1 Multiplicity = 2

 SCF Done:  E(UB3LYP) =  -616.822012868     A.U. after   25 cycles
 Normal termination of Gaussian 16 at Thu Dec 10 15:21:04 2020.
 Gaussian 16:  ES64L-G16RevA.03 25-Dec-2016

 ----------------------------------------------------------------------
 # B3LYP/6-311++G(d,p) empiricaldispersion=gd3bj scf=xqc pop=npa geom=c
 heck
 ----------------------------------------------------------------------

 ------------------------------------
 CID_105195138_JID_5035_Energie_anion
 ------------------------------------
 Structure from the checkpoint file:  "JID_5035.chk"
 Charge = -1 Multiplicity = 2

                         Standard orientation:
 ---------------------------------------------------------------------
 Center     Atomic      Atomic             Coordinates (Angstroms)
 Number     Number       Type             X           Y           Z
 ---------------------------------------------------------------------
      1          6           0       -5.322705   -0.532179   -0.435773
      2          6           0       -4.095483   -0.123438   -0.113259
      3          6           0       -3.098038   -0.935666    0.665391
      4          6           0       -1.866885   -1.358815   -0.163287
      5          6           0       -1.094424   -0.207036   -0.822350
      6          6           0       -0.603698    0.890416    0.131570
      7          6           0        0.398959    0.376316    1.206911
      8          6           0        1.676852   -0.170141    0.620179
      9          6           0        1.859443   -1.543807    0.415154
     10          6           0        3.024553   -2.033626   -0.175109
     11          6           0        4.031480   -1.153079   -0.573059
     12          6           0        3.865632    0.217507   -0.369430
     13          6           0        2.700036    0.705034    0.223058
     14          7           0       -0.102267    1.990254   -0.703207
     15          7           0        0.396025    3.085566    0.155665
     16          1           0       -5.695517   -1.508532   -0.131610
     17          1           0       -6.002888    0.089271   -1.011958
     18          1           0       -3.765907    0.862980   -0.440731
     19          1           0       -2.763676   -0.361310    1.541545
     20          1           0       -3.587281   -1.836523    1.055664
     21          1           0       -1.198397   -1.940703    0.482833
     22          1           0       -2.199926   -2.041241   -0.954933
     23          1           0       -0.229809   -0.624835   -1.353953
     24          1           0       -1.721650    0.274021   -1.580439
     25          1           0       -1.470278    1.296303    0.673835
     26          1           0        0.631569    1.211390    1.874393
     27          1           0       -0.099670   -0.390636    1.810184
     28          1           0        1.082958   -2.237483    0.727664
     29          1           0        3.146801   -3.103519   -0.321412
     30          1           0        4.939832   -1.532848   -1.032511
     31          1           0        4.648658    0.910033   -0.667186
     32          1           0        2.571875    1.770193    0.399012
     33          1           0        0.750013    1.638634   -1.148454
     34          1           0        0.462531    3.877793   -0.487677
     35          1           0       -0.409875    3.327350    0.738563
 ---------------------------------------------------------------------

 SCF Done:  E(UB3LYP) =  -617.093036411     A.U. after   33 cycles
 SCF Done:  E(UB3LYP) =  -617.093036411     a.u. after    1 cycles

 The electronic state is 2-A.
 Alpha  occ. eigenvalues --  -14.22388 -14.22048 -10.10294 -10.08643 -10.08304
 Alpha  occ. eigenvalues --  -10.07964 -10.07904 -10.07898 -10.07770 -10.07644
 Alpha  occ. eigenvalues --  -10.07589 -10.07580 -10.07159 -10.06882 -10.06810
 Alpha  occ. eigenvalues --   -0.85883  -0.76300  -0.73081  -0.70669  -0.66870
 Alpha  occ. eigenvalues --   -0.65792  -0.64952  -0.60674  -0.58680  -0.53207
 Alpha  occ. eigenvalues --   -0.51042  -0.50031  -0.47411  -0.45594  -0.41529
 Alpha  occ. eigenvalues --   -0.40339  -0.38837  -0.37361  -0.36836  -0.36493
 Alpha  occ. eigenvalues --   -0.35350  -0.34327  -0.33251  -0.32534  -0.31621
 Alpha  occ. eigenvalues --   -0.31505  -0.29570  -0.28570  -0.27787  -0.27337
 Alpha  occ. eigenvalues --   -0.26236  -0.25407  -0.24568  -0.23996  -0.23483
 Alpha  occ. eigenvalues --   -0.22606  -0.21514  -0.17375  -0.16046  -0.15217
 Alpha  occ. eigenvalues --   -0.10926   0.04296
 Alpha virt. eigenvalues --    0.06018   0.06283   0.07150   0.07710   0.07807
 Alpha virt. eigenvalues --    0.07929   0.08386   0.08727   0.09157   0.09600
 Alpha virt. eigenvalues --    0.10243   0.10514   0.10793   0.11836   0.11921

  Beta  occ. eigenvalues --  -14.22379 -14.21997 -10.10280 -10.08631 -10.08289
  Beta  occ. eigenvalues --  -10.07956 -10.07887 -10.07886 -10.07747 -10.07632
  Beta  occ. eigenvalues --  -10.07573 -10.07566 -10.07150 -10.06879 -10.06795
  Beta  occ. eigenvalues --   -0.85838  -0.76264  -0.73040  -0.70621  -0.66824
  Beta  occ. eigenvalues --   -0.65746  -0.64919  -0.60620  -0.58645  -0.53163
  Beta  occ. eigenvalues --   -0.51008  -0.49985  -0.47370  -0.45548  -0.41479
  Beta  occ. eigenvalues --   -0.40304  -0.38799  -0.37313  -0.36802  -0.36454
  Beta  occ. eigenvalues --   -0.35302  -0.34285  -0.33213  -0.32503  -0.31579
  Beta  occ. eigenvalues --   -0.31469  -0.29544  -0.28529  -0.27761  -0.27296
  Beta  occ. eigenvalues --   -0.26200  -0.25375  -0.24542  -0.23966  -0.23457
  Beta  occ. eigenvalues --   -0.22576  -0.21487  -0.17335  -0.16003  -0.15135
  Beta  occ. eigenvalues --   -0.10890
  Beta virt. eigenvalues --    0.06307   0.06715   0.07167   0.07484   0.07918
  Beta virt. eigenvalues --    0.08032   0.08272   0.08492   0.09119   0.09537
  Beta virt. eigenvalues --    0.09712   0.10573   0.10810   0.11081   0.12050

 Mulliken charges and spin densities:
               1          2
     1  C    0.485150  -1.182016
     2  C   -1.115109   1.414907
     3  C    1.056083  -1.461312
     4  C   -0.411379   0.198739
     5  C    0.277391  -0.719069
     6  C   -0.321746  -0.375721
     7  C    2.498332  -2.790183
     8  C   -0.900001   2.150965
     9  C   -0.674024   0.127981
    10  C    0.416356  -0.832373
    11  C    0.964686  -1.349028
    12  C    0.261486  -0.556540
    13  C   -1.783717   1.487948
    14  N   -0.061166   0.113261
    15  N   -0.354494  -0.160389
    16  H   -0.093911   0.199503
    17  H    0.098246   0.014659
    18  H   -0.340131   0.523365
    19  H   -0.211882   0.351427
    20  H   -0.263127   0.442344
    21  H    0.133043  -0.003452
    22  H    0.007797   0.137321
    23  H    0.224612  -0.093409
    24  H    0.209463   0.006500
    25  H    0.275031  -0.025257
    26  H   -0.046398   0.218628
    27  H   -0.158491   0.383411
    28  H   -0.228310   0.342186
    29  H   -0.423392   0.605112
    30  H   -0.181556   0.325066
    31  H   -0.344516   0.516690
    32  H    0.214111   0.061496
    33  H    0.150036   0.081560
    34  H   -0.092878   0.339443
    35  H   -0.265596   0.506241
 Sum of Mulliken charges =  -1.00000   1.00000

 Dipole moment (field-independent basis, Debye):
    X=             -0.7356    Y=             -1.7048    Z=             -2.1288  Tot=              2.8248
 Quadrupole moment (field-independent basis, Debye-Ang):
   XX=           -171.2431   YY=           -149.3473   ZZ=           -125.9098
   XY=              5.6028   XZ=              5.7579   YZ=             -0.7631

 Summary of Natural Population Analysis:

                                       Natural Population
                Natural  -----------------------------------------------
    Atom  No    Charge         Core      Valence    Rydberg      Total
 -----------------------------------------------------------------------
      C    1   -0.19654      0.99956     2.19059    0.00639     3.19654
      C    2   -0.07933      0.99956     2.06858    0.01119     3.07933
      C    3   -0.21070      0.99961     2.20106    0.01004     3.21070
      C    4   -0.18447      0.99962     2.17641    0.00844     3.18447
      C    5   -0.19701      0.99959     2.18936    0.00805     3.19701
      C    6   -0.00965      0.99959     1.99590    0.01416     3.00965
      C    7   -0.21256      0.99958     2.20156    0.01143     3.21256
      C    8   -0.01905      0.99952     2.00701    0.01252     3.01905
      C    9   -0.10151      0.99950     2.09218    0.00982     3.10151
      C   10   -0.10171      0.99956     2.09147    0.01068     3.10171
      C   11   -0.10606      0.99956     2.09660    0.00990     3.10606
      C   12   -0.10739      0.99959     2.09609    0.01171     3.10739
      C   13   -0.09326      0.99950     2.08738    0.00638     3.09326
      N   14   -0.25892      0.99974     2.74549    0.01369     3.75892
      N   15   -0.33612      0.99979     2.82446    0.01188     3.83612
      H   16    0.08865      0.00000     0.41019    0.00116     0.41135
      H   17    0.09195      0.00000     0.40713    0.00092     0.40805
      H   18    0.09478      0.00000     0.40386    0.00136     0.40522
      H   19    0.10352      0.00000     0.39462    0.00186     0.39648
      H   20    0.09996      0.00000     0.39879    0.00125     0.40004
      H   21    0.09775      0.00000     0.40073    0.00152     0.40225
      H   22    0.09668      0.00000     0.40234    0.00098     0.40332
      H   23    0.10209      0.00000     0.39655    0.00137     0.39791
      H   24    0.10409      0.00000     0.39437    0.00154     0.39591
      H   25    0.09217      0.00000     0.40496    0.00287     0.40783
      H   26    0.11289      0.00000     0.38540    0.00171     0.38711
      H   27    0.10424      0.00000     0.39420    0.00156     0.39576
      H   28    0.10002      0.00000     0.39815    0.00183     0.39998
      H   29    0.10045      0.00000     0.39850    0.00104     0.39955
      H   30    0.09975      0.00000     0.39908    0.00117     0.40025
      H   31    0.09894      0.00000     0.39962    0.00144     0.40106
      H   32    0.11112      0.00000     0.38676    0.00211     0.38888
      H   33    0.16898      0.00000     0.32739    0.00363     0.33102
      H   34    0.17376      0.00000     0.32375    0.00250     0.32624
      H   35    0.17256      0.00000     0.32355    0.00389     0.32744
 =======================================================================
   * Total *    0.00004     14.99388    40.81410    0.19198    55.99996

 Normal termination of Gaussian 16 at Thu Dec 10 15:43:40 2020.
