 Gaussian 16, Revision A.03,

 -----------------------------------------------------------
 # opt freq B3LYP/6-31G(d) empiricaldispersion=gd3bj scf=xqc
 -----------------------------------------------------------

 -------------------------------
 CID_101162687_JID_7182_neutraal
 -------------------------------
 Symbolic Z-matrix:
 Charge =  0 Multiplicity = 1

 SCF Done:  E(RB3LYP) =  -784.887095219     A.U. after   15 cycles
 SCF Done:  E(RB3LYP) =  -784.892059978     A.U. after   13 cycles
 SCF Done:  E(RB3LYP) =  -784.893024322     A.U. after   13 cycles
 SCF Done:  E(RB3LYP) =  -784.892287321     A.U. after   13 cycles
 SCF Done:  E(RB3LYP) =  -784.893235998     A.U. after   13 cycles
 SCF Done:  E(RB3LYP) =  -784.894062600     A.U. after   13 cycles
 SCF Done:  E(RB3LYP) =  -784.894352425     A.U. after   13 cycles
 SCF Done:  E(RB3LYP) =  -784.894479781     A.U. after   13 cycles
 SCF Done:  E(RB3LYP) =  -784.894568288     A.U. after   13 cycles
 SCF Done:  E(RB3LYP) =  -784.894596638     A.U. after   11 cycles
 SCF Done:  E(RB3LYP) =  -784.894610380     A.U. after    9 cycles
 SCF Done:  E(RB3LYP) =  -784.894611020     A.U. after    9 cycles
 SCF Done:  E(RB3LYP) =  -784.894611252     A.U. after    8 cycles
 SCF Done:  E(RB3LYP) =  -784.894611292     A.U. after    7 cycles
 Optimization completed.
    -- Stationary point found.
 Normal termination of Gaussian 16 at Mon Dec 14 16:44:30 2020.

 --------------------------------------------------------------------
 #N Geom=AllCheck Guess=TCheck SCRF=Check GenChk RB3LYP/6-31G(d) Freq
 --------------------------------------------------------------------

 Structure from the checkpoint file:  "JID_7182.chk"
 -------------------------------
 CID_101162687_JID_7182_neutraal
 -------------------------------
 Charge =  0 Multiplicity = 1

 SCF Done:  E(RB3LYP) =  -784.894611291     A.U. after    1 cycles

  Exact polarizability: 191.634  -9.866 152.506  -4.613 -11.757  96.719
 Approx polarizability: 255.222 -21.571 250.188 -11.974 -30.954 154.494

                      1                      2                      3
                      A                      A                      A
 Frequencies --     32.2584                42.9220                61.3419
 Red. masses --      4.6946                 4.9380                 6.4314
 Frc consts  --      0.0029                 0.0054                 0.0143
 IR Inten    --      0.1926                 0.1377                 6.2144

                      4                      5                      6
                      A                      A                      A
 Frequencies --     80.9784                87.5352               136.5684
 Red. masses --      3.3683                 3.5819                 2.0886
 Frc consts  --      0.0130                 0.0162                 0.0230
 IR Inten    --      8.7404                 4.3394                 0.4993

                      7                      8                      9
                      A                      A                      A
 Frequencies --    143.1334               172.8374               197.1637
 Red. masses --      2.7995                 2.1198                 2.7954
 Frc consts  --      0.0338                 0.0373                 0.0640
 IR Inten    --      0.6332                 0.2339                 0.6838

                     10                     11                     12
                      A                      A                      A
 Frequencies --    223.8244               238.0270               257.0153
 Red. masses --      2.4668                 2.6828                 1.5425
 Frc consts  --      0.0728                 0.0896                 0.0600
 IR Inten    --      1.4022                 0.4007                 1.6018

                     13                     14                     15
                      A                      A                      A
 Frequencies --    298.1024               341.9680               345.6235
 Red. masses --      2.5474                 2.8649                 3.7239
 Frc consts  --      0.1334                 0.1974                 0.2621
 IR Inten    --      1.3494                 4.3052                 4.7247

                     16                     17                     18
                      A                      A                      A
 Frequencies --    371.6431               388.9962               403.2412
 Red. masses --      3.9757                 4.2652                 3.2336
 Frc consts  --      0.3235                 0.3803                 0.3098
 IR Inten    --      2.9129                 1.8186                20.1033

                     19                     20                     21
                      A                      A                      A
 Frequencies --    447.7286               461.1844               524.1449
 Red. masses --      3.3106                 5.1229                 3.9874
 Frc consts  --      0.3910                 0.6420                 0.6454
 IR Inten    --      2.2119                 4.9082                18.6777

                     22                     23                     24
                      A                      A                      A
 Frequencies --    531.0091               549.6866               583.0058
 Red. masses --      3.6523                 4.7430                 3.3209
 Frc consts  --      0.6068                 0.8444                 0.6650
 IR Inten    --      5.1527                 2.7828                 2.3740

                     25                     26                     27
                      A                      A                      A
 Frequencies --    595.9203               643.7991               667.9670
 Red. masses --      2.9975                 3.7911                 4.9732
 Frc consts  --      0.6272                 0.9258                 1.3074
 IR Inten    --     10.5276                 2.5188                 2.0996

                     28                     29                     30
                      A                      A                      A
 Frequencies --    713.3218               757.6897               794.9753
 Red. masses --      3.6494                 4.3594                 4.3651
 Frc consts  --      1.0941                 1.4745                 1.6254
 IR Inten    --      4.7979                 4.7567                 2.3296

                     31                     32                     33
                      A                      A                      A
 Frequencies --    814.7743               844.9002               867.9410
 Red. masses --      2.1262                 1.6856                 1.4893
 Frc consts  --      0.8316                 0.7089                 0.6610
 IR Inten    --     12.3961                32.6736                12.4587

                     34                     35                     36
                      A                      A                      A
 Frequencies --    930.7312               934.2741               953.2510
 Red. masses --      2.4040                 2.5944                 1.3899
 Frc consts  --      1.2270                 1.3342                 0.7441
 IR Inten    --      1.5544                 1.4883                 0.3126

                     37                     38                     39
                      A                      A                      A
 Frequencies --    975.0520               981.3104              1013.9134
 Red. masses --      2.4227                 2.6563                 1.9282
 Frc consts  --      1.3571                 1.5071                 1.1679
 IR Inten    --      5.6450                 1.0080                24.8449

                     40                     41                     42
                      A                      A                      A
 Frequencies --   1052.3481              1060.4033              1077.7758
 Red. masses --      2.2056                 1.7456                 4.1759
 Frc consts  --      1.4391                 1.1565                 2.8580
 IR Inten    --     20.8499                 6.8794                58.5491

                     43                     44                     45
                      A                      A                      A
 Frequencies --   1085.7882              1104.7430              1145.4335
 Red. masses --      3.9218                 2.3095                 1.6483
 Frc consts  --      2.7241                 1.6607                 1.2741
 IR Inten    --      8.6508                 6.5240                21.2825

                     46                     47                     48
                      A                      A                      A
 Frequencies --   1186.2307              1187.9691              1195.6153
 Red. masses --      1.2729                 1.7989                 1.7761
 Frc consts  --      1.0553                 1.4958                 1.4959
 IR Inten    --      0.5601                 9.7872                26.4792

                     49                     50                     51
                      A                      A                      A
 Frequencies --   1223.5307              1239.6371              1245.9578
 Red. masses --      1.4988                 1.5607                 2.1489
 Frc consts  --      1.3220                 1.4131                 1.9655
 IR Inten    --      1.5623                66.3821                24.8415

                     52                     53                     54
                      A                      A                      A
 Frequencies --   1270.7510              1285.2369              1322.7688
 Red. masses --      1.5180                 1.8650                 1.5594
 Frc consts  --      1.4442                 1.8150                 1.6076
 IR Inten    --     35.2651               142.2988                45.8910

                     55                     56                     57
                      A                      A                      A
 Frequencies --   1330.2833              1353.5277              1369.7647
 Red. masses --      2.5696                 1.4882                 1.4720
 Frc consts  --      2.6792                 1.6063                 1.6272
 IR Inten    --    127.2725                 0.9982                50.4081

                     58                     59                     60
                      A                      A                      A
 Frequencies --   1378.4162              1391.6834              1403.2439
 Red. masses --      2.3457                 1.7944                 1.8951
 Frc consts  --      2.6259                 2.0476                 2.1986
 IR Inten    --     30.7645                 6.4146               108.8310

                     61                     62                     63
                      A                      A                      A
 Frequencies --   1417.1576              1434.1709              1476.8455
 Red. masses --      1.2495                 1.7927                 2.5478
 Frc consts  --      1.4786                 2.1725                 3.2741
 IR Inten    --      2.2991               140.1317                19.0053

                     64                     65                     66
                      A                      A                      A
 Frequencies --   1496.8627              1506.6213              1512.0197
 Red. masses --      1.0675                 1.3685                 1.1542
 Frc consts  --      1.4092                 1.8302                 1.5547
 IR Inten    --      7.6556                 6.8160                 1.1528

                     67                     68                     69
                      A                      A                      A
 Frequencies --   1519.5347              1521.4885              1530.4279
 Red. masses --      1.0469                 1.0475                 1.1425
 Frc consts  --      1.4242                 1.4288                 1.5766
 IR Inten    --     13.4708                 6.4492                10.2094

                     70                     71                     72
                      A                      A                      A
 Frequencies --   1535.3258              1559.4335              1644.5779
 Red. masses --      1.0746                 2.4424                 7.3777
 Frc consts  --      1.4924                 3.4995                11.7565
 IR Inten    --     53.3710                85.5153                10.7888

                     73                     74                     75
                      A                      A                      A
 Frequencies --   1676.3611              1771.6573              1835.0202
 Red. masses --      6.1744                 9.9187                10.3600
 Frc consts  --     10.2231                18.3428                20.5537
 IR Inten    --     93.2643               279.9285               181.7147

                     76                     77                     78
                      A                      A                      A
 Frequencies --   2902.2586              3012.0890              3018.0778
 Red. masses --      1.0850                 1.0720                 1.0735
 Frc consts  --      5.3848                 5.7304                 5.7612
 IR Inten    --     81.3533                13.3787                46.4837

                     79                     80                     81
                      A                      A                      A
 Frequencies --   3027.8526              3063.1727              3075.0080
 Red. masses --      1.0348                 1.0417                 1.0828
 Frc consts  --      5.5894                 5.7591                 6.0323
 IR Inten    --     48.3613                 2.3610                15.9162

                     82                     83                     84
                      A                      A                      A
 Frequencies --   3087.4312              3120.7197              3124.5684
 Red. masses --      1.1067                 1.0917                 1.0992
 Frc consts  --      6.2156                 6.2644                 6.3229
 IR Inten    --     40.6777                11.1172                 8.8213

                     85                     86                     87
                      A                      A                      A
 Frequencies --   3162.0054              3167.0247              3181.8059
 Red. masses --      1.0999                 1.0898                 1.1006
 Frc consts  --      6.4793                 6.4402                 6.5649
 IR Inten    --     27.9563                 5.7066                 7.0200

                     88                     89                     90
                      A                      A                      A
 Frequencies --   3186.2892              3219.8647              3223.2842
 Red. masses --      1.0892                 1.0931                 1.0897
 Frc consts  --      6.5152                 6.6770                 6.6706
 IR Inten    --     13.6648                 7.9290                 7.1795

 - Thermochemistry -
 -------------------
 Temperature   298.150 Kelvin.  Pressure   1.00000 Atm.
 Atom     1 has atomic number  6 and mass  12.00000

 Molecular mass:   233.10519 amu.
 Principal axes and moments of inertia in atomic units:
                           1         2         3
     Eigenvalues --  2102.677086462.119738016.69160
           X            0.99997  -0.00715   0.00424
           Y            0.00715   0.99997   0.00170
           Z           -0.00426  -0.00167   0.99999
 This molecule is an asymmetric top.
 Rotational symmetry number  1.
 Warning -- assumption of classical behavior for rotation
           may cause significant error
 Rotational temperatures (Kelvin)      0.04119     0.01340     0.01080
 Rotational constants (GHZ):           0.85831     0.27928     0.22512
 Zero-point vibrational energy     689825.5 (Joules/Mol)
                                  164.87226 (Kcal/Mol)
 Warning -- explicit consideration of  25 degrees of freedom as
           vibrations may cause significant error
 Vibrational temperatures:     46.41    61.76    88.26   116.51   125.94
          (Kelvin)            196.49   205.94   248.67   283.67   322.03
                              342.47   369.79   428.90   492.02   497.28
                              534.71   559.68   580.17   644.18   663.54
                              754.13   764.00   790.88   838.82   857.40
                              926.28   961.06  1026.31  1090.15  1143.79
                             1172.28  1215.62  1248.77  1339.11  1344.21
                             1371.52  1402.88  1411.89  1458.80  1514.09
                             1525.68  1550.68  1562.21  1589.48  1648.02
                             1706.72  1709.22  1720.22  1760.39  1783.56
                             1792.66  1828.33  1849.17  1903.17  1913.98
                             1947.42  1970.79  1983.23  2002.32  2018.96
                             2038.97  2063.45  2124.85  2153.65  2167.69
                             2175.46  2186.27  2189.08  2201.94  2208.99
                             2243.68  2366.18  2411.91  2549.02  2640.18
                             4175.70  4333.72  4342.34  4356.40  4407.22
                             4424.25  4442.12  4490.02  4495.56  4549.42
                             4556.64  4577.91  4584.36  4632.67  4637.59

 Zero-point correction=                           0.262741 (Hartree/Particle)
 Thermal correction to Energy=                    0.278608
 Thermal correction to Enthalpy=                  0.279553
 Thermal correction to Gibbs Free Energy=         0.218538
 Sum of electronic and zero-point Energies=           -784.631871
 Sum of electronic and thermal Energies=              -784.616003
 Sum of electronic and thermal Enthalpies=            -784.615059
 Sum of electronic and thermal Free Energies=         -784.676074

                     E (Thermal)             CV                S
                      KCal/Mol        Cal/Mol-Kelvin    Cal/Mol-Kelvin
 Total                  174.829             59.709            128.416
 Electronic               0.000              0.000              0.000
 Translational            0.889              2.981             42.241
 Rotational               0.889              2.981             33.054
 Vibrational            173.052             53.748             53.121
 Vibration     1          0.594              1.983              5.685
 Vibration     2          0.595              1.980              5.119
 Vibration     3          0.597              1.973              4.414
 Vibration     4          0.600              1.962              3.867
 Vibration     5          0.601              1.958              3.714
 Vibration     6          0.614              1.917              2.851
 Vibration     7          0.616              1.910              2.762
 Vibration     8          0.626              1.876              2.404
 Vibration     9          0.637              1.844              2.159
 Vibration    10          0.649              1.805              1.928
 Vibration    11          0.656              1.782              1.818
 Vibration    12          0.667              1.751              1.682
 Vibration    13          0.691              1.677              1.428
 Vibration    14          0.721              1.592              1.203
 Vibration    15          0.724              1.584              1.186
 Vibration    16          0.743              1.530              1.073
 Vibration    17          0.757              1.494              1.004
 Vibration    18          0.769              1.463              0.951
 Vibration    19          0.807              1.366              0.803
 Vibration    20          0.819              1.336              0.763
 Vibration    21          0.879              1.197              0.600
 Vibration    22          0.886              1.181              0.585
 Vibration    23          0.905              1.140              0.545
 Vibration    24          0.940              1.068              0.480
 Vibration    25          0.954              1.040              0.457

 Optimization completed.
    -- Stationary point found.
 Normal termination of Gaussian 16 at Mon Dec 14 16:55:59 2020.

 ----------------------------------------------------------------------
 # B3LYP/6-311++G(d,p) empiricaldispersion=gd3bj scf=xqc pop=npa geom=c
 heck
 ----------------------------------------------------------------------

 ---------------------------------------
 CID_101162687_JID_7182_Energie_neutraal
 ---------------------------------------
 Structure from the checkpoint file:  "JID_7182.chk"
 Charge =  0 Multiplicity = 1

 SCF Done:  E(RB3LYP) =  -785.113367610     A.U. after   16 cycles
 Normal termination of Gaussian 16 at Mon Dec 14 17:01:41 2020.

 ----------------------------------------------------------------------
 # B3LYP/6-311++G(d,p) empiricaldispersion=gd3bj scf=xqc pop=npa geom=c
 heck
 ----------------------------------------------------------------------

 -------------------------------------
 CID_101162687_JID_7182_Energie_kation
 -------------------------------------
 Structure from the checkpoint file:  "JID_7182.chk"
 Charge =  1 Multiplicity = 2

 SCF Done:  E(UB3LYP) =  -784.814901910     A.U. after   33 cycles
 SCF Done:  E(UB3LYP) =  -784.814901910     a.u. after    1 cycles
 Normal termination of Gaussian 16 at Mon Dec 14 17:19:04 2020.
 Gaussian 16:  ES64L-G16RevA.03 25-Dec-2016

 ----------------------------------------------------------------------
 # B3LYP/6-311++G(d,p) empiricaldispersion=gd3bj scf=xqc pop=npa geom=c
 heck
 ----------------------------------------------------------------------

 ------------------------------------
 CID_101162687_JID_7182_Energie_anion
 ------------------------------------
 Structure from the checkpoint file:  "JID_7182.chk"
 Charge = -1 Multiplicity = 2

                         Standard orientation:
 ---------------------------------------------------------------------
 Center     Atomic      Atomic             Coordinates (Angstroms)
 Number     Number       Type             X           Y           Z
 ---------------------------------------------------------------------
      1          6           0        3.267269    1.588570    1.214123
      2          6           0        2.130122    1.785241    0.224196
      3          8           0        1.743242    2.906022   -0.084313
      4          7           0        1.556157    0.644060   -0.305165
      5          6           0        0.347524    0.805702   -1.132616
      6          6           0       -0.785007   -0.002630   -0.554708
      7          6           0       -0.477994   -1.311322   -0.170791
      8          6           0        0.938846   -1.759733   -0.402444
      9          6           0        1.945697   -0.700267    0.119435
     10          6           0        3.321929   -1.076716   -0.416333
     11          8           0        4.087741   -1.816104    0.156606
     12          6           0       -1.474534   -2.106829    0.399545
     13          6           0       -2.761474   -1.609652    0.568285
     14          6           0       -3.065715   -0.297770    0.177656
     15          6           0       -2.069756    0.512866   -0.380807
     16          8           0       -4.352351    0.099260    0.391198
     17          6           0       -4.708245    1.424154    0.030186
     18          1           0        3.616930    2.577602    1.510135
     19          1           0        4.105063    1.027219    0.787906
     20          1           0        2.932668    1.045146    2.105187
     21          1           0        0.129024    1.872494   -1.155787
     22          1           0        0.566034    0.486507   -2.162053
     23          1           0        1.114681   -1.913479   -1.478000
     24          1           0        1.159688   -2.709071    0.092738
     25          1           0        1.973750   -0.773091    1.211842
     26          1           0        3.557205   -0.636863   -1.412630
     27          1           0       -1.245422   -3.122810    0.711179
     28          1           0       -3.548255   -2.214016    1.007335
     29          1           0       -2.275370    1.536116   -0.673051
     30          1           0       -4.123056    2.164604    0.590851
     31          1           0       -4.572867    1.598072   -1.045346
     32          1           0       -5.764205    1.530042    0.283551
 ---------------------------------------------------------------------

 SCF Done:  E(UB3LYP) =  -785.110822592     A.U. after   33 cycles
 SCF Done:  E(UB3LYP) =  -785.110822592     a.u. after    1 cycles

 The electronic state is 2-A.
 Alpha  occ. eigenvalues --  -19.06305 -18.98980 -18.97844 -14.24417 -10.17638
 Alpha  occ. eigenvalues --  -10.14431 -10.12840 -10.11244 -10.11040 -10.10517
 Alpha  occ. eigenvalues --  -10.09075 -10.08735 -10.08489 -10.08303 -10.08284
 Alpha  occ. eigenvalues --  -10.08152 -10.07910  -0.97941  -0.94278  -0.91544
 Alpha  occ. eigenvalues --   -0.84481  -0.77053  -0.69912  -0.68921  -0.65149
 Alpha  occ. eigenvalues --   -0.64880  -0.61734  -0.57889  -0.55171  -0.51751
 Alpha  occ. eigenvalues --   -0.49166  -0.47719  -0.44886  -0.43760  -0.40820
 Alpha  occ. eigenvalues --   -0.39625  -0.38332  -0.37917  -0.37535  -0.36488
 Alpha  occ. eigenvalues --   -0.35411  -0.34245  -0.33164  -0.32657  -0.31959
 Alpha  occ. eigenvalues --   -0.31688  -0.30730  -0.30093  -0.29945  -0.28661
 Alpha  occ. eigenvalues --   -0.28032  -0.27473  -0.26278  -0.25683  -0.24620
 Alpha  occ. eigenvalues --   -0.23865  -0.22449  -0.16598  -0.16174  -0.15908
 Alpha  occ. eigenvalues --   -0.13041  -0.12320   0.04231
 Alpha virt. eigenvalues --    0.05518   0.07058   0.07291   0.07958   0.08135
 Alpha virt. eigenvalues --    0.08823   0.09044   0.09716   0.09936   0.10334
 Alpha virt. eigenvalues --    0.10975   0.11352   0.11591   0.12568   0.12810

  Beta  occ. eigenvalues --  -19.06299 -18.98982 -18.97420 -14.24399 -10.17635
  Beta  occ. eigenvalues --  -10.14432 -10.12789 -10.11273 -10.11024 -10.10116
  Beta  occ. eigenvalues --  -10.09074 -10.08727 -10.08409 -10.08290 -10.08274
  Beta  occ. eigenvalues --  -10.08149 -10.07903  -0.97926  -0.94272  -0.90745
  Beta  occ. eigenvalues --   -0.84435  -0.77034  -0.69835  -0.68863  -0.65057
  Beta  occ. eigenvalues --   -0.64853  -0.61659  -0.57817  -0.54981  -0.51690
  Beta  occ. eigenvalues --   -0.49111  -0.47097  -0.44803  -0.43663  -0.40786
  Beta  occ. eigenvalues --   -0.39555  -0.38195  -0.37864  -0.37427  -0.36427
  Beta  occ. eigenvalues --   -0.35369  -0.34162  -0.33115  -0.32497  -0.31772
  Beta  occ. eigenvalues --   -0.31591  -0.30603  -0.29881  -0.29697  -0.28596
  Beta  occ. eigenvalues --   -0.27632  -0.27395  -0.26211  -0.25590  -0.24029
  Beta  occ. eigenvalues --   -0.22936  -0.22152  -0.16586  -0.16167  -0.15779
  Beta  occ. eigenvalues --   -0.12982  -0.12067
  Beta virt. eigenvalues --    0.06544   0.07128   0.07380   0.07933   0.08231
  Beta virt. eigenvalues --    0.08950   0.09331   0.09598   0.09964   0.10499
  Beta virt. eigenvalues --    0.10855   0.11060   0.11464   0.11697   0.12580

 Mulliken charges and spin densities:
               1          2
     1  C   -0.418646  -0.031442
     2  C    0.072591   0.018821
     3  O   -0.348420  -0.000329
     4  N    0.244677   0.055035
     5  C   -1.283006   0.065941
     6  C    1.813075  -0.711655
     7  C    1.461618  -0.440900
     8  C    0.923317  -1.652370
     9  C   -0.945579   0.539109
    10  C    0.062325  -0.081243
    11  O   -0.300686   0.134490
    12  C   -0.909741   0.552307
    13  C   -0.639085   0.368270
    14  C   -1.211590   0.569654
    15  C   -0.289869   0.289370
    16  O   -0.205120   0.055248
    17  C    0.984748  -1.340924
    18  H    0.195429   0.000613
    19  H    0.181464   0.002959
    20  H    0.118099   0.022536
    21  H    0.164637   0.079361
    22  H    0.022703   0.153826
    23  H   -0.084213   0.273064
    24  H    0.240596  -0.063872
    25  H    0.052788   0.175449
    26  H    0.060910   0.016083
    27  H   -0.005778   0.149756
    28  H    0.093089   0.085324
    29  H    0.291944  -0.138288
    30  H   -0.138053   0.297232
    31  H   -0.397076   0.559764
    32  H   -0.807146   0.996812
 Sum of Mulliken charges =  -1.00000   1.00000

 Dipole moment (field-independent basis, Debye):
    X=              2.2453    Y=             -2.3273    Z=              1.0798  Tot=              3.4093
 Quadrupole moment (field-independent basis, Debye-Ang):
   XX=           -206.3324   YY=           -142.1674   ZZ=           -120.2439
   XY=             25.2344   XZ=             -0.5073   YZ=              0.7389

 Summary of Natural Population Analysis:

                                       Natural Population
                Natural  -----------------------------------------------
    Atom  No    Charge         Core      Valence    Rydberg      Total
 -----------------------------------------------------------------------
      C    1   -0.33202      0.99962     2.32796    0.00443     3.33202
      C    2    0.34820      0.99967     1.63036    0.02177     2.65180
      O    3   -0.33052      0.99988     3.32506    0.00558     4.33052
      N    4   -0.25498      0.99963     2.74447    0.01087     3.75498
      C    5   -0.09716      0.99957     2.08623    0.01136     3.09716
      C    6   -0.00810      0.99947     1.99972    0.00891     3.00810
      C    7   -0.02670      0.99946     2.01860    0.00863     3.02670
      C    8   -0.18924      0.99959     2.18098    0.00867     3.18924
      C    9   -0.05085      0.99957     2.03697    0.01431     3.05085
      C   10    0.26636      0.99971     1.71255    0.02138     2.73364
      O   11   -0.24990      0.99988     3.24286    0.00716     4.24990
      C   12   -0.09080      0.99952     2.08266    0.00862     3.09080
      C   13   -0.12079      0.99953     2.11198    0.00928     3.12079
      C   14    0.16163      0.99939     1.82519    0.01379     2.83837
      C   15   -0.13831      0.99947     2.13086    0.00798     3.13831
      O   16   -0.27412      0.99986     3.26397    0.01029     4.27412
      C   17   -0.10103      0.99960     2.09224    0.00919     3.10103
      H   18    0.10918      0.00000     0.38998    0.00084     0.39082
      H   19    0.11656      0.00000     0.38245    0.00099     0.38344
      H   20    0.10793      0.00000     0.39092    0.00115     0.39207
      H   21    0.12173      0.00000     0.37685    0.00141     0.37827
      H   22    0.09923      0.00000     0.39950    0.00127     0.40077
      H   23    0.10526      0.00000     0.39336    0.00138     0.39474
      H   24    0.11016      0.00000     0.38886    0.00097     0.38984
      H   25    0.10133      0.00000     0.39674    0.00193     0.39867
      H   26    0.03756      0.00000     0.46026    0.00218     0.46244
      H   27    0.09920      0.00000     0.39992    0.00088     0.40080
      H   28    0.10464      0.00000     0.39433    0.00103     0.39536
      H   29    0.10821      0.00000     0.39054    0.00125     0.39179
      H   30    0.08486      0.00000     0.41362    0.00152     0.41514
      H   31    0.08612      0.00000     0.41180    0.00208     0.41388
      H   32    0.09635      0.00000     0.40177    0.00188     0.40365
 =======================================================================
   * Total *    0.00000     16.99342    44.80359    0.20300    62.00000

 Normal termination of Gaussian 16 at Mon Dec 14 17:36:41 2020.
