 Gaussian 16, Revision A.03,

 -----------------------------------------------------------
 # opt freq B3LYP/6-31G(d) empiricaldispersion=gd3bj scf=xqc
 -----------------------------------------------------------

 -------------------------------
 CID_130505195_JID_4964_neutraal
 -------------------------------
 Symbolic Z-matrix:
 Charge =  0 Multiplicity = 1

 SCF Done:  E(RB3LYP) =  -615.912367098     A.U. after   13 cycles
 SCF Done:  E(RB3LYP) =  -615.932231523     A.U. after   11 cycles
 SCF Done:  E(RB3LYP) =  -615.936242852     A.U. after   11 cycles
 SCF Done:  E(RB3LYP) =  -615.936811351     A.U. after   10 cycles
 SCF Done:  E(RB3LYP) =  -615.936946416     A.U. after   10 cycles
 SCF Done:  E(RB3LYP) =  -615.936961256     A.U. after    9 cycles
 SCF Done:  E(RB3LYP) =  -615.936967693     A.U. after    9 cycles
 SCF Done:  E(RB3LYP) =  -615.936968364     A.U. after    7 cycles
 SCF Done:  E(RB3LYP) =  -615.936968606     A.U. after    7 cycles
 Optimization completed.
    -- Stationary point found.
 Normal termination of Gaussian 16 at Thu Dec 10 10:56:38 2020.

 --------------------------------------------------------------------
 #N Geom=AllCheck Guess=TCheck SCRF=Check GenChk RB3LYP/6-31G(d) Freq
 --------------------------------------------------------------------

 Structure from the checkpoint file:  "JID_4964.chk"
 -------------------------------
 CID_130505195_JID_4964_neutraal
 -------------------------------
 Charge =  0 Multiplicity = 1

 SCF Done:  E(RB3LYP) =  -615.936968606     A.U. after    1 cycles

  Exact polarizability: 150.021  -1.779 111.296   4.693   2.944 110.817
 Approx polarizability: 179.180  -1.316 162.904   0.907   3.138 172.291

                      1                      2                      3
                      A                      A                      A
 Frequencies --     29.1919                45.9382                59.0990
 Red. masses --      4.1643                 2.8024                 3.3598
 Frc consts  --      0.0021                 0.0035                 0.0069
 IR Inten    --      0.3004                 0.8305                 0.0976

                      4                      5                      6
                      A                      A                      A
 Frequencies --     91.5417                98.8173               172.8202
 Red. masses --      3.5543                 3.0192                 2.4343
 Frc consts  --      0.0175                 0.0174                 0.0428
 IR Inten    --      1.8993                 0.7004                 1.8277

                      7                      8                      9
                      A                      A                      A
 Frequencies --    220.3807               264.1647               279.6587
 Red. masses --      3.8147                 1.5651                 1.7722
 Frc consts  --      0.1092                 0.0643                 0.0817
 IR Inten    --      2.9467                28.9426                19.9340

                     10                     11                     12
                      A                      A                      A
 Frequencies --    313.2277               357.7432               389.5165
 Red. masses --      1.9641                 2.5211                 2.5600
 Frc consts  --      0.1135                 0.1901                 0.2288
 IR Inten    --      0.3702                 8.7733                 1.2459

                     13                     14                     15
                      A                      A                      A
 Frequencies --    391.8734               446.9686               484.4346
 Red. masses --      2.1550                 1.9963                 2.0007
 Frc consts  --      0.1950                 0.2350                 0.2766
 IR Inten    --      6.7285                 1.3419                 4.8793

                     16                     17                     18
                      A                      A                      A
 Frequencies --    502.6405               562.2739               590.1787
 Red. masses --      2.5489                 4.9696                 4.0489
 Frc consts  --      0.3794                 0.9257                 0.8309
 IR Inten    --      2.4711                11.5466                 0.3239

                     19                     20                     21
                      A                      A                      A
 Frequencies --    698.1167               741.0070               802.6194
 Red. masses --      3.4840                 2.7427                 1.7524
 Frc consts  --      1.0004                 0.8873                 0.6651
 IR Inten    --      2.4836                 4.2687                33.3383

                     22                     23                     24
                      A                      A                      A
 Frequencies --    807.8963               810.7944               824.9665
 Red. masses --      2.0965                 1.6824                 2.5610
 Frc consts  --      0.8062                 0.6516                 1.0269
 IR Inten    --      1.1530                15.3500                51.4451

                     25                     26                     27
                      A                      A                      A
 Frequencies --    831.4238               836.1704               864.6570
 Red. masses --      2.0957                 1.8997                 2.2176
 Frc consts  --      0.8536                 0.7826                 0.9768
 IR Inten    --      7.6433                 8.5548                11.9736

                     28                     29                     30
                      A                      A                      A
 Frequencies --    891.5540               908.7167               920.2583
 Red. masses --      1.8548                 2.4532                 2.1616
 Frc consts  --      0.8686                 1.1935                 1.0786
 IR Inten    --     96.6548                 3.7848                 4.8684

                     31                     32                     33
                      A                      A                      A
 Frequencies --    944.2505               952.0942               958.2991
 Red. masses --      1.6120                 1.6824                 1.7451
 Frc consts  --      0.8468                 0.8986                 0.9442
 IR Inten    --     25.9670                11.8714                 7.5778

                     34                     35                     36
                      A                      A                      A
 Frequencies --    965.7836               984.9986              1001.1408
 Red. masses --      3.8254                 2.0970                 2.4074
 Frc consts  --      2.1022                 1.1987                 1.4216
 IR Inten    --     28.4868                12.2151                 8.0705

                     37                     38                     39
                      A                      A                      A
 Frequencies --   1008.7494              1027.4050              1042.8353
 Red. masses --      2.6136                 2.7638                 2.2865
 Frc consts  --      1.5670                 1.7188                 1.4650
 IR Inten    --     17.0867                22.0074                20.6533

                     40                     41                     42
                      A                      A                      A
 Frequencies --   1058.7269              1082.5790              1088.7298
 Red. masses --      2.7477                 1.7713                 1.5705
 Frc consts  --      1.8147                 1.2231                 1.0968
 IR Inten    --      1.2405                24.6994                 3.4117

                     43                     44                     45
                      A                      A                      A
 Frequencies --   1110.4170              1134.9509              1144.2887
 Red. masses --      2.3044                 1.4986                 1.2188
 Frc consts  --      1.6741                 1.1373                 0.9403
 IR Inten    --     15.8464                 1.9960                10.1835

                     46                     47                     48
                      A                      A                      A
 Frequencies --   1149.3699              1173.5858              1199.2460
 Red. masses --      1.3589                 2.5900                 1.4119
 Frc consts  --      1.0577                 2.1017                 1.1964
 IR Inten    --      3.8864                27.2486                29.6092

                     49                     50                     51
                      A                      A                      A
 Frequencies --   1211.9245              1223.2337              1244.0904
 Red. masses --      1.3805                 1.4676                 1.2855
 Frc consts  --      1.1946                 1.2939                 1.1723
 IR Inten    --      6.7496                 4.5858                12.4130

                     52                     53                     54
                      A                      A                      A
 Frequencies --   1250.3637              1272.5819              1278.2557
 Red. masses --      1.4438                 1.4559                 1.5012
 Frc consts  --      1.3299                 1.3891                 1.4452
 IR Inten    --      8.0822                 7.6582                 3.9877

                     55                     56                     57
                      A                      A                      A
 Frequencies --   1285.2478              1290.1012              1301.8601
 Red. masses --      1.2515                 1.5180                 1.5457
 Frc consts  --      1.2180                 1.4885                 1.5435
 IR Inten    --      0.7848                10.7188                 2.2724

                     58                     59                     60
                      A                      A                      A
 Frequencies --   1307.3293              1315.2693              1317.7027
 Red. masses --      1.4306                 1.5161                 1.3511
 Frc consts  --      1.4406                 1.5453                 1.3822
 IR Inten    --     19.9388                 4.3272                 0.7329

                     61                     62                     63
                      A                      A                      A
 Frequencies --   1327.6741              1335.8045              1367.4806
 Red. masses --      1.5379                 1.4499                 1.4446
 Frc consts  --      1.5972                 1.5243                 1.5916
 IR Inten    --      0.4517                 1.8697                 9.9171

                     64                     65                     66
                      A                      A                      A
 Frequencies --   1370.6476              1373.5121              1397.4165
 Red. masses --      1.3999                 1.4191                 1.3725
 Frc consts  --      1.5495                 1.5774                 1.5792
 IR Inten    --      7.3464                 9.8195                 8.4973

                     67                     68                     69
                      A                      A                      A
 Frequencies --   1433.0389              1437.0759              1492.1010
 Red. masses --      1.3576                 1.4314                 1.0940
 Frc consts  --      1.6426                 1.7417                 1.4350
 IR Inten    --      9.9381                 6.1043                 4.4417

                     70                     71                     72
                      A                      A                      A
 Frequencies --   1510.5324              1518.2618              1522.1703
 Red. masses --      1.0848                 1.1352                 1.1460
 Frc consts  --      1.4583                 1.5418                 1.5645
 IR Inten    --      1.0604                 3.4033                25.6851

                     73                     74                     75
                      A                      A                      A
 Frequencies --   1522.6775              1534.9860              1554.5314
 Red. masses --      1.1882                 1.0954                 1.0841
 Frc consts  --      1.6231                 1.5207                 1.5435
 IR Inten    --     28.5076                 5.7982                 8.1205

                     76                     77                     78
                      A                      A                      A
 Frequencies --   1697.7661              2939.4491              3044.1358
 Red. masses --      1.0902                 1.0731                 1.0845
 Frc consts  --      1.8515                 5.4628                 5.9210
 IR Inten    --     26.4888                53.9262                 6.4719

                     79                     80                     81
                      A                      A                      A
 Frequencies --   3049.2721              3051.6192              3059.0500
 Red. masses --      1.0617                 1.0842                 1.0637
 Frc consts  --      5.8165                 5.9486                 5.8644
 IR Inten    --     37.2175                34.0529                28.6770

                     82                     83                     84
                      A                      A                      A
 Frequencies --   3067.8652              3077.0371              3083.3342
 Red. masses --      1.0620                 1.0598                 1.0871
 Frc consts  --      5.8889                 5.9122                 6.0892
 IR Inten    --     21.8409                37.2159                14.5982

                     85                     86                     87
                      A                      A                      A
 Frequencies --   3083.5585              3087.4161              3108.0268
 Red. masses --      1.0862                 1.0607                 1.1058
 Frc consts  --      6.0853                 5.9570                 6.2933
 IR Inten    --     43.8960                32.2939                42.7750

                     88                     89                     90
                      A                      A                      A
 Frequencies --   3114.7554              3118.4789              3118.9450
 Red. masses --      1.1069                 1.1060                 1.1036
 Frc consts  --      6.3270                 6.3371                 6.3254
 IR Inten    --      6.7030                40.6341                28.9430

                     91                     92                     93
                      A                      A                      A
 Frequencies --   3132.9041              3137.7092              3144.9664
 Red. masses --      1.1054                 1.0891                 1.0923
 Frc consts  --      6.3922                 6.3177                 6.3655
 IR Inten    --     39.6472                52.2381                42.4024

                     94                     95                     96
                      A                      A                      A
 Frequencies --   3449.1911              3466.9032              3533.8944
 Red. masses --      1.0493                 1.0730                 1.0921
 Frc consts  --      7.3550                 7.5988                 8.0355
 IR Inten    --      2.2051                 1.8792                 1.6240

 - Thermochemistry -
 -------------------
 Temperature   298.150 Kelvin.  Pressure   1.00000 Atm.
 Atom     1 has atomic number  6 and mass  12.00000

 Molecular mass:   196.15756 amu.
 Principal axes and moments of inertia in atomic units:
                           1         2         3
     Eigenvalues --   942.115926457.660476583.06032
           X            0.99996  -0.00440   0.00737
           Y            0.00381   0.99691   0.07847
           Z           -0.00770  -0.07844   0.99689
 This molecule is an asymmetric top.
 Rotational symmetry number  1.
 Warning -- assumption of classical behavior for rotation
           may cause significant error
 Rotational temperatures (Kelvin)      0.09194     0.01341     0.01316
 Rotational constants (GHZ):           1.91563     0.27947     0.27415
 Zero-point vibrational energy     812433.3 (Joules/Mol)
                                  194.17623 (Kcal/Mol)
 Warning -- explicit consideration of  18 degrees of freedom as
           vibrations may cause significant error
 Vibrational temperatures:     42.00    66.09    85.03   131.71   142.18
          (Kelvin)            248.65   317.08   380.07   402.37   450.66
                              514.71   560.43   563.82   643.09   696.99
                              723.19   808.99   849.14  1004.43  1066.14
                             1154.79  1162.38  1166.55  1186.94  1196.23
                             1203.06  1244.05  1282.75  1307.44  1324.05
                             1358.57  1369.85  1378.78  1389.55  1417.19
                             1440.42  1451.37  1478.21  1500.41  1523.27
                             1557.59  1566.44  1597.64  1632.94  1646.38
                             1653.69  1688.53  1725.45  1743.69  1759.96
                             1789.97  1798.99  1830.96  1839.12  1849.18
                             1856.17  1873.09  1880.96  1892.38  1895.88
                             1910.23  1921.92  1967.50  1972.06  1976.18
                             2010.57  2061.82  2067.63  2146.80  2173.32
                             2184.44  2190.06  2190.79  2208.50  2236.62
                             2442.71  4229.21  4379.83  4387.22  4390.60
                             4401.29  4413.97  4427.17  4436.23  4436.55
                             4442.10  4471.76  4481.44  4486.80  4487.47
                             4507.55  4514.46  4524.91  4962.62  4988.10
                             5084.49

 Zero-point correction=                           0.309440 (Hartree/Particle)
 Thermal correction to Energy=                    0.322485
 Thermal correction to Enthalpy=                  0.323429
 Thermal correction to Gibbs Free Energy=         0.268459
 Sum of electronic and zero-point Energies=           -615.627529
 Sum of electronic and thermal Energies=              -615.614484
 Sum of electronic and thermal Enthalpies=            -615.613539
 Sum of electronic and thermal Free Energies=         -615.668509

                     E (Thermal)             CV                S
                      KCal/Mol        Cal/Mol-Kelvin    Cal/Mol-Kelvin
 Total                  202.362             51.769            115.694
 Electronic               0.000              0.000              0.000
 Translational            0.889              2.981             41.726
 Rotational               0.889              2.981             32.060
 Vibrational            200.585             45.808             41.907
 Vibration     1          0.593              1.984              5.884
 Vibration     2          0.595              1.979              4.985
 Vibration     3          0.596              1.974              4.487
 Vibration     4          0.602              1.955              3.627
 Vibration     5          0.604              1.950              3.478
 Vibration     6          0.626              1.876              2.405
 Vibration     7          0.647              1.810              1.956
 Vibration     8          0.671              1.739              1.634
 Vibration     9          0.680              1.711              1.536
 Vibration    10          0.701              1.648              1.345
 Vibration    11          0.733              1.559              1.132
 Vibration    12          0.757              1.493              1.002
 Vibration    13          0.759              1.488              0.993
 Vibration    14          0.806              1.368              0.805
 Vibration    15          0.841              1.285              0.698
 Vibration    16          0.858              1.244              0.652
 Vibration    17          0.918              1.113              0.519
 Vibration    18          0.948              1.053              0.467

 Optimization completed.
    -- Stationary point found.
 Normal termination of Gaussian 16 at Thu Dec 10 11:06:25 2020.

 ----------------------------------------------------------------------
 # B3LYP/6-311++G(d,p) empiricaldispersion=gd3bj scf=xqc pop=npa geom=c
 heck
 ----------------------------------------------------------------------

 ---------------------------------------
 CID_130505195_JID_4964_Energie_neutraal
 ---------------------------------------
 Structure from the checkpoint file:  "JID_4964.chk"
 Charge =  0 Multiplicity = 1

 SCF Done:  E(RB3LYP) =  -616.117204768     A.U. after   14 cycles
 Normal termination of Gaussian 16 at Thu Dec 10 11:10:12 2020.

 ----------------------------------------------------------------------
 # B3LYP/6-311++G(d,p) empiricaldispersion=gd3bj scf=xqc pop=npa geom=c
 heck
 ----------------------------------------------------------------------

 -------------------------------------
 CID_130505195_JID_4964_Energie_kation
 -------------------------------------
 Structure from the checkpoint file:  "JID_4964.chk"
 Charge =  1 Multiplicity = 2

 SCF Done:  E(UB3LYP) =  -615.814364075     A.U. after   28 cycles
 Normal termination of Gaussian 16 at Thu Dec 10 11:20:32 2020.
 Gaussian 16:  ES64L-G16RevA.03 25-Dec-2016

 ----------------------------------------------------------------------
 # B3LYP/6-311++G(d,p) empiricaldispersion=gd3bj scf=xqc pop=npa geom=c
 heck
 ----------------------------------------------------------------------

 ------------------------------------
 CID_130505195_JID_4964_Energie_anion
 ------------------------------------
 Structure from the checkpoint file:  "JID_4964.chk"
 Charge = -1 Multiplicity = 2

                         Standard orientation:
 ---------------------------------------------------------------------
 Center     Atomic      Atomic             Coordinates (Angstroms)
 Number     Number       Type             X           Y           Z
 ---------------------------------------------------------------------
      1          6           0       -3.060836    1.448850   -0.632986
      2          6           0       -1.946007    1.444501    0.455037
      3          6           0       -2.092502    0.015458    1.019811
      4          6           0       -1.570768   -1.055510    0.022841
      5          6           0       -2.698518   -1.017553   -1.053219
      6          6           0       -3.655228    0.033520   -0.452991
      7          8           0       -3.515345   -0.188883    0.963279
      8          6           0       -0.170352   -0.835527   -0.539872
      9          7           0        0.831974   -0.790008    0.521852
     10          6           0        2.177606   -0.580809    0.034250
     11          6           0        3.276358   -0.351352    1.097766
     12          6           0        3.942458    0.694791    0.145072
     13          6           0        2.607436    0.765222   -0.641614
     14          7           0        5.047970    0.239885   -0.694710
     15          1           0       -3.813566    2.214866   -0.427625
     16          1           0       -2.673628    1.613745   -1.643208
     17          1           0       -0.951833    1.659203    0.053011
     18          1           0       -2.155769    2.176518    1.239610
     19          1           0       -1.752858   -0.116516    2.048228
     20          1           0       -1.580435   -2.017150    0.545187
     21          1           0       -2.327484   -0.726512   -2.042366
     22          1           0       -3.191782   -1.988669   -1.148209
     23          1           0       -4.704217   -0.071288   -0.733036
     24          1           0        0.084978   -1.673640   -1.201709
     25          1           0       -0.162283    0.067812   -1.179099
     26          1           0        0.600962   -0.035149    1.167913
     27          1           0        2.427880   -1.428050   -0.616814
     28          1           0        2.857905    0.121551    1.995218
     29          1           0        3.878638   -1.212497    1.406778
     30          1           0        4.258410    1.624950    0.627893
     31          1           0        2.695141    0.805617   -1.731982
     32          1           0        1.975725    1.595673   -0.304486
     33          1           0        5.848967    0.008006   -0.107579
     34          1           0        4.790518   -0.626091   -1.168512
 ---------------------------------------------------------------------

 SCF Done:  E(UB3LYP) =  -616.104000081     A.U. after   30 cycles

 The electronic state is 2-A.
 Alpha  occ. eigenvalues --  -19.02714 -14.20535 -14.19831 -10.12556 -10.12490
 Alpha  occ. eigenvalues --  -10.10270 -10.10217 -10.09942 -10.08111 -10.07508
 Alpha  occ. eigenvalues --  -10.07456 -10.07436 -10.06646 -10.06563  -0.95629
 Alpha  occ. eigenvalues --   -0.82467  -0.79469  -0.71829  -0.69771  -0.66457
 Alpha  occ. eigenvalues --   -0.65290  -0.58072  -0.56430  -0.52894  -0.51057
 Alpha  occ. eigenvalues --   -0.47944  -0.46585  -0.45667  -0.43365  -0.41114
 Alpha  occ. eigenvalues --   -0.39814  -0.38775  -0.37446  -0.36350  -0.34601
 Alpha  occ. eigenvalues --   -0.33108  -0.31590  -0.30657  -0.30131  -0.29746
 Alpha  occ. eigenvalues --   -0.29085  -0.28178  -0.26981  -0.26284  -0.25939
 Alpha  occ. eigenvalues --   -0.25024  -0.24166  -0.22874  -0.22637  -0.20913
 Alpha  occ. eigenvalues --   -0.20824  -0.17072  -0.14437  -0.13398   0.04165
 Alpha virt. eigenvalues --    0.05743   0.06529   0.07627   0.07665   0.07989
 Alpha virt. eigenvalues --    0.09180   0.09469   0.09777   0.10300   0.10489
 Alpha virt. eigenvalues --    0.11249   0.11704   0.12164   0.12755   0.13239

  Beta  occ. eigenvalues --  -19.02711 -14.20525 -14.19792 -10.12546 -10.12485
  Beta  occ. eigenvalues --  -10.10261 -10.10206 -10.09931 -10.08109 -10.07493
  Beta  occ. eigenvalues --  -10.07435 -10.07415 -10.06627 -10.06545  -0.95618
  Beta  occ. eigenvalues --   -0.82443  -0.79415  -0.71798  -0.69734  -0.66428
  Beta  occ. eigenvalues --   -0.65262  -0.58037  -0.56385  -0.52846  -0.51007
  Beta  occ. eigenvalues --   -0.47904  -0.46549  -0.45620  -0.43316  -0.41061
  Beta  occ. eigenvalues --   -0.39776  -0.38750  -0.37412  -0.36311  -0.34576
  Beta  occ. eigenvalues --   -0.33072  -0.31557  -0.30630  -0.30089  -0.29714
  Beta  occ. eigenvalues --   -0.29057  -0.28151  -0.26953  -0.26250  -0.25914
  Beta  occ. eigenvalues --   -0.25000  -0.24139  -0.22840  -0.22616  -0.20883
  Beta  occ. eigenvalues --   -0.20798  -0.17059  -0.14397  -0.13381
  Beta virt. eigenvalues --    0.06230   0.06810   0.07187   0.07998   0.08261
  Beta virt. eigenvalues --    0.08497   0.09513   0.09913   0.10220   0.10579
  Beta virt. eigenvalues --    0.10763   0.11549   0.11923   0.12505   0.12890

 Mulliken charges and spin densities:
               1          2
     1  C    0.973645  -1.583967
     2  C    0.071332  -0.421792
     3  C   -0.350876   0.127300
     4  C    0.456873   0.072968
     5  C    0.834811  -1.630387
     6  C   -1.020849   1.523368
     7  O   -0.134747  -0.031536
     8  C   -0.318112  -0.667336
     9  N    0.216113  -0.096361
    10  C   -2.169200   2.088417
    11  C    1.333840  -1.960898
    12  C   -1.078484   1.196752
    13  C    1.692852  -2.240155
    14  N   -0.209955  -0.127104
    15  H   -0.018166   0.181661
    16  H   -0.261381   0.405354
    17  H    0.067820   0.011453
    18  H   -0.307506   0.501342
    19  H   -0.084674   0.328816
    20  H    0.135525   0.077212
    21  H   -0.230018   0.376837
    22  H    0.024751   0.121910
    23  H   -0.546401   0.798467
    24  H    0.104602   0.033643
    25  H    0.243827  -0.081612
    26  H    0.551079  -0.387236
    27  H   -0.326201   0.504486
    28  H   -0.379868   0.486936
    29  H    0.028968   0.150294
    30  H   -0.167568   0.382449
    31  H    0.083909   0.081778
    32  H   -0.118843   0.238835
    33  H   -0.166340   0.391441
    34  H    0.069240   0.146667
 Sum of Mulliken charges =  -1.00000   1.00000

 Dipole moment (field-independent basis, Debye):
    X=             -2.0140    Y=             -1.6027    Z=              0.1486  Tot=              2.5781
 Quadrupole moment (field-independent basis, Debye-Ang):
   XX=           -196.4697   YY=           -124.3202   ZZ=           -124.4932
   XY=              1.3028   XZ=             -0.6805   YZ=              1.0746

 Summary of Natural Population Analysis:

                                       Natural Population
                Natural  -----------------------------------------------
    Atom  No    Charge         Core      Valence    Rydberg      Total
 -----------------------------------------------------------------------
      C    1   -0.20162      0.99962     2.19359    0.00840     3.20162
      C    2   -0.20897      0.99962     2.19966    0.00968     3.20897
      C    3    0.05934      0.99955     1.92568    0.01543     2.94066
      C    4   -0.12227      0.99958     2.11118    0.01151     3.12227
      C    5   -0.19880      0.99961     2.19003    0.00916     3.19880
      C    6    0.05688      0.99958     1.92725    0.01629     2.94312
      O    7   -0.30368      0.99991     3.29604    0.00773     4.30368
      C    8   -0.08519      0.99959     2.07595    0.00965     3.08519
      N    9   -0.33381      0.99972     2.82351    0.01058     3.83381
      C   10   -0.00834      0.99960     1.99594    0.01280     3.00834
      C   11   -0.19762      0.99961     2.18840    0.00960     3.19762
      C   12   -0.01463      0.99963     2.00032    0.01469     3.01463
      C   13   -0.20141      0.99961     2.19444    0.00737     3.20141
      N   14   -0.41864      0.99977     2.90801    0.01086     3.91864
      H   15    0.10221      0.00000     0.39644    0.00135     0.39779
      H   16    0.10022      0.00000     0.39840    0.00138     0.39978
      H   17    0.10217      0.00000     0.39626    0.00157     0.39783
      H   18    0.10373      0.00000     0.39487    0.00140     0.39627
      H   19    0.09832      0.00000     0.40048    0.00120     0.40168
      H   20    0.10391      0.00000     0.39446    0.00163     0.39609
      H   21    0.10001      0.00000     0.39868    0.00130     0.39999
      H   22    0.10276      0.00000     0.39617    0.00107     0.39724
      H   23    0.09646      0.00000     0.40214    0.00140     0.40354
      H   24    0.09437      0.00000     0.40415    0.00148     0.40563
      H   25    0.08154      0.00000     0.41653    0.00193     0.41846
      H   26    0.16849      0.00000     0.32736    0.00414     0.33151
      H   27    0.09036      0.00000     0.40802    0.00161     0.40964
      H   28    0.09849      0.00000     0.40004    0.00147     0.40151
      H   29    0.09914      0.00000     0.39927    0.00159     0.40086
      H   30    0.08949      0.00000     0.40934    0.00117     0.41051
      H   31    0.10095      0.00000     0.39791    0.00114     0.39905
      H   32    0.10027      0.00000     0.39807    0.00165     0.39973
      H   33    0.17537      0.00000     0.32219    0.00244     0.32463
      H   34    0.17049      0.00000     0.32721    0.00230     0.32951
 =======================================================================
   * Total *    0.00000     13.99500    39.81802    0.18698    54.00000

 Normal termination of Gaussian 16 at Thu Dec 10 11:31:10 2020.
