 Gaussian 16, Revision A.03,

 -----------------------------------------------------------
 # opt freq B3LYP/6-31G(d) empiricaldispersion=gd3bj scf=xqc
 -----------------------------------------------------------

 -------------------------------
 CID_137392200_JID_1743_neutraal
 -------------------------------
 Symbolic Z-matrix:
 Charge =  0 Multiplicity = 1

 SCF Done:  E(RB3LYP) =  -464.691912746     A.U. after   14 cycles
 SCF Done:  E(RB3LYP) =  -464.694280466     A.U. after   12 cycles
 SCF Done:  E(RB3LYP) =  -464.693526850     A.U. after   12 cycles
 SCF Done:  E(RB3LYP) =  -464.696764643     A.U. after   12 cycles
 SCF Done:  E(RB3LYP) =  -464.697751417     A.U. after   12 cycles
 SCF Done:  E(RB3LYP) =  -464.698234299     A.U. after   11 cycles
 SCF Done:  E(RB3LYP) =  -464.698354517     A.U. after   11 cycles
 SCF Done:  E(RB3LYP) =  -464.698371166     A.U. after   10 cycles
 SCF Done:  E(RB3LYP) =  -464.698376755     A.U. after    9 cycles
 SCF Done:  E(RB3LYP) =  -464.698377847     A.U. after    8 cycles
 SCF Done:  E(RB3LYP) =  -464.698378095     A.U. after    7 cycles
 Optimization completed.
    -- Stationary point found.
 Normal termination of Gaussian 16 at Tue Dec  8 21:06:01 2020.

 --------------------------------------------------------------------
 #N Geom=AllCheck Guess=TCheck SCRF=Check GenChk RB3LYP/6-31G(d) Freq
 --------------------------------------------------------------------

 Structure from the checkpoint file:  "JID_1743.chk"
 -------------------------------
 CID_137392200_JID_1743_neutraal
 -------------------------------
 Charge =  0 Multiplicity = 1

 SCF Done:  E(RB3LYP) =  -464.698378095     A.U. after    1 cycles

  Exact polarizability: 144.921   7.542 116.573   1.262  -5.823  78.709
 Approx polarizability: 217.568  10.288 166.472   1.288 -12.628 122.039

                      1                      2                      3
                      A                      A                      A
 Frequencies --     84.2709               118.6476               142.2483
 Red. masses --      3.2988                 3.7015                 2.2050
 Frc consts  --      0.0138                 0.0307                 0.0263
 IR Inten    --      0.0899                 2.6572                 1.6265

                      4                      5                      6
                      A                      A                      A
 Frequencies --    160.0531               170.2758               209.6351
 Red. masses --      2.3452                 1.9076                 2.3444
 Frc consts  --      0.0354                 0.0326                 0.0607
 IR Inten    --      1.3454                 0.3750                 0.4126

                      7                      8                      9
                      A                      A                      A
 Frequencies --    233.6560               250.5363               273.4450
 Red. masses --      1.8363                 2.0680                 2.2917
 Frc consts  --      0.0591                 0.0765                 0.1010
 IR Inten    --      0.1328                 0.6426                 0.8191

                     10                     11                     12
                      A                      A                      A
 Frequencies --    276.9425               317.4256               402.0760
 Red. masses --      1.2295                 2.1261                 2.5300
 Frc consts  --      0.0556                 0.1262                 0.2410
 IR Inten    --      1.4369                 1.3623                 1.5118

                     13                     14                     15
                      A                      A                      A
 Frequencies --    441.2027               464.7437               574.5991
 Red. masses --      2.5837                 3.4983                 3.3750
 Frc consts  --      0.2963                 0.4452                 0.6565
 IR Inten    --      3.4115                 3.0300                 1.8413

                     16                     17                     18
                      A                      A                      A
 Frequencies --    587.8791               658.8265               676.8804
 Red. masses --      3.7273                 3.3738                 2.3953
 Frc consts  --      0.7590                 0.8628                 0.6466
 IR Inten    --      0.3737                 6.6312                 4.1264

                     19                     20                     21
                      A                      A                      A
 Frequencies --    696.4170               724.9110               831.2600
 Red. masses --      3.6003                 2.2864                 1.2908
 Frc consts  --      1.0288                 0.7079                 0.5255
 IR Inten    --      1.4480                 3.3438                24.7065

                     22                     23                     24
                      A                      A                      A
 Frequencies --    881.7738               909.5659               934.6795
 Red. masses --      2.2032                 1.9011                 1.3742
 Frc consts  --      1.0093                 0.9267                 0.7074
 IR Inten    --      3.5799                 7.9458                28.0372

                     25                     26                     27
                      A                      A                      A
 Frequencies --    969.9312               981.2582              1022.2096
 Red. masses --      2.4086                 1.6081                 3.6840
 Frc consts  --      1.3351                 0.9123                 2.2680
 IR Inten    --      9.5852                15.6075                21.3553

                     28                     29                     30
                      A                      A                      A
 Frequencies --   1030.4969              1045.8097              1068.8748
 Red. masses --      1.1936                 1.3786                 1.4632
 Frc consts  --      0.7468                 0.8884                 0.9850
 IR Inten    --     12.2198                 6.1642                 2.8009

                     31                     32                     33
                      A                      A                      A
 Frequencies --   1075.9375              1089.2834              1108.7022
 Red. masses --      1.4791                 1.5925                 3.3509
 Frc consts  --      1.0089                 1.1133                 2.4268
 IR Inten    --      6.6099                13.9664                18.9505

                     34                     35                     36
                      A                      A                      A
 Frequencies --   1129.5236              1147.8039              1210.5901
 Red. masses --      2.6806                 2.6446                 2.1449
 Frc consts  --      2.0150                 2.0528                 1.8520
 IR Inten    --     78.0484                18.8662               121.2706

                     37                     38                     39
                      A                      A                      A
 Frequencies --   1228.4138              1252.4980              1260.5095
 Red. masses --      1.3723                 1.6221                 2.0503
 Frc consts  --      1.2200                 1.4993                 1.9194
 IR Inten    --     22.9434                13.2764                 0.1844

                     40                     41                     42
                      A                      A                      A
 Frequencies --   1325.2186              1348.9590              1381.5729
 Red. masses --      1.3957                 1.3131                 1.5162
 Frc consts  --      1.4442                 1.4078                 1.7051
 IR Inten    --      0.1856                 0.4464                 3.9237

                     43                     44                     45
                      A                      A                      A
 Frequencies --   1407.9283              1440.4268              1446.8076
 Red. masses --      1.5200                 1.2404                 1.2806
 Frc consts  --      1.7752                 1.5164                 1.5794
 IR Inten    --     14.6116                 2.8309                 3.2175

                     46                     47                     48
                      A                      A                      A
 Frequencies --   1476.5010              1509.0824              1512.4212
 Red. masses --      1.2614                 1.0594                 1.0965
 Frc consts  --      1.6202                 1.4215                 1.4778
 IR Inten    --      4.0467                 3.5622                 4.1311

                     49                     50                     51
                      A                      A                      A
 Frequencies --   1514.9837              1526.0570              1535.2269
 Red. masses --      1.0560                 1.0517                 1.0556
 Frc consts  --      1.4281                 1.4431                 1.4659
 IR Inten    --      8.3493                11.9829                 2.2919

                     52                     53                     54
                      A                      A                      A
 Frequencies --   1549.5286              1678.2405              1712.5852
 Red. masses --      1.0956                 6.3530                 4.8571
 Frc consts  --      1.5499                10.5424                 8.3933
 IR Inten    --      1.5006                 4.7450                 1.8450

                     55                     56                     57
                      A                      A                      A
 Frequencies --   1733.2045              3025.0313              3032.6779
 Red. masses --      7.4202                 1.0447                 1.0711
 Frc consts  --     13.1331                 5.6323                 5.8040
 IR Inten    --     33.8839                55.1654                56.7811

                     58                     59                     60
                      A                      A                      A
 Frequencies --   3042.0033              3045.7387              3072.5485
 Red. masses --      1.0404                 1.0682                 1.0943
 Frc consts  --      5.6724                 5.8382                 6.0866
 IR Inten    --     34.0859                32.6235                26.9358

                     61                     62                     63
                      A                      A                      A
 Frequencies --   3087.5073              3119.8206              3130.3981
 Red. masses --      1.0999                 1.0974                 1.0971
 Frc consts  --      6.1777                 6.2935                 6.3343
 IR Inten    --     24.0553                47.1983                10.7082

                     64                     65                     66
                      A                      A                      A
 Frequencies --   3137.2039              3140.3565              3156.9136
 Red. masses --      1.0854                 1.0946                 1.0978
 Frc consts  --      6.2942                 6.3602                 6.4462
 IR Inten    --     28.9404                13.2902                 7.7340

                     67                     68                     69
                      A                      A                      A
 Frequencies --   3171.7759              3176.8595              3251.5690
 Red. masses --      1.0619                 1.0880                 1.1165
 Frc consts  --      6.2942                 6.4699                 6.9550
 IR Inten    --      6.8959                15.5689                16.5233

 - Thermochemistry -
 -------------------
 Temperature   298.150 Kelvin.  Pressure   1.00000 Atm.
 Atom     1 has atomic number  6 and mass  12.00000

 Molecular mass:   150.10447 amu.
 Principal axes and moments of inertia in atomic units:
                           1         2         3
     Eigenvalues --  1333.624041818.708672753.98110
           X            0.99762   0.06879   0.00478
           Y           -0.06874   0.99760  -0.00857
           Z           -0.00536   0.00823   0.99995
 This molecule is an asymmetric top.
 Rotational symmetry number  1.
 Warning -- assumption of classical behavior for rotation
           may cause significant error
 Rotational temperatures (Kelvin)      0.06495     0.04762     0.03145
 Rotational constants (GHZ):           1.35326     0.99232     0.65532
 Zero-point vibrational energy     570217.6 (Joules/Mol)
                                  136.28528 (Kcal/Mol)
 Warning -- explicit consideration of  16 degrees of freedom as
           vibrations may cause significant error
 Vibrational temperatures:    121.25   170.71   204.66   230.28   244.99
          (Kelvin)            301.62   336.18   360.47   393.43   398.46
                              456.70   578.50   634.79   668.66   826.72
                              845.83   947.90   973.88  1001.99  1042.99
                             1196.00  1268.68  1308.66  1344.80  1395.51
                             1411.81  1470.73  1482.66  1504.69  1537.87
                             1548.03  1567.24  1595.18  1625.13  1651.43
                             1741.77  1767.41  1802.07  1813.59  1906.69
                             1940.85  1987.78  2025.69  2072.45  2081.63
                             2124.36  2171.23  2176.04  2179.72  2195.66
                             2208.85  2229.43  2414.61  2464.03  2493.69
                             4352.35  4363.35  4376.76  4382.14  4420.71
                             4442.23  4488.73  4503.94  4513.74  4518.27
                             4542.09  4563.48  4570.79  4678.28

 Zero-point correction=                           0.217184 (Hartree/Particle)
 Thermal correction to Energy=                    0.228556
 Thermal correction to Enthalpy=                  0.229500
 Thermal correction to Gibbs Free Energy=         0.180805
 Sum of electronic and zero-point Energies=           -464.481194
 Sum of electronic and thermal Energies=              -464.469822
 Sum of electronic and thermal Enthalpies=            -464.468878
 Sum of electronic and thermal Free Energies=         -464.517573

                     E (Thermal)             CV                S
                      KCal/Mol        Cal/Mol-Kelvin    Cal/Mol-Kelvin
 Total                  143.421             43.276            102.488
 Electronic               0.000              0.000              0.000
 Translational            0.889              2.981             40.929
 Rotational               0.889              2.981             30.280
 Vibrational            141.644             37.315             31.279
 Vibration     1          0.601              1.960              3.789
 Vibration     2          0.609              1.934              3.122
 Vibration     3          0.616              1.911              2.773
 Vibration     4          0.622              1.891              2.549
 Vibration     5          0.625              1.879              2.432
 Vibration     6          0.642              1.826              2.047
 Vibration     7          0.654              1.789              1.851
 Vibration     8          0.663              1.762              1.727
 Vibration     9          0.676              1.722              1.574
 Vibration    10          0.678              1.716              1.552
 Vibration    11          0.704              1.640              1.323
 Vibration    12          0.768              1.466              0.955
 Vibration    13          0.801              1.380              0.823
 Vibration    14          0.822              1.328              0.752
 Vibration    15          0.931              1.086              0.495
 Vibration    16          0.945              1.058              0.471

                           ! Non-Optimized Parameters !
 Normal termination of Gaussian 16 at Tue Dec  8 21:11:41 2020.

 ----------------------------------------------------------------------
 # B3LYP/6-311++G(d,p) empiricaldispersion=gd3bj scf=xqc pop=npa geom=c
 heck
 ----------------------------------------------------------------------

 ---------------------------------------
 CID_137392200_JID_1743_Energie_neutraal
 ---------------------------------------
 Structure from the checkpoint file:  "JID_1743.chk"
 Charge =  0 Multiplicity = 1

 SCF Done:  E(RB3LYP) =  -464.826125896     A.U. after   15 cycles
 Normal termination of Gaussian 16 at Tue Dec  8 21:15:22 2020.

 ----------------------------------------------------------------------
 # B3LYP/6-311++G(d,p) empiricaldispersion=gd3bj scf=xqc pop=npa geom=c
 heck
 ----------------------------------------------------------------------

 -------------------------------------
 CID_137392200_JID_1743_Energie_kation
 -------------------------------------
 Structure from the checkpoint file:  "JID_1743.chk"
 Charge =  1 Multiplicity = 2

 SCF Done:  E(UB3LYP) =  -464.553533803     A.U. after   21 cycles
 Normal termination of Gaussian 16 at Tue Dec  8 21:21:16 2020.
 Gaussian 16:  ES64L-G16RevA.03 25-Dec-2016

 ----------------------------------------------------------------------
 # B3LYP/6-311++G(d,p) empiricaldispersion=gd3bj scf=xqc pop=npa geom=c
 heck
 ----------------------------------------------------------------------

 ------------------------------------
 CID_137392200_JID_1743_Energie_anion
 ------------------------------------
 Structure from the checkpoint file:  "JID_1743.chk"
 Charge = -1 Multiplicity = 2

                         Standard orientation:
 ---------------------------------------------------------------------
 Center     Atomic      Atomic             Coordinates (Angstroms)
 Number     Number       Type             X           Y           Z
 ---------------------------------------------------------------------
      1          6           0        1.804858    2.158899    0.809583
      2          6           0        2.167345    0.818619    0.242926
      3          6           0        1.320498   -0.188961   -0.034036
      4          6           0       -0.146106   -0.288264    0.043006
      5          6           0       -1.064081    0.634416   -0.340382
      6          6           0       -0.692380    1.913733   -1.053240
      7          6           0       -2.509488    0.416829   -0.185946
      8          6           0       -3.121121   -0.211441    0.827717
      9          6           0       -0.404452   -1.747494    0.362758
     10          6           0        0.764656   -2.394221   -0.392869
     11          8           0        1.838916   -1.442478   -0.326374
     12          1           0        0.788559    2.164530    1.212787
     13          1           0        1.876453    2.974040    0.075421
     14          1           0        2.490847    2.413083    1.627452
     15          1           0        3.226245    0.593871    0.133891
     16          1           0       -1.364739    2.060425   -1.908285
     17          1           0       -0.801471    2.798193   -0.413599
     18          1           0        0.334545    1.883311   -1.421102
     19          1           0       -3.130541    0.862935   -0.964298
     20          1           0       -4.201901   -0.315708    0.855344
     21          1           0       -2.569050   -0.618702    1.669486
     22          1           0       -1.382400   -2.095946    0.025183
     23          1           0       -0.318172   -1.951139    1.438233
     24          1           0        0.500798   -2.572976   -1.444378
     25          1           0        1.121122   -3.328788    0.047770
 ---------------------------------------------------------------------

 SCF Done:  E(UB3LYP) =  -464.820834105     A.U. after   32 cycles

 The electronic state is 2-A.
 Alpha  occ. eigenvalues --  -18.99560 -10.08587 -10.06854 -10.03349 -10.02977
 Alpha  occ. eigenvalues --  -10.02200 -10.01344 -10.01023 -10.00757 -10.00324
 Alpha  occ. eigenvalues --   -9.99694  -0.91572  -0.67671  -0.64383  -0.62035
 Alpha  occ. eigenvalues --   -0.58453  -0.57443  -0.50323  -0.47883  -0.45081
 Alpha  occ. eigenvalues --   -0.41032  -0.36490  -0.35260  -0.32941  -0.31162
 Alpha  occ. eigenvalues --   -0.30667  -0.28852  -0.27734  -0.27215  -0.26581
 Alpha  occ. eigenvalues --   -0.24845  -0.24334  -0.22908  -0.21785  -0.21686
 Alpha  occ. eigenvalues --   -0.20129  -0.19646  -0.17050  -0.14223  -0.09300
 Alpha  occ. eigenvalues --   -0.06099   0.05868
 Alpha virt. eigenvalues --    0.08935   0.09329   0.09839   0.10451   0.11583
 Alpha virt. eigenvalues --    0.12014   0.12281   0.12551   0.13315   0.14065
 Alpha virt. eigenvalues --    0.14447   0.15422   0.15824   0.16216   0.16866

  Beta  occ. eigenvalues --  -18.99533 -10.08569 -10.06863 -10.03361 -10.02985
  Beta  occ. eigenvalues --  -10.02207 -10.01096 -10.00968 -10.00515 -10.00129
  Beta  occ. eigenvalues --   -9.99352  -0.91494  -0.67178  -0.64192  -0.61683
  Beta  occ. eigenvalues --   -0.58093  -0.57273  -0.50104  -0.47687  -0.44515
  Beta  occ. eigenvalues --   -0.40723  -0.36323  -0.35048  -0.32779  -0.30953
  Beta  occ. eigenvalues --   -0.30421  -0.28673  -0.27522  -0.27015  -0.26392
  Beta  occ. eigenvalues --   -0.24743  -0.24246  -0.22769  -0.21623  -0.21466
  Beta  occ. eigenvalues --   -0.19983  -0.19438  -0.16810  -0.12793  -0.08213
  Beta  occ. eigenvalues --   -0.04708
  Beta virt. eigenvalues --    0.08829   0.09421   0.09712   0.10469   0.11205
  Beta virt. eigenvalues --    0.11588   0.12143   0.12278   0.12576   0.13317
  Beta virt. eigenvalues --    0.14045   0.14434   0.15423   0.15868   0.16597

 Mulliken charges and spin densities:
               1          2
     1  C   -0.792919  -0.003503
     2  C   -0.157854  -0.044555
     3  C   -0.634093  -0.141136
     4  C    1.183049   0.464231
     5  C    0.229008   0.168679
     6  C   -0.583413  -0.128488
     7  C   -0.035258   0.057268
     8  C   -0.637928   0.216703
     9  C   -0.431432  -0.008223
    10  C   -0.020575  -0.361168
    11  O   -0.123055   0.034924
    12  H    0.131349   0.002519
    13  H    0.113325   0.007707
    14  H    0.107638   0.007636
    15  H    0.146135  -0.012032
    16  H    0.009310   0.113949
    17  H    0.140897  -0.006761
    18  H    0.105302   0.029296
    19  H    0.062202   0.067827
    20  H   -0.022328   0.081064
    21  H    0.125139  -0.019040
    22  H    0.074903   0.073875
    23  H    0.030739   0.122395
    24  H    0.115938   0.000716
    25  H   -0.136077   0.276119
 Sum of Mulliken charges =  -1.00000   1.00000

 Dipole moment (field-independent basis, Debye):
    X=              1.7305    Y=              0.9490    Z=             -0.6883  Tot=              2.0902
 Quadrupole moment (field-independent basis, Debye-Ang):
   XX=           -106.4512   YY=            -90.1877   ZZ=            -81.1822
   XY=              2.0503   XZ=              2.4068   YZ=              2.8186

 Summary of Natural Population Analysis:

                                       Natural Population
                Natural  -----------------------------------------------
    Atom  No    Charge         Core      Valence    Rydberg      Total
 -----------------------------------------------------------------------
      C    1   -0.29662      0.99966     2.29228    0.00467     3.29662
      C    2   -0.11193      0.99950     2.10391    0.00852     3.11193
      C    3    0.14899      0.99935     1.83480    0.01686     2.85101
      C    4   -0.00877      0.99942     1.99991    0.00943     3.00877
      C    5    0.01955      0.99944     1.97047    0.01054     2.98045
      C    6   -0.29167      0.99964     2.28681    0.00522     3.29167
      C    7   -0.10512      0.99955     2.09322    0.01235     3.10512
      C    8   -0.12974      0.99959     2.12170    0.00845     3.12974
      C    9   -0.21219      0.99962     2.20310    0.00947     3.21219
      C   10   -0.00470      0.99960     1.99240    0.01271     3.00470
      O   11   -0.28993      0.99987     3.28136    0.00870     4.28993
      H   12    0.10476      0.00000     0.39424    0.00100     0.39524
      H   13    0.09155      0.00000     0.40693    0.00152     0.40845
      H   14    0.09142      0.00000     0.40750    0.00109     0.40858
      H   15    0.08699      0.00000     0.41141    0.00161     0.41301
      H   16    0.09480      0.00000     0.40377    0.00143     0.40520
      H   17    0.09611      0.00000     0.40252    0.00137     0.40389
      H   18    0.10421      0.00000     0.39466    0.00113     0.39579
      H   19    0.08364      0.00000     0.41493    0.00142     0.41636
      H   20    0.08070      0.00000     0.41819    0.00111     0.41930
      H   21    0.08363      0.00000     0.41536    0.00101     0.41637
      H   22    0.11120      0.00000     0.38779    0.00101     0.38880
      H   23    0.09620      0.00000     0.40223    0.00157     0.40380
      H   24    0.07489      0.00000     0.42380    0.00131     0.42511
      H   25    0.08203      0.00000     0.41603    0.00194     0.41797
 =======================================================================
   * Total *   -0.00000     10.99524    29.87933    0.12542    41.00000

 Normal termination of Gaussian 16 at Tue Dec  8 21:31:12 2020.
