 Gaussian 16, Revision A.03,

 -----------------------------------------------------------
 # opt freq B3LYP/6-31G(d) empiricaldispersion=gd3bj scf=xqc
 -----------------------------------------------------------

 ------------------------------
 CID_18990755_JID_1442_neutraal
 ------------------------------
 Symbolic Z-matrix:
 Charge =  0 Multiplicity = 1

 SCF Done:  E(RB3LYP) =  -485.609117108     A.U. after   13 cycles
 SCF Done:  E(RB3LYP) =  -485.611705254     A.U. after   11 cycles
 SCF Done:  E(RB3LYP) =  -485.612071186     A.U. after   10 cycles
 SCF Done:  E(RB3LYP) =  -485.612521916     A.U. after   10 cycles
 SCF Done:  E(RB3LYP) =  -485.612776128     A.U. after   13 cycles
 SCF Done:  E(RB3LYP) =  -485.613628807     A.U. after   10 cycles
 SCF Done:  E(RB3LYP) =  -485.614678209     A.U. after   11 cycles
 SCF Done:  E(RB3LYP) =  -485.615272705     A.U. after   10 cycles
 SCF Done:  E(RB3LYP) =  -485.615686992     A.U. after   10 cycles
 SCF Done:  E(RB3LYP) =  -485.615989278     A.U. after   11 cycles
 SCF Done:  E(RB3LYP) =  -485.617516226     A.U. after    7 cycles
 SCF Done:  E(RB3LYP) =  -485.617516631     A.U. after    7 cycles
 SCF Done:  E(RB3LYP) =  -485.617516769     A.U. after    7 cycles
 SCF Done:  E(RB3LYP) =  -485.617516853     A.U. after    7 cycles
 SCF Done:  E(RB3LYP) =  -485.617516891     A.U. after    6 cycles
 SCF Done:  E(RB3LYP) =  -485.617516955     A.U. after    6 cycles
 Optimization completed on the basis of negligible forces.
    -- Stationary point found.
 Normal termination of Gaussian 16 at Thu Dec 17 20:25:26 2020.

 --------------------------------------------------------------------
 #N Geom=AllCheck Guess=TCheck SCRF=Check GenChk RB3LYP/6-31G(d) Freq
 --------------------------------------------------------------------

 Structure from the checkpoint file:  "JID_1442.chk"
 ------------------------------
 CID_18990755_JID_1442_neutraal
 ------------------------------
 Charge =  0 Multiplicity = 1

 SCF Done:  E(RB3LYP) =  -485.617516955     A.U. after    1 cycles

  Exact polarizability: 108.854  -1.689 110.550   0.419   1.344  99.834
 Approx polarizability: 142.754  -4.784 144.170   2.347   1.697 141.824

                      1                      2                      3
                      A                      A                      A
 Frequencies --     19.0192                44.0472                54.0847
 Red. masses --      3.3409                 3.3715                 3.6534
 Frc consts  --      0.0007                 0.0039                 0.0063
 IR Inten    --      0.8319                 0.1532                 0.3014

                      4                      5                      6
                      A                      A                      A
 Frequencies --     69.3662                85.6485                92.7193
 Red. masses --      2.2596                 3.1636                 2.5915
 Frc consts  --      0.0064                 0.0137                 0.0131
 IR Inten    --      1.0984                 2.9197                 5.0287

                      7                      8                      9
                      A                      A                      A
 Frequencies --     98.1445               147.8254               196.6656
 Red. masses --      2.6738                 2.0032                 1.8281
 Frc consts  --      0.0152                 0.0258                 0.0417
 IR Inten    --      0.1274                 1.0035                 0.2026

                     10                     11                     12
                      A                      A                      A
 Frequencies --    255.2372               302.7515               308.8458
 Red. masses --      1.5015                 1.2550                 1.6240
 Frc consts  --      0.0576                 0.0678                 0.0913
 IR Inten    --      1.3845                81.8605                41.1577

                     13                     14                     15
                      A                      A                      A
 Frequencies --    311.6668               316.5808               392.7488
 Red. masses --      1.2162                 1.9009                 2.1971
 Frc consts  --      0.0696                 0.1123                 0.1997
 IR Inten    --     26.4582                 4.7717                 1.3168

                     16                     17                     18
                      A                      A                      A
 Frequencies --    410.9720               431.7772               490.0241
 Red. masses --      2.0914                 2.6760                 1.8472
 Frc consts  --      0.2081                 0.2939                 0.2613
 IR Inten    --      1.7429                15.2841                 5.9428

                     19                     20                     21
                      A                      A                      A
 Frequencies --    509.4988               644.1853               787.3603
 Red. masses --      2.8021                 2.2577                 1.5064
 Frc consts  --      0.4286                 0.5520                 0.5502
 IR Inten    --      2.6342                10.1770                30.4404

                     22                     23                     24
                      A                      A                      A
 Frequencies --    802.3349               809.8267               827.6167
 Red. masses --      3.0484                 1.4641                 1.1067
 Frc consts  --      1.1562                 0.5657                 0.4466
 IR Inten    --      7.9275                34.6838                 9.3696

                     25                     26                     27
                      A                      A                      A
 Frequencies --    846.7933               882.9767               889.8741
 Red. masses --      2.0705                 2.3408                 1.5223
 Frc consts  --      0.8747                 1.0753                 0.7102
 IR Inten    --      3.8631                 3.9581                 0.7613

                     28                     29                     30
                      A                      A                      A
 Frequencies --    899.8630               954.7646               961.7446
 Red. masses --      2.2881                 1.4167                 1.8305
 Frc consts  --      1.0916                 0.7609                 0.9975
 IR Inten    --     10.8984                 1.4523                 4.2189

                     31                     32                     33
                      A                      A                      A
 Frequencies --   1044.5057              1049.6865              1054.4320
 Red. masses --      2.6009                 1.7516                 1.6255
 Frc consts  --      1.6719                 1.1371                 1.0648
 IR Inten    --      4.4720                 1.1856                 0.5347

                     34                     35                     36
                      A                      A                      A
 Frequencies --   1074.1003              1090.4019              1099.3481
 Red. masses --      1.6557                 2.5374                 1.8714
 Frc consts  --      1.1255                 1.7775                 1.3325
 IR Inten    --      3.9221               101.2201                 0.2058

                     37                     38                     39
                      A                      A                      A
 Frequencies --   1125.1630              1133.3845              1147.8127
 Red. masses --      2.1797                 1.4608                 1.1328
 Frc consts  --      1.6259                 1.1056                 0.8793
 IR Inten    --     19.8654                 9.8846                 1.5977

                     40                     41                     42
                      A                      A                      A
 Frequencies --   1151.3217              1162.4735              1197.0091
 Red. masses --      1.2534                 1.6639                 2.2980
 Frc consts  --      0.9789                 1.3248                 1.9400
 IR Inten    --      0.1304                 6.6584                19.8862

                     43                     44                     45
                      A                      A                      A
 Frequencies --   1231.4382              1287.4845              1298.3730
 Red. masses --      1.5973                 1.3061                 1.2756
 Frc consts  --      1.4271                 1.2756                 1.2670
 IR Inten    --      1.6803                 3.1006                 5.4659

                     46                     47                     48
                      A                      A                      A
 Frequencies --   1309.7571              1313.5700              1363.2145
 Red. masses --      1.2296                 1.2326                 1.5620
 Frc consts  --      1.2428                 1.2531                 1.7102
 IR Inten    --      1.0821                 0.3053                 0.3515

                     49                     50                     51
                      A                      A                      A
 Frequencies --   1373.1776              1380.1484              1387.2921
 Red. masses --      1.3559                 1.4795                 1.2247
 Frc consts  --      1.5064                 1.6605                 1.3887
 IR Inten    --      0.9645                19.3400                 6.3299

                     52                     53                     54
                      A                      A                      A
 Frequencies --   1399.6626              1406.6054              1413.1265
 Red. masses --      1.4330                 1.4545                 1.4321
 Frc consts  --      1.6540                 1.6955                 1.6850
 IR Inten    --      0.6857                 2.4115                 0.9120

                     55                     56                     57
                      A                      A                      A
 Frequencies --   1421.4257              1434.0965              1454.7908
 Red. masses --      1.4107                 1.2098                 1.2807
 Frc consts  --      1.6794                 1.4659                 1.5970
 IR Inten    --      8.5372                28.2664                23.4026

                     58                     59                     60
                      A                      A                      A
 Frequencies --   1482.8714              1500.9747              1509.6219
 Red. masses --      1.1971                 1.1726                 1.0814
 Frc consts  --      1.5510                 1.5564                 1.4521
 IR Inten    --      2.8165                 5.1620                 1.5326

                     61                     62                     63
                      A                      A                      A
 Frequencies --   1512.3940              1516.1439              1524.6580
 Red. masses --      1.1003                 1.0953                 1.0967
 Frc consts  --      1.4828                 1.4834                 1.5021
 IR Inten    --      9.5077                 1.6742                 5.4119

                     64                     65                     66
                      A                      A                      A
 Frequencies --   1528.1602              1529.5473              1536.0065
 Red. masses --      1.0708                 1.0641                 1.0786
 Frc consts  --      1.4733                 1.4667                 1.4993
 IR Inten    --      4.3994                 1.9836                 3.2551

                     67                     68                     69
                      A                      A                      A
 Frequencies --   1538.6530              1550.2391              1557.0296
 Red. masses --      1.0749                 1.0675                 1.0718
 Frc consts  --      1.4994                 1.5115                 1.5309
 IR Inten    --      4.2488                 6.0031                 1.4662

                     70                     71                     72
                      A                      A                      A
 Frequencies --   2910.8302              2954.4308              2993.6046
 Red. masses --      1.0821                 1.0609                 1.0731
 Frc consts  --      5.4020                 5.4560                 5.6662
 IR Inten    --     92.9410               116.0900               107.6989

                     73                     74                     75
                      A                      A                      A
 Frequencies --   3011.9400              3019.5195              3024.6561
 Red. masses --      1.0709                 1.0635                 1.0383
 Frc consts  --      5.7242                 5.7130                 5.5964
 IR Inten    --     33.9513                44.6137                36.6027

                     76                     77                     78
                      A                      A                      A
 Frequencies --   3035.4315              3046.9072              3050.8362
 Red. masses --      1.0661                 1.0662                 1.0677
 Frc consts  --      5.7875                 5.8318                 5.8551
 IR Inten    --     40.5217                76.4013                20.3240

                     79                     80                     81
                      A                      A                      A
 Frequencies --   3057.6754              3073.9790              3083.7995
 Red. masses --      1.0989                 1.0954                 1.0941
 Frc consts  --      6.0533                 6.0984                 6.1300
 IR Inten    --     40.5511                24.3426                 6.5375

                     82                     83                     84
                      A                      A                      A
 Frequencies --   3087.8507              3100.4028              3102.4399
 Red. masses --      1.0741                 1.0926                 1.0966
 Frc consts  --      6.0342                 6.1879                 6.2186
 IR Inten    --     55.0309                45.4651                 9.1103

                     85                     86                     87
                      A                      A                      A
 Frequencies --   3106.1047              3111.1938              3119.2899
 Red. masses --      1.0945                 1.0964                 1.1051
 Frc consts  --      6.2216                 6.2528                 6.3355
 IR Inten    --     49.9086                75.5684                 5.3413

                     88                     89                     90
                      A                      A                      A
 Frequencies --   3125.5322              3485.9053              3740.7116
 Red. masses --      1.1033                 1.0741                 1.0661
 Frc consts  --      6.3504                 7.6898                 8.7890
 IR Inten    --     30.9511                 1.2335                 8.8251

 - Thermochemistry -
 -------------------
 Temperature   298.150 Kelvin.  Pressure   1.00000 Atm.
 Atom     1 has atomic number  6 and mass  12.00000

 Molecular mass:   159.16231 amu.
 Principal axes and moments of inertia in atomic units:
                           1         2         3
     Eigenvalues --  1566.398462512.545423236.97776
           X            0.99975  -0.02178   0.00400
           Y            0.02176   0.99974   0.00647
           Z           -0.00414  -0.00638   0.99997
 This molecule is an asymmetric top.
 Rotational symmetry number  1.
 Warning -- assumption of classical behavior for rotation
           may cause significant error
 Rotational temperatures (Kelvin)      0.05529     0.03447     0.02676
 Rotational constants (GHZ):           1.15216     0.71829     0.55754
 Zero-point vibrational energy     784619.3 (Joules/Mol)
                                  187.52852 (Kcal/Mol)
 Warning -- explicit consideration of  19 degrees of freedom as
           vibrations may cause significant error
 Vibrational temperatures:     27.36    63.37    77.82    99.80   123.23
          (Kelvin)            133.40   141.21   212.69   282.96   367.23
                              435.59   444.36   448.42   455.49   565.08
                              591.30   621.23   705.04   733.06   926.84
                             1132.84  1154.38  1165.16  1190.76  1218.35
                             1270.41  1280.33  1294.70  1373.69  1383.74
                             1502.81  1510.26  1517.09  1545.39  1568.85
                             1581.72  1618.86  1630.69  1651.45  1656.50
                             1672.54  1722.23  1771.76  1852.40  1868.07
                             1884.45  1889.93  1961.36  1975.70  1985.73
                             1996.00  2013.80  2023.79  2033.17  2045.11
                             2063.35  2093.12  2133.52  2159.57  2172.01
                             2176.00  2181.39  2193.64  2198.68  2200.68
                             2209.97  2213.78  2230.45  2240.22  4188.04
                             4250.77  4307.13  4333.51  4344.42  4351.81
                             4367.31  4383.82  4389.47  4399.31  4422.77
                             4436.90  4442.73  4460.79  4463.72  4468.99
                             4476.31  4487.96  4496.94  5015.44  5382.05

 Zero-point correction=                           0.298846 (Hartree/Particle)
 Thermal correction to Energy=                    0.313207
 Thermal correction to Enthalpy=                  0.314151
 Thermal correction to Gibbs Free Energy=         0.255805
 Sum of electronic and zero-point Energies=           -485.318671
 Sum of electronic and thermal Energies=              -485.304310
 Sum of electronic and thermal Enthalpies=            -485.303366
 Sum of electronic and thermal Free Energies=         -485.361712

                     E (Thermal)             CV                S
                      KCal/Mol        Cal/Mol-Kelvin    Cal/Mol-Kelvin
 Total                  196.540             51.092            122.801
 Electronic               0.000              0.000              0.000
 Translational            0.889              2.981             41.103
 Rotational               0.889              2.981             30.922
 Vibrational            194.763             45.130             50.776
 Vibration     1          0.593              1.986              6.734
 Vibration     2          0.595              1.980              5.068
 Vibration     3          0.596              1.976              4.662
 Vibration     4          0.598              1.969              4.171
 Vibration     5          0.601              1.959              3.757
 Vibration     6          0.602              1.954              3.602
 Vibration     7          0.604              1.950              3.491
 Vibration     8          0.617              1.905              2.700
 Vibration     9          0.636              1.845              2.164
 Vibration    10          0.666              1.754              1.694
 Vibration    11          0.694              1.668              1.402
 Vibration    12          0.698              1.657              1.369
 Vibration    13          0.700              1.651              1.353
 Vibration    14          0.703              1.642              1.328
 Vibration    15          0.760              1.486              0.990
 Vibration    16          0.775              1.446              0.923
 Vibration    17          0.793              1.401              0.853
 Vibration    18          0.846              1.272              0.684
 Vibration    19          0.865              1.229              0.635

 Optimization completed on the basis of negligible forces.
    -- Stationary point found.
 Normal termination of Gaussian 16 at Thu Dec 17 20:33:02 2020.

 ----------------------------------------------------------------------
 # B3LYP/6-311++G(d,p) empiricaldispersion=gd3bj scf=xqc pop=npa geom=c
 heck
 ----------------------------------------------------------------------

 --------------------------------------
 CID_18990755_JID_1442_Energie_neutraal
 --------------------------------------
 Structure from the checkpoint file:  "JID_1442.chk"
 Charge =  0 Multiplicity = 1

 SCF Done:  E(RB3LYP) =  -485.769084636     A.U. after   13 cycles
 Normal termination of Gaussian 16 at Thu Dec 17 20:36:09 2020.

 ----------------------------------------------------------------------
 # B3LYP/6-311++G(d,p) empiricaldispersion=gd3bj scf=xqc pop=npa geom=c
 heck
 ----------------------------------------------------------------------

 ------------------------------------
 CID_18990755_JID_1442_Energie_kation
 ------------------------------------
 Structure from the checkpoint file:  "JID_1442.chk"
 Charge =  1 Multiplicity = 2

 SCF Done:  E(UB3LYP) =  -485.465079228     A.U. after   20 cycles
 Normal termination of Gaussian 16 at Thu Dec 17 20:41:51 2020.
 Gaussian 16:  ES64L-G16RevA.03 25-Dec-2016

 ----------------------------------------------------------------------
 # B3LYP/6-311++G(d,p) empiricaldispersion=gd3bj scf=xqc pop=npa geom=c
 heck
 ----------------------------------------------------------------------

 -----------------------------------
 CID_18990755_JID_1442_Energie_anion
 -----------------------------------
 Structure from the checkpoint file:  "JID_1442.chk"
 Charge = -1 Multiplicity = 2

                         Standard orientation:
 ---------------------------------------------------------------------
 Center     Atomic      Atomic             Coordinates (Angstroms)
 Number     Number       Type             X           Y           Z
 ---------------------------------------------------------------------
      1          6           0       -2.542789    1.434972   -0.396277
      2          6           0       -3.162689    0.292570    0.399832
      3          8           0       -2.802205   -0.993078   -0.103163
      4          6           0        1.246494    2.633961    0.249904
      5          7           0        1.010737    1.394494   -0.480718
      6          6           0        1.994060    0.335020   -0.214996
      7          6           0        1.830406   -0.229037    1.207753
      8          6           0        0.495816   -0.961656    1.390176
      9          6           0        0.326209   -2.080547    0.354576
     10          6           0        0.486228   -1.541141   -1.072420
     11          6           0        1.814819   -0.792110   -1.244721
     12          1           0       -1.450114    1.351406   -0.407564
     13          1           0       -2.821049    2.403374    0.037941
     14          1           0       -2.905823    1.425777   -1.433696
     15          1           0       -2.798428    0.306624    1.431896
     16          1           0       -4.259190    0.398718    0.438582
     17          1           0       -3.035840   -1.012551   -1.044068
     18          1           0        1.015391    2.496195    1.310874
     19          1           0        0.576111    3.410426   -0.132145
     20          1           0        2.286325    3.004605    0.178762
     21          1           0        1.025564    1.595130   -1.478951
     22          1           0        3.023543    0.734601   -0.307494
     23          1           0        2.661279   -0.925986    1.386007
     24          1           0        1.938888    0.570264    1.950630
     25          1           0       -0.327374   -0.247916    1.278081
     26          1           0        0.432146   -1.371302    2.406232
     27          1           0       -0.659586   -2.542740    0.465477
     28          1           0        1.080938   -2.861190    0.536659
     29          1           0       -0.350109   -0.866272   -1.282410
     30          1           0        0.429491   -2.362557   -1.798567
     31          1           0        1.898385   -0.380301   -2.261225
     32          1           0        2.650613   -1.495335   -1.127655
 ---------------------------------------------------------------------

 SCF Done:  E(UB3LYP) =  -485.753914791     A.U. after   26 cycles

 The electronic state is 2-A.
 Alpha  occ. eigenvalues --  -19.01415 -14.18746 -10.10839 -10.08751 -10.07748
 Alpha  occ. eigenvalues --  -10.05632 -10.05626 -10.05132 -10.04990 -10.04855
 Alpha  occ. eigenvalues --  -10.04534  -0.91408  -0.79993  -0.70829  -0.63634
 Alpha  occ. eigenvalues --   -0.63382  -0.62578  -0.55441  -0.51646  -0.50184
 Alpha  occ. eigenvalues --   -0.48736  -0.43461  -0.39429  -0.37856  -0.37409
 Alpha  occ. eigenvalues --   -0.34826  -0.34734  -0.33453  -0.32676  -0.31359
 Alpha  occ. eigenvalues --   -0.30910  -0.28159  -0.27485  -0.26982  -0.26871
 Alpha  occ. eigenvalues --   -0.26081  -0.25830  -0.24261  -0.23165  -0.22293
 Alpha  occ. eigenvalues --   -0.21250  -0.19443  -0.19106  -0.17007  -0.12014
 Alpha  occ. eigenvalues --    0.04606
 Alpha virt. eigenvalues --    0.06737   0.07406   0.07676   0.09009   0.09223
 Alpha virt. eigenvalues --    0.09697   0.09758   0.10328   0.11498   0.12009
 Alpha virt. eigenvalues --    0.12188   0.12887   0.12913   0.13297   0.14095

  Beta  occ. eigenvalues --  -19.01388 -14.18726 -10.10822 -10.08741 -10.07713
  Beta  occ. eigenvalues --  -10.05616 -10.05615 -10.05126 -10.04984 -10.04845
  Beta  occ. eigenvalues --  -10.04500  -0.91348  -0.79962  -0.70806  -0.63579
  Beta  occ. eigenvalues --   -0.63354  -0.62550  -0.55364  -0.51561  -0.50147
  Beta  occ. eigenvalues --   -0.48699  -0.43422  -0.39366  -0.37810  -0.37355
  Beta  occ. eigenvalues --   -0.34790  -0.34695  -0.33428  -0.32614  -0.31334
  Beta  occ. eigenvalues --   -0.30878  -0.28123  -0.27458  -0.26954  -0.26833
  Beta  occ. eigenvalues --   -0.26042  -0.25799  -0.24231  -0.23144  -0.22250
  Beta  occ. eigenvalues --   -0.21231  -0.19417  -0.19081  -0.16971  -0.11972
  Beta virt. eigenvalues --    0.06802   0.07607   0.07982   0.08241   0.09388
  Beta virt. eigenvalues --    0.09791   0.10075   0.10208   0.10610   0.11897
  Beta virt. eigenvalues --    0.12309   0.12562   0.13104   0.13135   0.13613

 Mulliken charges and spin densities:
               1          2
     1  C   -0.352734  -0.130805
     2  C    0.144986  -0.478898
     3  O   -0.204816  -0.020943
     4  C    0.844424  -1.217447
     5  N   -0.201333   0.059757
     6  C   -0.170570   0.508311
     7  C    0.017293  -0.732261
     8  C   -0.130962   0.137238
     9  C   -0.054163  -0.422449
    10  C   -0.465305   0.459465
    11  C    0.497051  -1.322144
    12  H    1.444446  -1.139880
    13  H   -0.180063   0.282747
    14  H   -0.592571   0.725469
    15  H    0.045230   0.097018
    16  H   -0.308426   0.446718
    17  H   -0.028162   0.261337
    18  H    0.015355   0.112263
    19  H   -0.438335   0.575550
    20  H   -0.442378   0.571210
    21  H   -0.131697   0.367461
    22  H   -0.261213   0.445472
    23  H   -0.123362   0.237373
    24  H    0.065788   0.090519
    25  H   -0.041526   0.141336
    26  H    0.110129   0.051626
    27  H    0.123881   0.061135
    28  H    0.052055   0.057695
    29  H    0.185639  -0.101638
    30  H   -0.194029   0.366650
    31  H   -0.342353   0.518333
    32  H    0.117722  -0.008218
 Sum of Mulliken charges =  -1.00000   1.00000

 Dipole moment (field-independent basis, Debye):
    X=              1.3082    Y=             -3.3481    Z=              3.2901  Tot=              4.8730
 Quadrupole moment (field-independent basis, Debye-Ang):
   XX=           -133.0959   YY=           -119.1353   ZZ=           -107.4775
   XY=             -4.9872   XZ=             -2.2447   YZ=              2.8525

 Summary of Natural Population Analysis:

                                       Natural Population
                Natural  -----------------------------------------------
    Atom  No    Charge         Core      Valence    Rydberg      Total
 -----------------------------------------------------------------------
      C    1   -0.30839      0.99966     2.30269    0.00604     3.30839
      C    2   -0.01023      0.99963     1.99790    0.01269     3.01023
      O    3   -0.37042      0.99990     3.36302    0.00750     4.37042
      C    4   -0.17782      0.99965     2.16921    0.00896     3.17782
      N    5   -0.34612      0.99973     2.83368    0.01271     3.84612
      C    6   -0.00494      0.99959     1.99174    0.01361     3.00494
      C    7   -0.19273      0.99961     2.18423    0.00889     3.19273
      C    8   -0.19252      0.99962     2.18515    0.00774     3.19252
      C    9   -0.18743      0.99963     2.18077    0.00704     3.18743
      C   10   -0.19372      0.99962     2.18503    0.00907     3.19372
      C   11   -0.18969      0.99961     2.18052    0.00957     3.18969
      H   12    0.11490      0.00000     0.38279    0.00231     0.38510
      H   13    0.09778      0.00000     0.40092    0.00130     0.40222
      H   14    0.09437      0.00000     0.40363    0.00199     0.40563
      H   15    0.08142      0.00000     0.41724    0.00134     0.41858
      H   16    0.07123      0.00000     0.42733    0.00144     0.42877
      H   17    0.22685      0.00000     0.26904    0.00412     0.27315
      H   18    0.08919      0.00000     0.40951    0.00130     0.41081
      H   19    0.09683      0.00000     0.40204    0.00113     0.40317
      H   20    0.07958      0.00000     0.41851    0.00191     0.42042
      H   21    0.17385      0.00000     0.32249    0.00366     0.32615
      H   22    0.08041      0.00000     0.41719    0.00239     0.41959
      H   23    0.09374      0.00000     0.40510    0.00116     0.40626
      H   24    0.09847      0.00000     0.40057    0.00097     0.40153
      H   25    0.10240      0.00000     0.39532    0.00228     0.39760
      H   26    0.09232      0.00000     0.40677    0.00091     0.40768
      H   27    0.10618      0.00000     0.39271    0.00111     0.39382
      H   28    0.08450      0.00000     0.41428    0.00122     0.41550
      H   29    0.10393      0.00000     0.39364    0.00243     0.39607
      H   30    0.09357      0.00000     0.40541    0.00102     0.40643
      H   31    0.09846      0.00000     0.40017    0.00137     0.40154
      H   32    0.09401      0.00000     0.40488    0.00110     0.40599
 =======================================================================
   * Total *    0.00000     10.99625    33.86347    0.14028    45.00000

 Normal termination of Gaussian 16 at Thu Dec 17 20:49:05 2020.
