 Gaussian 16, Revision A.03,

 -----------------------------------------------------------
 # opt freq B3LYP/6-31G(d) empiricaldispersion=gd3bj scf=xqc
 -----------------------------------------------------------

 -------------------------------
 CID_152618059_JID_4253_neutraal
 -------------------------------
 Symbolic Z-matrix:
 Charge =  0 Multiplicity = 1

 SCF Done:  E(RB3LYP) =  -630.761808344     A.U. after   15 cycles
 SCF Done:  E(RB3LYP) =  -630.766801066     A.U. after   15 cycles
 SCF Done:  E(RB3LYP) =  -630.768160470     A.U. after   14 cycles
 SCF Done:  E(RB3LYP) =  -630.768988981     A.U. after   13 cycles
 SCF Done:  E(RB3LYP) =  -630.769240321     A.U. after   15 cycles
 SCF Done:  E(RB3LYP) =  -630.769577336     A.U. after   13 cycles
 SCF Done:  E(RB3LYP) =  -630.769611806     A.U. after   13 cycles
 SCF Done:  E(RB3LYP) =  -630.769687332     A.U. after   13 cycles
 SCF Done:  E(RB3LYP) =  -630.769758922     A.U. after   11 cycles
 SCF Done:  E(RB3LYP) =  -630.769783763     A.U. after   11 cycles
 SCF Done:  E(RB3LYP) =  -630.774768277     A.U. after   11 cycles
 SCF Done:  E(RB3LYP) =  -630.774787985     A.U. after   11 cycles
 SCF Done:  E(RB3LYP) =  -630.774798807     A.U. after   10 cycles
 SCF Done:  E(RB3LYP) =  -630.774803177     A.U. after   10 cycles
 SCF Done:  E(RB3LYP) =  -630.774804212     A.U. after    8 cycles
 SCF Done:  E(RB3LYP) =  -630.774804440     A.U. after    8 cycles
 Optimization completed.
    -- Stationary point found.
 Normal termination of Gaussian 16 at Thu Dec 10 09:48:05 2020.

 --------------------------------------------------------------------
 #N Geom=AllCheck Guess=TCheck SCRF=Check GenChk RB3LYP/6-31G(d) Freq
 --------------------------------------------------------------------

 Structure from the checkpoint file:  "JID_4253.chk"
 -------------------------------
 CID_152618059_JID_4253_neutraal
 -------------------------------
 Charge =  0 Multiplicity = 1

 SCF Done:  E(RB3LYP) =  -630.774804440     A.U. after    1 cycles

  Exact polarizability: 129.444   1.348 106.767  -4.034  -2.080 122.401
 Approx polarizability: 161.931  -4.231 156.058 -15.835  -2.392 236.489

                      1                      2                      3
                      A                      A                      A
 Frequencies --     34.8109                49.3775                65.6656
 Red. masses --      3.6422                 5.5333                 6.5104
 Frc consts  --      0.0026                 0.0079                 0.0165
 IR Inten    --      0.1905                 1.4113                 0.1401

                      4                      5                      6
                      A                      A                      A
 Frequencies --     78.7689                97.5780               147.0194
 Red. masses --      4.8825                 2.9615                 4.6228
 Frc consts  --      0.0178                 0.0166                 0.0589
 IR Inten    --      1.8669                 0.4381                 1.6781

                      7                      8                      9
                      A                      A                      A
 Frequencies --    161.2821               183.5517               193.3932
 Red. masses --      3.5502                 2.4053                 1.8423
 Frc consts  --      0.0544                 0.0477                 0.0406
 IR Inten    --      5.5857                 0.1989                 0.2768

                     10                     11                     12
                      A                      A                      A
 Frequencies --    219.4163               249.5433               294.1846
 Red. masses --      2.4553                 2.8250                 1.6336
 Frc consts  --      0.0696                 0.1036                 0.0833
 IR Inten    --      0.7909                 1.3843                 1.1722

                     13                     14                     15
                      A                      A                      A
 Frequencies --    296.6492               346.2191               391.5199
 Red. masses --      2.6191                 2.1759                 3.0253
 Frc consts  --      0.1358                 0.1537                 0.2732
 IR Inten    --      1.2376                 0.2323                 7.4441

                     16                     17                     18
                      A                      A                      A
 Frequencies --    448.5135               481.7360               509.5906
 Red. masses --      3.6769                 2.4501                 3.2752
 Frc consts  --      0.4358                 0.3350                 0.5011
 IR Inten    --      1.1236                 0.2928                 2.9222

                     19                     20                     21
                      A                      A                      A
 Frequencies --    570.7742               608.4010               624.9702
 Red. masses --     12.9479                 3.9328                 4.3309
 Frc consts  --      2.4853                 0.8577                 0.9967
 IR Inten    --     12.1793                 8.3428                 3.4611

                     22                     23                     24
                      A                      A                      A
 Frequencies --    666.9497               698.0317               729.0045
 Red. masses --      3.4277                 3.2879                 1.2942
 Frc consts  --      0.8983                 0.9439                 0.4052
 IR Inten    --      2.6438                 1.5971                 7.0092

                     25                     26                     27
                      A                      A                      A
 Frequencies --    776.1853               788.4638               808.6033
 Red. masses --      1.5628                 3.0171                 2.7858
 Frc consts  --      0.5547                 1.1051                 1.0732
 IR Inten    --      5.8693                 6.2629                 5.8768

                     28                     29                     30
                      A                      A                      A
 Frequencies --    856.6974               863.4283               892.6759
 Red. masses --      1.7780                 2.1293                 1.8640
 Frc consts  --      0.7688                 0.9353                 0.8751
 IR Inten    --      4.2977                 6.1469                15.8572

                     31                     32                     33
                      A                      A                      A
 Frequencies --    920.1452               942.1911               986.8660
 Red. masses --      2.0432                 2.6160                 1.6859
 Frc consts  --      1.0192                 1.3682                 0.9674
 IR Inten    --      7.1874                 4.2689                 5.2221

                     34                     35                     36
                      A                      A                      A
 Frequencies --    996.0741              1009.0219              1034.0346
 Red. masses --      2.0296                 1.9691                 2.0705
 Frc consts  --      1.1864                 1.1812                 1.3043
 IR Inten    --      0.9497                 6.4286                 1.4971

                     37                     38                     39
                      A                      A                      A
 Frequencies --   1044.6570              1086.2204              1112.8792
 Red. masses --      1.9620                 1.8705                 2.0247
 Frc consts  --      1.2615                 1.3003                 1.4774
 IR Inten    --      9.6058                 9.1001                10.9691

                     40                     41                     42
                      A                      A                      A
 Frequencies --   1123.5164              1159.7533              1170.3949
 Red. masses --      1.6219                 2.1574                 1.9552
 Frc consts  --      1.2063                 1.7097                 1.5780
 IR Inten    --      9.9753                 4.6613                 7.5170

                     43                     44                     45
                      A                      A                      A
 Frequencies --   1184.3093              1213.7529              1227.4380
 Red. masses --      1.5844                 1.4300                 1.3192
 Frc consts  --      1.3093                 1.2412                 1.1711
 IR Inten    --     20.1383                 3.3335                 3.3101

                     46                     47                     48
                      A                      A                      A
 Frequencies --   1267.8951              1275.4902              1297.7720
 Red. masses --      1.5035                 1.4037                 1.5379
 Frc consts  --      1.4240                 1.3455                 1.5261
 IR Inten    --      0.4058                 2.7370                13.4846

                     49                     50                     51
                      A                      A                      A
 Frequencies --   1312.8769              1326.5253              1331.2961
 Red. masses --      1.4171                 1.6830                 1.4761
 Frc consts  --      1.4391                 1.7448                 1.5414
 IR Inten    --      0.6288                17.9220                29.4010

                     52                     53                     54
                      A                      A                      A
 Frequencies --   1340.8560              1352.0563              1370.8305
 Red. masses --      1.8354                 1.4216                 1.5155
 Frc consts  --      1.9442                 1.5312                 1.6779
 IR Inten    --     50.9601                11.1686                10.1367

                     55                     56                     57
                      A                      A                      A
 Frequencies --   1374.7039              1400.6671              1409.3691
 Red. masses --      1.2127                 1.3379                 1.4236
 Frc consts  --      1.3503                 1.5464                 1.6660
 IR Inten    --      1.6090                 2.8664                 5.0195

                     58                     59                     60
                      A                      A                      A
 Frequencies --   1423.9479              1435.5128              1450.0191
 Red. masses --      1.3995                 1.4636                 1.2514
 Frc consts  --      1.6719                 1.7771                 1.5503
 IR Inten    --      9.0768                 0.2712                 7.1672

                     61                     62                     63
                      A                      A                      A
 Frequencies --   1486.1039              1509.6307              1514.3139
 Red. masses --      1.0758                 1.0775                 1.0814
 Frc consts  --      1.3999                 1.4468                 1.4610
 IR Inten    --     13.1869                 2.0234                 1.1573

                     64                     65                     66
                      A                      A                      A
 Frequencies --   1522.4742              1528.3026              1533.4420
 Red. masses --      1.0938                 1.0626                 1.0682
 Frc consts  --      1.4938                 1.4623                 1.4799
 IR Inten    --      6.9896                 1.4036                 5.8321

                     67                     68                     69
                      A                      A                      A
 Frequencies --   1537.9143              1555.4349              1839.5875
 Red. masses --      1.0723                 1.0627                12.6100
 Frc consts  --      1.4943                 1.5148                25.1424
 IR Inten    --      6.1831                 2.5198               171.2557

                     70                     71                     72
                      A                      A                      A
 Frequencies --   2251.4558              2972.7939              3021.8098
 Red. masses --     13.7889                 1.0803                 1.0613
 Frc consts  --     41.1818                 5.6251                 5.7099
 IR Inten    --    355.2076                15.2004                29.2174

                     73                     74                     75
                      A                      A                      A
 Frequencies --   3035.0217              3043.5424              3047.0898
 Red. masses --      1.0637                 1.0412                 1.0656
 Frc consts  --      5.7730                 5.6827                 5.8290
 IR Inten    --     18.9117                30.3175                28.0018

                     76                     77                     78
                      A                      A                      A
 Frequencies --   3053.2037              3065.7954              3071.6848
 Red. masses --      1.0950                 1.0902                 1.0668
 Frc consts  --      6.0140                 6.0376                 5.9304
 IR Inten    --     19.0233                49.0732                21.5706

                     79                     80                     81
                      A                      A                      A
 Frequencies --   3075.9908              3077.6948              3091.7818
 Red. masses --      1.0732                 1.0627                 1.0955
 Frc consts  --      5.9826                 5.9309                 6.1699
 IR Inten    --     48.5236                 6.1784                 5.6034

                     82                     83                     84
                      A                      A                      A
 Frequencies --   3105.6372              3117.0274              3117.5710
 Red. masses --      1.1007                 1.1037                 1.0998
 Frc consts  --      6.2551                 6.3180                 6.2981
 IR Inten    --     47.9040                36.9554                 5.8762

                     85                     86                     87
                      A                      A                      A
 Frequencies --   3131.4396              3131.9670              3137.4404
 Red. masses --      1.1014                 1.1011                 1.0890
 Frc consts  --      6.3635                 6.3637                 6.3157
 IR Inten    --     15.4682                17.3631                25.0967

 - Thermochemistry -
 -------------------
 Temperature   298.150 Kelvin.  Pressure   1.00000 Atm.
 Atom     1 has atomic number  6 and mass  12.00000

 Molecular mass:   195.13716 amu.
 Principal axes and moments of inertia in atomic units:
                           1         2         3
     Eigenvalues --  1697.728423908.433834328.06912
           X            0.99977   0.01939  -0.00961
           Y           -0.01898   0.99897   0.04113
           Z            0.01040  -0.04094   0.99911
 This molecule is an asymmetric top.
 Rotational symmetry number  1.
 Warning -- assumption of classical behavior for rotation
           may cause significant error
 Rotational temperatures (Kelvin)      0.05102     0.02216     0.02001
 Rotational constants (GHZ):           1.06303     0.46176     0.41699
 Zero-point vibrational energy     707532.7 (Joules/Mol)
                                  169.10437 (Kcal/Mol)
 Warning -- explicit consideration of  20 degrees of freedom as
           vibrations may cause significant error
 Vibrational temperatures:     50.09    71.04    94.48   113.33   140.39
          (Kelvin)            211.53   232.05   264.09   278.25   315.69
                              359.04   423.27   426.81   498.13   563.31
                              645.31   693.11   733.19   821.22   875.35
                              899.19   959.59  1004.31  1048.87  1116.76
                             1134.42  1163.40  1232.60  1242.28  1284.36
                             1323.88  1355.60  1419.88  1433.13  1451.76
                             1487.75  1503.03  1562.83  1601.19  1616.49
                             1668.63  1683.94  1703.96  1746.32  1766.01
                             1824.22  1835.15  1867.20  1888.94  1908.57
                             1915.44  1929.19  1945.31  1972.32  1977.89
                             2015.25  2027.77  2048.74  2065.38  2086.25
                             2138.17  2172.02  2178.76  2190.50  2198.89
                             2206.28  2212.72  2237.92  2646.76  3239.34
                             4277.19  4347.71  4366.72  4378.98  4384.08
                             4392.88  4411.00  4419.47  4425.66  4428.12
                             4448.38  4468.32  4484.71  4485.49  4505.44
                             4506.20  4514.08

 Zero-point correction=                           0.269485 (Hartree/Particle)
 Thermal correction to Energy=                    0.283891
 Thermal correction to Enthalpy=                  0.284836
 Thermal correction to Gibbs Free Energy=         0.227320
 Sum of electronic and zero-point Energies=           -630.505319
 Sum of electronic and thermal Energies=              -630.490913
 Sum of electronic and thermal Enthalpies=            -630.489969
 Sum of electronic and thermal Free Energies=         -630.547485

                     E (Thermal)             CV                S
                      KCal/Mol        Cal/Mol-Kelvin    Cal/Mol-Kelvin
 Total                  178.145             53.470            121.052
 Electronic               0.000              0.000              0.000
 Translational            0.889              2.981             41.711
 Rotational               0.889              2.981             31.730
 Vibrational            176.367             47.508             47.612
 Vibration     1          0.594              1.983              5.534
 Vibration     2          0.595              1.978              4.842
 Vibration     3          0.597              1.971              4.279
 Vibration     4          0.600              1.963              3.921
 Vibration     5          0.603              1.951              3.502
 Vibration     6          0.617              1.906              2.710
 Vibration     7          0.622              1.890              2.535
 Vibration     8          0.631              1.862              2.292
 Vibration     9          0.635              1.849              2.195
 Vibration    10          0.647              1.812              1.964
 Vibration    11          0.662              1.764              1.734
 Vibration    12          0.689              1.685              1.450
 Vibration    13          0.690              1.680              1.436
 Vibration    14          0.724              1.583              1.183
 Vibration    15          0.759              1.488              0.994
 Vibration    16          0.808              1.364              0.800
 Vibration    17          0.838              1.291              0.705
 Vibration    18          0.865              1.229              0.635
 Vibration    19          0.927              1.094              0.503
 Vibration    20          0.967              1.014              0.435

                           ! Non-Optimized Parameters !
 Normal termination of Gaussian 16 at Thu Dec 10 09:57:25 2020.

 ----------------------------------------------------------------------
 # B3LYP/6-311++G(d,p) empiricaldispersion=gd3bj scf=xqc pop=npa geom=c
 heck
 ----------------------------------------------------------------------

 ---------------------------------------
 CID_152618059_JID_4253_Energie_neutraal
 ---------------------------------------
 Structure from the checkpoint file:  "JID_4253.chk"
 Charge =  0 Multiplicity = 1

 SCF Done:  E(RB3LYP) =  -630.949226207     A.U. after   15 cycles
 Normal termination of Gaussian 16 at Thu Dec 10 10:01:51 2020.

 ----------------------------------------------------------------------
 # B3LYP/6-311++G(d,p) empiricaldispersion=gd3bj scf=xqc pop=npa geom=c
 heck
 ----------------------------------------------------------------------

 -------------------------------------
 CID_152618059_JID_4253_Energie_kation
 -------------------------------------
 Structure from the checkpoint file:  "JID_4253.chk"
 Charge =  1 Multiplicity = 2

 SCF Done:  E(UB3LYP) =  -630.622090153     A.U. after   24 cycles
 Normal termination of Gaussian 16 at Thu Dec 10 10:12:25 2020.
 Gaussian 16:  ES64L-G16RevA.03 25-Dec-2016

 ----------------------------------------------------------------------
 # B3LYP/6-311++G(d,p) empiricaldispersion=gd3bj scf=xqc pop=npa geom=c
 heck
 ----------------------------------------------------------------------

 ------------------------------------
 CID_152618059_JID_4253_Energie_anion
 ------------------------------------
 Structure from the checkpoint file:  "JID_4253.chk"
 Charge = -1 Multiplicity = 2

                         Standard orientation:
 ---------------------------------------------------------------------
 Center     Atomic      Atomic             Coordinates (Angstroms)
 Number     Number       Type             X           Y           Z
 ---------------------------------------------------------------------
      1          6           0        3.514367   -0.864744   -1.002382
      2          6           0        3.710534   -0.053518    0.282211
      3          6           0        2.804479    1.184648    0.382405
      4          6           0        1.297985    0.919130    0.233361
      5          6           0        0.739469   -0.013026    1.317337
      6          6           0       -0.673904   -0.559299    1.091773
      7          6           0       -1.913688    0.364776    1.083099
      8          6           0       -3.027077   -0.538859    0.489550
      9          6           0       -2.324198   -1.414625   -0.565335
     10          6           0       -0.847371   -1.428691   -0.158354
     11          8           0        0.034187   -2.038547   -0.722957
     12          7           0       -1.746625    1.634407    0.334819
     13          7           0       -1.589491    1.564276   -0.886372
     14          7           0       -1.430179    1.648288   -2.015652
     15          1           0        2.522944   -1.327228   -1.039881
     16          1           0        4.257699   -1.666688   -1.075670
     17          1           0        3.623591   -0.227994   -1.889604
     18          1           0        3.552211   -0.706443    1.150850
     19          1           0        4.753993    0.281606    0.350351
     20          1           0        2.989288    1.686867    1.342894
     21          1           0        3.100391    1.899647   -0.397536
     22          1           0        0.773441    1.878604    0.270844
     23          1           0        1.103038    0.489463   -0.755395
     24          1           0        1.387487   -0.892373    1.396910
     25          1           0        0.777283    0.490746    2.292071
     26          1           0       -0.882816   -1.265742    1.915380
     27          1           0       -2.161022    0.701962    2.090020
     28          1           0       -3.849347    0.057842    0.086631
     29          1           0       -3.436410   -1.162109    1.292415
     30          1           0       -2.395806   -0.995809   -1.575547
     31          1           0       -2.708973   -2.437530   -0.622648
 ---------------------------------------------------------------------

 SCF Done:  E(UB3LYP) =  -630.950574334     A.U. after   32 cycles

 The electronic state is 2-A.
 Alpha  occ. eigenvalues --  -18.97337 -14.33804 -14.23779 -14.22353 -10.11151
 Alpha  occ. eigenvalues --  -10.09714 -10.06592 -10.06125 -10.05893 -10.05869
 Alpha  occ. eigenvalues --  -10.05350 -10.05284 -10.05154 -10.04597  -1.00340
 Alpha  occ. eigenvalues --   -0.90921  -0.84655  -0.72205  -0.69850  -0.65243
 Alpha  occ. eigenvalues --   -0.61099  -0.59034  -0.55097  -0.51438  -0.49704
 Alpha  occ. eigenvalues --   -0.45242  -0.41270  -0.39021  -0.38438  -0.37544
 Alpha  occ. eigenvalues --   -0.36172  -0.35212  -0.34533  -0.33387  -0.32132
 Alpha  occ. eigenvalues --   -0.31252  -0.31102  -0.29909  -0.28413  -0.27400
 Alpha  occ. eigenvalues --   -0.27014  -0.26360  -0.25087  -0.24122  -0.23764
 Alpha  occ. eigenvalues --   -0.23223  -0.22477  -0.21044  -0.20775  -0.20467
 Alpha  occ. eigenvalues --   -0.16853  -0.12533  -0.11281   0.04470
 Alpha virt. eigenvalues --    0.07343   0.07927   0.08942   0.09016   0.09668
 Alpha virt. eigenvalues --    0.09964   0.10316   0.10967   0.11601   0.12050
 Alpha virt. eigenvalues --    0.12721   0.12963   0.13600   0.13777   0.14045

  Beta  occ. eigenvalues --  -18.97157 -14.33634 -14.23528 -14.22366 -10.10900
  Beta  occ. eigenvalues --  -10.09634 -10.06590 -10.06122 -10.05889 -10.05873
  Beta  occ. eigenvalues --  -10.05349 -10.05310 -10.05137 -10.04595  -0.99982
  Beta  occ. eigenvalues --   -0.90540  -0.84448  -0.72055  -0.69829  -0.65219
  Beta  occ. eigenvalues --   -0.61039  -0.58835  -0.54989  -0.51319  -0.49587
  Beta  occ. eigenvalues --   -0.45194  -0.40923  -0.38673  -0.38119  -0.37370
  Beta  occ. eigenvalues --   -0.36122  -0.35148  -0.33970  -0.33112  -0.31829
  Beta  occ. eigenvalues --   -0.31140  -0.30876  -0.29831  -0.28308  -0.27325
  Beta  occ. eigenvalues --   -0.26689  -0.26192  -0.24996  -0.24044  -0.23603
  Beta  occ. eigenvalues --   -0.23173  -0.22153  -0.20957  -0.20674  -0.20185
  Beta  occ. eigenvalues --   -0.16250  -0.12425  -0.11139
  Beta virt. eigenvalues --    0.07184   0.08058   0.08988   0.09217   0.09699
  Beta virt. eigenvalues --    0.10095   0.10496   0.10762   0.11703   0.11956
  Beta virt. eigenvalues --    0.12277   0.12865   0.13203   0.13918   0.13938

 Mulliken charges and spin densities:
               1          2
     1  C   -0.648680  -0.009194
     2  C   -0.109114  -0.050787
     3  C   -0.378552  -0.135768
     4  C    0.031218   0.015947
     5  C   -0.537790  -0.339193
     6  C    1.069834  -0.495256
     7  C   -0.115703   0.269135
     8  C    0.645907  -1.289526
     9  C   -0.480333   0.184876
    10  C   -0.129024  -0.072047
    11  O   -0.328397   0.081533
    12  N   -0.520550   0.021285
    13  N    0.780265  -0.036254
    14  N   -0.343034   0.107515
    15  H    0.234807   0.000961
    16  H    0.101666   0.003062
    17  H    0.113567  -0.001356
    18  H    0.087790   0.046589
    19  H    0.120816   0.013373
    20  H    0.080085   0.027065
    21  H    0.129053   0.016347
    22  H    0.102531   0.072767
    23  H    0.177680   0.010999
    24  H    0.086099   0.051852
    25  H   -0.038909   0.200571
    26  H   -0.376838   0.611625
    27  H   -0.851072   1.123117
    28  H    0.068770   0.096028
    29  H   -0.156395   0.299706
    30  H    0.186062  -0.016279
    31  H   -0.001759   0.191308
 Sum of Mulliken charges =  -1.00000   1.00000

 Dipole moment (field-independent basis, Debye):
    X=              4.2803    Y=              0.8571    Z=             -2.0851  Tot=              4.8377
 Quadrupole moment (field-independent basis, Debye-Ang):
   XX=           -119.5320   YY=           -118.5743   ZZ=           -124.2761
   XY=              3.1892   XZ=              8.6951   YZ=              1.2523

 Summary of Natural Population Analysis:

                                       Natural Population
                Natural  -----------------------------------------------
    Atom  No    Charge         Core      Valence    Rydberg      Total
 -----------------------------------------------------------------------
      C    1   -0.29413      0.99967     2.29003    0.00443     3.29413
      C    2   -0.19096      0.99965     2.18402    0.00729     3.19096
      C    3   -0.18329      0.99963     2.17666    0.00699     3.18329
      C    4   -0.19964      0.99962     2.19128    0.00874     3.19964
      C    5   -0.18962      0.99961     2.17820    0.01181     3.18962
      C    6   -0.16258      0.99952     2.15031    0.01275     3.16258
      C    7   -0.00663      0.99954     1.99101    0.01609     3.00663
      C    8   -0.19641      0.99962     2.18838    0.00841     3.19641
      C    9   -0.24555      0.99960     2.23795    0.00801     3.24555
      C   10    0.33125      0.99964     1.64645    0.02266     2.66875
      O   11   -0.28537      0.99987     3.27904    0.00647     4.28537
      N   12   -0.19189      0.99969     2.67745    0.01475     3.69189
      N   13    0.12513      0.99969     2.35924    0.01594     3.37487
      N   14   -0.03605      0.99982     2.52341    0.01282     3.53605
      H   15    0.11648      0.00000     0.38271    0.00081     0.38352
      H   16    0.09212      0.00000     0.40700    0.00088     0.40788
      H   17    0.09116      0.00000     0.40798    0.00086     0.40884
      H   18    0.09349      0.00000     0.40530    0.00121     0.40651
      H   19    0.08866      0.00000     0.41012    0.00122     0.41134
      H   20    0.09187      0.00000     0.40705    0.00108     0.40813
      H   21    0.09150      0.00000     0.40753    0.00097     0.40850
      H   22    0.10161      0.00000     0.39686    0.00153     0.39839
      H   23    0.10281      0.00000     0.39559    0.00160     0.39719
      H   24    0.10102      0.00000     0.39760    0.00138     0.39898
      H   25    0.09712      0.00000     0.40181    0.00107     0.40288
      H   26    0.12309      0.00000     0.37265    0.00426     0.37691
      H   27    0.10537      0.00000     0.39042    0.00421     0.39463
      H   28    0.10063      0.00000     0.39845    0.00092     0.39937
      H   29    0.10311      0.00000     0.39510    0.00179     0.39689
      H   30    0.11471      0.00000     0.38432    0.00098     0.38529
      H   31    0.11099      0.00000     0.38799    0.00102     0.38901
 =======================================================================
   * Total *    0.00000     13.99515    38.82191    0.18294    53.00000

 Normal termination of Gaussian 16 at Thu Dec 10 10:25:54 2020.
