 Gaussian 16, Revision A.03,

 -----------------------------------------------------------
 # opt freq B3LYP/6-31G(d) empiricaldispersion=gd3bj scf=xqc
 -----------------------------------------------------------

 ------------------------------
 CID_61576893_JID_4278_neutraal
 ------------------------------
 Symbolic Z-matrix:
 Charge =  0 Multiplicity = 1

 SCF Done:  E(RB3LYP) =  -650.650475321     A.U. after   15 cycles
 SCF Done:  E(RB3LYP) =  -650.676646020     A.U. after   13 cycles
 SCF Done:  E(RB3LYP) =  -650.678949989     A.U. after   13 cycles
 SCF Done:  E(RB3LYP) =  -650.679804232     A.U. after   15 cycles
 SCF Done:  E(RB3LYP) =  -650.681021198     A.U. after   12 cycles
 SCF Done:  E(RB3LYP) =  -650.681920214     A.U. after   12 cycles
 SCF Done:  E(RB3LYP) =  -650.682101266     A.U. after   13 cycles
 SCF Done:  E(RB3LYP) =  -650.682679909     A.U. after   12 cycles
 SCF Done:  E(RB3LYP) =  -650.682707520     A.U. after   12 cycles
 SCF Done:  E(RB3LYP) =  -650.682800815     A.U. after   11 cycles
 SCF Done:  E(RB3LYP) =  -650.682819172     A.U. after   10 cycles
 SCF Done:  E(RB3LYP) =  -650.682824561     A.U. after   10 cycles
 SCF Done:  E(RB3LYP) =  -650.682826960     A.U. after   10 cycles
 SCF Done:  E(RB3LYP) =  -650.682827714     A.U. after    8 cycles
 SCF Done:  E(RB3LYP) =  -650.682827861     A.U. after    8 cycles
 SCF Done:  E(RB3LYP) =  -650.682827872     A.U. after    7 cycles
 Optimization completed.
    -- Stationary point found.
 Normal termination of Gaussian 16 at Thu Dec 10 09:26:18 2020.

 --------------------------------------------------------------------
 #N Geom=AllCheck Guess=TCheck SCRF=Check GenChk RB3LYP/6-31G(d) Freq
 --------------------------------------------------------------------

 Structure from the checkpoint file:  "JID_4278.chk"
 ------------------------------
 CID_61576893_JID_4278_neutraal
 ------------------------------
 Charge =  0 Multiplicity = 1

 SCF Done:  E(RB3LYP) =  -650.682827872     A.U. after    1 cycles

  Exact polarizability: 130.659  -4.443 114.958  -7.667  -0.023 100.166
 Approx polarizability: 170.148  -6.711 165.570 -21.579   1.983 159.432

                      1                      2                      3
                      A                      A                      A
 Frequencies --     39.1743                47.9154                57.7821
 Red. masses --      5.1083                 4.0960                 4.1271
 Frc consts  --      0.0046                 0.0055                 0.0081
 IR Inten    --      3.2484                 0.5325                 2.6336

                      4                      5                      6
                      A                      A                      A
 Frequencies --     70.3283                84.8728                92.7635
 Red. masses --      4.0318                 3.4061                 2.6569
 Frc consts  --      0.0117                 0.0145                 0.0135
 IR Inten    --      3.5062                 0.9375                 3.9671

                      7                      8                      9
                      A                      A                      A
 Frequencies --    136.1165               151.1140               198.1108
 Red. masses --      4.0361                 5.3327                 2.1054
 Frc consts  --      0.0441                 0.0717                 0.0487
 IR Inten    --      0.5915                 3.5304                 1.5182

                     10                     11                     12
                      A                      A                      A
 Frequencies --    235.4260               258.0141               284.7312
 Red. masses --      1.3204                 2.6081                 2.6312
 Frc consts  --      0.0431                 0.1023                 0.1257
 IR Inten    --      2.0782                 3.6982                 0.9890

                     13                     14                     15
                      A                      A                      A
 Frequencies --    317.7082               360.6064               371.8070
 Red. masses --      3.4505                 4.2123                 3.7794
 Frc consts  --      0.2052                 0.3227                 0.3078
 IR Inten    --      2.9036                 1.1280                 7.1566

                     16                     17                     18
                      A                      A                      A
 Frequencies --    384.5143               432.9519               507.8191
 Red. masses --      3.0871                 2.9511                 3.1978
 Frc consts  --      0.2689                 0.3259                 0.4859
 IR Inten    --      1.6961                 9.4393                 3.9425

                     19                     20                     21
                      A                      A                      A
 Frequencies --    573.8257               602.2756               625.4719
 Red. masses --      3.4619                 2.2163                 2.8916
 Frc consts  --      0.6716                 0.4737                 0.6665
 IR Inten    --      4.6623                 2.4380                 9.7885

                     22                     23                     24
                      A                      A                      A
 Frequencies --    703.1101               737.5367               768.7539
 Red. masses --      7.3346                 4.1602                 2.3891
 Frc consts  --      2.1363                 1.3333                 0.8319
 IR Inten    --     14.0208                 2.5541                 2.2179

                     25                     26                     27
                      A                      A                      A
 Frequencies --    789.8937               829.2511               877.7504
 Red. masses --      1.2277                 2.7195                 2.5023
 Frc consts  --      0.4513                 1.1018                 1.1359
 IR Inten    --      5.3418                 1.8301                 3.7154

                     28                     29                     30
                      A                      A                      A
 Frequencies --    880.4373               927.4972               932.1284
 Red. masses --      2.0369                 2.0789                 2.0896
 Frc consts  --      0.9303                 1.0537                 1.0697
 IR Inten    --      9.3049                 0.1855                 7.0899

                     31                     32                     33
                      A                      A                      A
 Frequencies --    934.5192               956.6428               984.3411
 Red. masses --      2.4633                 2.2995                 3.4484
 Frc consts  --      1.2675                 1.2399                 1.9686
 IR Inten    --      6.2642                 3.2153                19.8266

                     34                     35                     36
                      A                      A                      A
 Frequencies --   1014.2341              1031.5640              1046.3617
 Red. masses --      2.5798                 2.7464                 2.0236
 Frc consts  --      1.5635                 1.7219                 1.3054
 IR Inten    --      8.0828                10.1108                 2.9754

                     37                     38                     39
                      A                      A                      A
 Frequencies --   1065.3808              1116.3685              1117.5783
 Red. masses --      2.3100                 1.7739                 1.8059
 Frc consts  --      1.5448                 1.3026                 1.3289
 IR Inten    --     33.6553                35.8364                11.8622

                     40                     41                     42
                      A                      A                      A
 Frequencies --   1131.0389              1157.6078              1216.5396
 Red. masses --      2.8933                 2.8369                 1.4846
 Frc consts  --      2.1807                 2.2399                 1.2945
 IR Inten    --    129.3889                40.7395                49.7982

                     43                     44                     45
                      A                      A                      A
 Frequencies --   1223.9070              1233.2521              1263.2854
 Red. masses --      1.3843                 1.4374                 1.2360
 Frc consts  --      1.2218                 1.2881                 1.1622
 IR Inten    --     12.8048                 9.7166                 3.6831

                     46                     47                     48
                      A                      A                      A
 Frequencies --   1269.5523              1277.4057              1315.3034
 Red. masses --      1.7830                 1.4621                 1.3134
 Frc consts  --      1.6932                 1.4057                 1.3387
 IR Inten    --     40.3870                16.1159                 2.4560

                     49                     50                     51
                      A                      A                      A
 Frequencies --   1338.0709              1345.1335              1353.7995
 Red. masses --      1.3286                 1.3191                 1.4304
 Frc consts  --      1.4016                 1.4062                 1.5446
 IR Inten    --      6.6844                10.9696                23.6286

                     52                     53                     54
                      A                      A                      A
 Frequencies --   1375.8661              1387.5766              1401.5009
 Red. masses --      1.3685                 1.2798                 1.2803
 Frc consts  --      1.5263                 1.4518                 1.4816
 IR Inten    --      0.6415                 0.9678                22.7981

                     55                     56                     57
                      A                      A                      A
 Frequencies --   1413.7339              1423.5691              1436.7695
 Red. masses --      1.2957                 1.3117                 1.2807
 Frc consts  --      1.5258                 1.5662                 1.5576
 IR Inten    --      5.5460                27.8253                13.5102

                     58                     59                     60
                      A                      A                      A
 Frequencies --   1469.0657              1493.9905              1509.3771
 Red. masses --      1.9423                 1.1043                 1.1464
 Frc consts  --      2.4698                 1.4522                 1.5388
 IR Inten    --    104.0580                 3.4932                23.4117

                     61                     62                     63
                      A                      A                      A
 Frequencies --   1514.7569              1520.4592              1530.5972
 Red. masses --      1.0868                 1.0481                 1.1001
 Frc consts  --      1.4692                 1.4275                 1.5185
 IR Inten    --      0.7397                 3.3704                 3.5474

                     64                     65                     66
                      A                      A                      A
 Frequencies --   1532.6442              1536.5418              1551.1198
 Red. masses --      1.0955                 1.0517                 1.1028
 Frc consts  --      1.5162                 1.4630                 1.5633
 IR Inten    --      4.1968                 6.3312                 1.9412

                     67                     68                     69
                      A                      A                      A
 Frequencies --   1768.3063              2373.5688              3051.6267
 Red. masses --     10.5428                12.5927                 1.0403
 Frc consts  --     19.4232                41.7996                 5.7079
 IR Inten    --    227.4413                 4.9388                10.8943

                     70                     71                     72
                      A                      A                      A
 Frequencies --   3056.0357              3056.4637              3063.6304
 Red. masses --      1.0652                 1.0681                 1.0634
 Frc consts  --      5.8616                 5.8788                 5.8803
 IR Inten    --     39.1606                29.4292                 8.0490

                     73                     74                     75
                      A                      A                      A
 Frequencies --   3068.3355              3070.6857              3076.4208
 Red. masses --      1.0600                 1.0674                 1.0636
 Frc consts  --      5.8798                 5.9298                 5.9307
 IR Inten    --     17.4047                51.5056                24.0629

                     76                     77                     78
                      A                      A                      A
 Frequencies --   3104.0841              3105.1973              3112.8571
 Red. masses --      1.0985                 1.1009                 1.1003
 Frc consts  --      6.2362                 6.2545                 6.2819
 IR Inten    --      7.2594                 9.6020                26.6909

                     79                     80                     81
                      A                      A                      A
 Frequencies --   3117.5281              3123.5370              3134.1374
 Red. masses --      1.0930                 1.1014                 1.1070
 Frc consts  --      6.2589                 6.3311                 6.4068
 IR Inten    --      8.6314                33.5976                51.4037

                     82                     83                     84
                      A                      A                      A
 Frequencies --   3144.2013              3155.0357              3164.2160
 Red. masses --      1.0973                 1.1007                 1.0921
 Frc consts  --      6.3916                 6.4552                 6.4422
 IR Inten    --     15.8987                14.5883                10.4211

 - Thermochemistry -
 -------------------
 Temperature   298.150 Kelvin.  Pressure   1.00000 Atm.
 Atom     1 has atomic number  6 and mass  12.00000

 Molecular mass:   196.12118 amu.
 Principal axes and moments of inertia in atomic units:
                           1         2         3
     Eigenvalues --  2158.035333349.348864482.88313
           X            0.99885  -0.04789   0.00249
           Y            0.04791   0.99879  -0.01070
           Z           -0.00198   0.01080   0.99994
 This molecule is an asymmetric top.
 Rotational symmetry number  1.
 Warning -- assumption of classical behavior for rotation
           may cause significant error
 Rotational temperatures (Kelvin)      0.04014     0.02586     0.01932
 Rotational constants (GHZ):           0.83629     0.53883     0.40258
 Zero-point vibrational energy     678970.5 (Joules/Mol)
                                  162.27785 (Kcal/Mol)
 Warning -- explicit consideration of  20 degrees of freedom as
           vibrations may cause significant error
 Vibrational temperatures:     56.36    68.94    83.14   101.19   122.11
          (Kelvin)            133.47   195.84   217.42   285.04   338.73
                              371.22   409.66   457.11   518.83   534.95
                              553.23   622.92   730.64   825.61   866.54
                              899.91  1011.62  1061.15  1106.07  1136.48
                             1193.11  1262.89  1266.75  1334.46  1341.12
                             1344.56  1376.40  1416.25  1459.26  1484.19
                             1505.48  1532.85  1606.21  1607.95  1627.31
                             1665.54  1750.33  1760.93  1774.37  1817.59
                             1826.60  1837.90  1892.43  1925.19  1935.35
                             1947.82  1979.56  1996.41  2016.45  2034.05
                             2048.20  2067.19  2113.66  2149.52  2171.66
                             2179.40  2187.60  2202.19  2205.13  2210.74
                             2231.72  2544.20  3415.04  4390.61  4396.95
                             4397.57  4407.88  4414.65  4418.03  4426.28
                             4466.08  4467.69  4478.71  4485.43  4494.07
                             4509.32  4523.80  4539.39  4552.60

 Zero-point correction=                           0.258606 (Hartree/Particle)
 Thermal correction to Energy=                    0.273160
 Thermal correction to Enthalpy=                  0.274104
 Thermal correction to Gibbs Free Energy=         0.215654
 Sum of electronic and zero-point Energies=           -650.424222
 Sum of electronic and thermal Energies=              -650.409668
 Sum of electronic and thermal Enthalpies=            -650.408724
 Sum of electronic and thermal Free Energies=         -650.467174

                     E (Thermal)             CV                S
                      KCal/Mol        Cal/Mol-Kelvin    Cal/Mol-Kelvin
 Total                  171.410             52.679            123.019
 Electronic               0.000              0.000              0.000
 Translational            0.889              2.981             41.726
 Rotational               0.889              2.981             31.850
 Vibrational            169.633             46.718             49.444
 Vibration     1          0.594              1.981              5.300
 Vibration     2          0.595              1.978              4.902
 Vibration     3          0.596              1.974              4.532
 Vibration     4          0.598              1.968              4.144
 Vibration     5          0.601              1.960              3.775
 Vibration     6          0.602              1.954              3.601
 Vibration     7          0.614              1.917              2.858
 Vibration     8          0.619              1.901              2.658
 Vibration     9          0.637              1.843              2.151
 Vibration    10          0.655              1.787              1.837
 Vibration    11          0.667              1.749              1.675
 Vibration    12          0.683              1.702              1.505
 Vibration    13          0.704              1.640              1.322
 Vibration    14          0.735              1.553              1.119
 Vibration    15          0.744              1.530              1.072
 Vibration    16          0.753              1.503              1.021
 Vibration    17          0.794              1.398              0.849
 Vibration    18          0.863              1.233              0.639
 Vibration    19          0.930              1.088              0.497
 Vibration    20          0.961              1.027              0.446

 Optimization completed.
    -- Stationary point found.
 Normal termination of Gaussian 16 at Thu Dec 10 09:35:29 2020.

 ----------------------------------------------------------------------
 # B3LYP/6-311++G(d,p) empiricaldispersion=gd3bj scf=xqc pop=npa geom=c
 heck
 ----------------------------------------------------------------------

 --------------------------------------
 CID_61576893_JID_4278_Energie_neutraal
 --------------------------------------
 Structure from the checkpoint file:  "JID_4278.chk"
 Charge =  0 Multiplicity = 1

 SCF Done:  E(RB3LYP) =  -650.867957409     A.U. after   14 cycles
 Normal termination of Gaussian 16 at Thu Dec 10 09:39:32 2020.

 ----------------------------------------------------------------------
 # B3LYP/6-311++G(d,p) empiricaldispersion=gd3bj scf=xqc pop=npa geom=c
 heck
 ----------------------------------------------------------------------

 ------------------------------------
 CID_61576893_JID_4278_Energie_kation
 ------------------------------------
 Structure from the checkpoint file:  "JID_4278.chk"
 Charge =  1 Multiplicity = 2

 SCF Done:  E(UB3LYP) =  -650.548119660     A.U. after   29 cycles
 Normal termination of Gaussian 16 at Thu Dec 10 09:51:28 2020.
 Gaussian 16:  ES64L-G16RevA.03 25-Dec-2016

 ----------------------------------------------------------------------
 # B3LYP/6-311++G(d,p) empiricaldispersion=gd3bj scf=xqc pop=npa geom=c
 heck
 ----------------------------------------------------------------------

 -----------------------------------
 CID_61576893_JID_4278_Energie_anion
 -----------------------------------
 Structure from the checkpoint file:  "JID_4278.chk"
 Charge = -1 Multiplicity = 2

                         Standard orientation:
 ---------------------------------------------------------------------
 Center     Atomic      Atomic             Coordinates (Angstroms)
 Number     Number       Type             X           Y           Z
 ---------------------------------------------------------------------
      1          6           0       -1.694062    2.994103    0.246518
      2          6           0       -1.955763    1.691856   -0.510268
      3          7           0       -1.111246    0.589807   -0.035729
      4          6           0       -1.622099   -0.205803    1.063080
      5          6           0       -2.647993   -1.276271    0.621585
      6          6           0       -2.047031   -2.305081   -0.227149
      7          7           0       -1.541388   -3.116266   -0.885124
      8          6           0        0.169931    0.514157   -0.542162
      9          8           0        0.563913    1.313482   -1.380606
     10          6           0        1.105609   -0.573727    0.016909
     11          6           0        1.754410   -0.086718    1.354964
     12          6           0        3.262566   -0.067422    1.031134
     13          6           0        3.265830    0.013608   -0.497865
     14          8           0        2.165956   -0.806482   -0.889753
     15          1           0       -1.864992    2.874503    1.323107
     16          1           0       -2.356816    3.788493   -0.114062
     17          1           0       -0.659129    3.309116    0.089005
     18          1           0       -3.002304    1.384517   -0.404383
     19          1           0       -1.751405    1.826959   -1.573328
     20          1           0       -0.803487   -0.686109    1.598522
     21          1           0       -2.119779    0.456609    1.781904
     22          1           0       -3.082016   -1.755567    1.507581
     23          1           0       -3.472025   -0.804097    0.075138
     24          1           0        0.576987   -1.523677    0.123950
     25          1           0        1.397283    0.913917    1.620610
     26          1           0        1.517966   -0.754498    2.188589
     27          1           0        3.786211    0.766294    1.508276
     28          1           0        3.733268   -1.001045    1.355108
     29          1           0        3.117042    1.042303   -0.849235
     30          1           0        4.164297   -0.400709   -0.962417
 ---------------------------------------------------------------------

 SCF Done:  E(UB3LYP) =  -650.864895191     A.U. after   26 cycles

 The electronic state is 2-A.
 Alpha  occ. eigenvalues --  -19.03054 -18.99068 -14.24763 -14.21351 -10.17210
 Alpha  occ. eigenvalues --  -10.13429 -10.12560 -10.12327 -10.11588 -10.11376
 Alpha  occ. eigenvalues --  -10.10657 -10.08767 -10.08680 -10.06528  -0.96145
 Alpha  occ. eigenvalues --   -0.93535  -0.84630  -0.81069  -0.70242  -0.69773
 Alpha  occ. eigenvalues --   -0.67414  -0.64630  -0.58381  -0.55869  -0.51234
 Alpha  occ. eigenvalues --   -0.51045  -0.45124  -0.43291  -0.42407  -0.41029
 Alpha  occ. eigenvalues --   -0.39547  -0.38546  -0.36114  -0.34789  -0.34507
 Alpha  occ. eigenvalues --   -0.33382  -0.32860  -0.31325  -0.30794  -0.29836
 Alpha  occ. eigenvalues --   -0.29492  -0.27552  -0.26981  -0.26658  -0.26390
 Alpha  occ. eigenvalues --   -0.25311  -0.24743  -0.23724  -0.23187  -0.22900
 Alpha  occ. eigenvalues --   -0.18399  -0.15362  -0.15035   0.03905
 Alpha virt. eigenvalues --    0.06373   0.07166   0.07871   0.08749   0.09156
 Alpha virt. eigenvalues --    0.09575   0.10230   0.10873   0.11011   0.11721
 Alpha virt. eigenvalues --    0.12082   0.12312   0.12660   0.12821   0.13355

  Beta  occ. eigenvalues --  -19.03053 -18.99057 -14.24766 -14.21325 -10.17206
  Beta  occ. eigenvalues --  -10.13425 -10.12510 -10.12325 -10.11525 -10.11372
  Beta  occ. eigenvalues --  -10.10633 -10.08742 -10.08672 -10.06499  -0.96136
  Beta  occ. eigenvalues --   -0.93524  -0.84611  -0.81022  -0.70155  -0.69747
  Beta  occ. eigenvalues --   -0.67387  -0.64593  -0.58276  -0.55822  -0.51196
  Beta  occ. eigenvalues --   -0.51007  -0.45063  -0.43245  -0.42351  -0.40982
  Beta  occ. eigenvalues --   -0.39520  -0.38507  -0.36046  -0.34730  -0.34459
  Beta  occ. eigenvalues --   -0.33351  -0.32836  -0.31270  -0.30762  -0.29786
  Beta  occ. eigenvalues --   -0.29453  -0.27512  -0.26942  -0.26617  -0.26361
  Beta  occ. eigenvalues --   -0.25283  -0.24715  -0.23652  -0.23150  -0.22859
  Beta  occ. eigenvalues --   -0.18392  -0.15338  -0.15018
  Beta virt. eigenvalues --    0.06315   0.07225   0.07812   0.08417   0.09105
  Beta virt. eigenvalues --    0.09449   0.10027   0.10719   0.11049   0.11201
  Beta virt. eigenvalues --    0.11989   0.12242   0.12662   0.12912   0.13060

 Mulliken charges and spin densities:
               1          2
     1  C    0.569405  -1.009321
     2  C   -0.103828  -0.019083
     3  N    0.230480   0.002440
     4  C   -0.039836  -0.127623
     5  C    0.923152  -1.254823
     6  C    0.412202  -0.370541
     7  N   -0.342269   0.046993
     8  C   -0.085052  -0.187118
     9  O   -0.293214   0.001205
    10  C   -0.479112   0.326962
    11  C    0.417325  -0.629176
    12  C   -0.110080  -0.314192
    13  C   -0.169385  -0.070038
    14  O   -0.066131  -0.010921
    15  H   -0.046114   0.195958
    16  H   -0.116582   0.256762
    17  H    0.035744   0.130321
    18  H   -0.320096   0.452904
    19  H    0.178379   0.014405
    20  H    0.236392  -0.070008
    21  H   -1.121288   1.347317
    22  H   -0.875997   1.097477
    23  H   -0.074262   0.248043
    24  H    0.135048   0.114300
    25  H    0.114972   0.069421
    26  H   -0.398939   0.559646
    27  H   -0.006745   0.139778
    28  H    0.146412   0.008678
    29  H    0.157272  -0.000558
    30  H    0.092146   0.050792
 Sum of Mulliken charges =  -1.00000   1.00000

 Dipole moment (field-independent basis, Debye):
    X=              6.8964    Y=              2.3617    Z=             -2.7982  Tot=              7.8081
 Quadrupole moment (field-independent basis, Debye-Ang):
   XX=           -137.0350   YY=           -132.0714   ZZ=           -131.9419
   XY=             -1.5995   XZ=             16.4643   YZ=             -1.7111

 Summary of Natural Population Analysis:

                                       Natural Population
                Natural  -----------------------------------------------
    Atom  No    Charge         Core      Valence    Rydberg      Total
 -----------------------------------------------------------------------
      C    1   -0.29130      0.99966     2.28683    0.00481     3.29130
      C    2   -0.08630      0.99961     2.07544    0.01124     3.08630
      N    3   -0.26208      0.99964     2.74997    0.01247     3.76208
      C    4   -0.08208      0.99959     2.06858    0.01392     3.08208
      C    5   -0.25268      0.99953     2.24255    0.01059     3.25268
      C    6    0.16287      0.99965     1.82117    0.01631     2.83713
      N    7   -0.18437      0.99979     2.67374    0.01084     3.68437
      C    8    0.34355      0.99962     1.63236    0.02447     2.65645
      O    9   -0.32337      0.99988     3.31832    0.00517     4.32337
      C   10    0.02090      0.99954     1.96443    0.01513     2.97910
      C   11   -0.20279      0.99962     2.19500    0.00816     3.20279
      C   12   -0.20510      0.99964     2.19746    0.00800     3.20510
      C   13   -0.01352      0.99960     2.00294    0.01098     3.01352
      O   14   -0.28964      0.99989     3.28159    0.00817     4.28964
      H   15    0.10053      0.00000     0.39822    0.00125     0.39947
      H   16    0.09869      0.00000     0.40052    0.00079     0.40131
      H   17    0.10326      0.00000     0.39574    0.00100     0.39674
      H   18    0.09587      0.00000     0.40258    0.00155     0.40413
      H   19    0.10713      0.00000     0.39176    0.00112     0.39287
      H   20    0.10563      0.00000     0.39120    0.00317     0.39437
      H   21    0.11176      0.00000     0.37914    0.00911     0.38824
      H   22    0.13090      0.00000     0.36294    0.00617     0.36910
      H   23    0.12226      0.00000     0.37544    0.00229     0.37774
      H   24    0.10663      0.00000     0.39117    0.00220     0.39337
      H   25    0.10214      0.00000     0.39635    0.00151     0.39786
      H   26    0.10768      0.00000     0.39092    0.00141     0.39232
      H   27    0.10083      0.00000     0.39832    0.00084     0.39917
      H   28    0.09754      0.00000     0.40145    0.00101     0.40246
      H   29    0.08785      0.00000     0.41075    0.00140     0.41215
      H   30    0.08719      0.00000     0.41169    0.00111     0.41281
 =======================================================================
   * Total *   -0.00000     13.99527    38.80855    0.19618    53.00000

 Normal termination of Gaussian 16 at Thu Dec 10 10:02:26 2020.
