 Gaussian 16, Revision A.03,

 -----------------------------------------------------------
 # opt freq B3LYP/6-31G(d) empiricaldispersion=gd3bj scf=xqc
 -----------------------------------------------------------

 ------------------------------
 CID_20755662_JID_8231_neutraal
 ------------------------------
 Symbolic Z-matrix:
 Charge =  0 Multiplicity = 1

 SCF Done:  E(RB3LYP) =  -1575.22235439     A.U. after   15 cycles
 SCF Done:  E(RB3LYP) =  -1575.23222326     A.U. after   15 cycles
 SCF Done:  E(RB3LYP) =  -1575.22671064     A.U. after   16 cycles
 SCF Done:  E(RB3LYP) =  -1575.23692355     A.U. after   14 cycles
 SCF Done:  E(RB3LYP) =  -1575.23899057     A.U. after   16 cycles
 SCF Done:  E(RB3LYP) =  -1575.24378374     A.U. after   14 cycles
 SCF Done:  E(RB3LYP) =  -1575.24449085     A.U. after   13 cycles
 SCF Done:  E(RB3LYP) =  -1575.24511278     A.U. after   13 cycles
 SCF Done:  E(RB3LYP) =  -1575.24553640     A.U. after   13 cycles
 SCF Done:  E(RB3LYP) =  -1575.24578982     A.U. after   13 cycles
 SCF Done:  E(RB3LYP) =  -1575.24719306     A.U. after   10 cycles
 SCF Done:  E(RB3LYP) =  -1575.24719399     A.U. after    9 cycles
 SCF Done:  E(RB3LYP) =  -1575.24719447     A.U. after    8 cycles
 SCF Done:  E(RB3LYP) =  -1575.24719475     A.U. after    8 cycles
 SCF Done:  E(RB3LYP) =  -1575.24719487     A.U. after    8 cycles
 SCF Done:  E(RB3LYP) =  -1575.24719490     A.U. after    7 cycles
 Optimization completed.
    -- Stationary point found.
 Normal termination of Gaussian 16 at Fri Dec 11 19:54:53 2020.

 --------------------------------------------------------------------
 #N Geom=AllCheck Guess=TCheck SCRF=Check GenChk RB3LYP/6-31G(d) Freq
 --------------------------------------------------------------------

 Structure from the checkpoint file:  "JID_8231.chk"
 ------------------------------
 CID_20755662_JID_8231_neutraal
 ------------------------------
 Charge =  0 Multiplicity = 1

 SCF Done:  E(RB3LYP) =  -1575.24719490     A.U. after    1 cycles

  Exact polarizability: 197.767   6.208 145.780  -6.220  -5.668 134.152
 Approx polarizability: 300.764  31.021 214.090 -20.146 -19.866 257.111

                      1                      2                      3
                      A                      A                      A
 Frequencies --     16.7491                27.8209                44.8070
 Red. masses --      8.1649                 6.5634                10.6199
 Frc consts  --      0.0013                 0.0030                 0.0126
 IR Inten    --      1.0549                 0.6579                 1.2850

                      4                      5                      6
                      A                      A                      A
 Frequencies --     59.5571                72.6903                82.0429
 Red. masses --      9.9294                 7.4252                 7.2607
 Frc consts  --      0.0208                 0.0231                 0.0288
 IR Inten    --      1.3532                 0.6404                 0.6915

                      7                      8                      9
                      A                      A                      A
 Frequencies --     98.7811               115.5383               134.0093
 Red. masses --      7.6350                 4.6532                 5.8269
 Frc consts  --      0.0439                 0.0366                 0.0617
 IR Inten    --      0.6875                 3.8527                 1.6833

                     10                     11                     12
                      A                      A                      A
 Frequencies --    151.2221               176.2239               184.2663
 Red. masses --      9.0469                 5.3573                 3.3978
 Frc consts  --      0.1219                 0.0980                 0.0680
 IR Inten    --      8.6227                 1.0071                 4.6102

                     13                     14                     15
                      A                      A                      A
 Frequencies --    246.7462               292.8316               299.6547
 Red. masses --      4.5636                 2.8238                 4.2214
 Frc consts  --      0.1637                 0.1427                 0.2233
 IR Inten    --      2.3195                 9.8435                 0.5270

                     16                     17                     18
                      A                      A                      A
 Frequencies --    306.2087               317.7203               364.3876
 Red. masses --      3.1907                 4.0769                 4.6284
 Frc consts  --      0.1763                 0.2425                 0.3621
 IR Inten    --      0.8967                 7.1266                24.5450

                     19                     20                     21
                      A                      A                      A
 Frequencies --    371.5318               430.2220               487.5099
 Red. masses --      4.6845                 3.5550                 2.5133
 Frc consts  --      0.3810                 0.3877                 0.3519
 IR Inten    --      9.8484                22.4385                32.7619

                     22                     23                     24
                      A                      A                      A
 Frequencies --    492.3786               506.4422               528.6013
 Red. masses --      5.5451                 3.1709                 3.5960
 Frc consts  --      0.7921                 0.4792                 0.5920
 IR Inten    --     24.3026                 8.6784                49.8613

                     25                     26                     27
                      A                      A                      A
 Frequencies --    570.7910               579.7179               603.2593
 Red. masses --      3.9526                 1.7047                 3.1144
 Frc consts  --      0.7587                 0.3376                 0.6678
 IR Inten    --      1.6458                64.9746                 3.7453

                     28                     29                     30
                      A                      A                      A
 Frequencies --    610.7061               636.9411               676.0476
 Red. masses --      4.8662                 2.2647                 2.9206
 Frc consts  --      1.0693                 0.5413                 0.7865
 IR Inten    --     19.5635                 0.7734                67.5048

                     31                     32                     33
                      A                      A                      A
 Frequencies --    684.0301               709.8020               732.4237
 Red. masses --      1.8931                 6.3607                 5.0298
 Frc consts  --      0.5219                 1.8881                 1.5897
 IR Inten    --     76.5479                19.1742                 7.4669

                     34                     35                     36
                      A                      A                      A
 Frequencies --    766.6271               773.2377               841.4782
 Red. masses --      6.3461                 3.4701                 2.1257
 Frc consts  --      2.1975                 1.2224                 0.8868
 IR Inten    --      1.2608                 6.8209                49.2926

                     37                     38                     39
                      A                      A                      A
 Frequencies --    842.9068               877.0236               938.1420
 Red. masses --      2.9952                 2.0500                 2.5622
 Frc consts  --      1.2538                 0.9290                 1.3286
 IR Inten    --     28.3797                20.3067                16.9093

                     40                     41                     42
                      A                      A                      A
 Frequencies --    946.7834               963.5912               973.3082
 Red. masses --      2.5690                 2.3576                 1.2769
 Frc consts  --      1.3568                 1.2898                 0.7127
 IR Inten    --     18.3791                 9.1205                 0.6946

                     43                     44                     45
                      A                      A                      A
 Frequencies --   1038.6793              1046.6225              1068.6410
 Red. masses --      1.6394                 1.5710                 1.6895
 Frc consts  --      1.0421                 1.0139                 1.1368
 IR Inten    --      8.0321                 6.9751                 8.7898

                     46                     47                     48
                      A                      A                      A
 Frequencies --   1078.9552              1098.0872              1145.7930
 Red. masses --      2.0550                 2.2878                 2.3728
 Frc consts  --      1.4095                 1.6254                 1.8353
 IR Inten    --      2.6893                24.8936                12.2084

                     49                     50                     51
                      A                      A                      A
 Frequencies --   1148.0869              1165.1737              1168.9576
 Red. masses --      2.6469                 2.7134                 2.6187
 Frc consts  --      2.0556                 2.1704                 2.1083
 IR Inten    --      3.7629                12.6870                35.4618

                     52                     53                     54
                      A                      A                      A
 Frequencies --   1215.7685              1233.2386              1271.1584
 Red. masses --      2.1819                 1.5704                 1.3745
 Frc consts  --      1.9001                 1.4072                 1.3086
 IR Inten    --    170.7687                61.2616                12.0963

                     55                     56                     57
                      A                      A                      A
 Frequencies --   1306.4243              1326.7894              1337.2454
 Red. masses --      1.2815                 1.4867                 1.7280
 Frc consts  --      1.2887                 1.5420                 1.8206
 IR Inten    --     28.3739                15.1287                 2.1620

                     58                     59                     60
                      A                      A                      A
 Frequencies --   1365.0149              1369.6412              1403.1210
 Red. masses --      1.5404                 1.1542                 1.6494
 Frc consts  --      1.6910                 1.2757                 1.9133
 IR Inten    --     98.9938                53.5488                60.2098

                     61                     62                     63
                      A                      A                      A
 Frequencies --   1412.2455              1428.4774              1434.7819
 Red. masses --      1.5169                 1.3607                 2.2608
 Frc consts  --      1.7825                 1.6359                 2.7421
 IR Inten    --     87.8108                 9.5826               106.9188

                     64                     65                     66
                      A                      A                      A
 Frequencies --   1442.1980              1490.7868              1500.0316
 Red. masses --      1.7656                 1.6162                 1.1351
 Frc consts  --      2.1637                 2.1163                 1.5048
 IR Inten    --     56.7087                36.4402                25.2927

                     67                     68                     69
                      A                      A                      A
 Frequencies --   1511.0583              1513.6009              1521.7452
 Red. masses --      1.1275                 1.2449                 1.1984
 Frc consts  --      1.5168                 1.6803                 1.6351
 IR Inten    --     60.5527                57.2080                36.1790

                     70                     71                     72
                      A                      A                      A
 Frequencies --   1544.5178              1657.9469              1792.1447
 Red. masses --      1.0915                 6.6644                 9.5767
 Frc consts  --      1.5341                10.7933                18.1223
 IR Inten    --     18.7540                 2.8791               404.2934

                     73                     74                     75
                      A                      A                      A
 Frequencies --   1798.4919              1857.0241              2977.3609
 Red. masses --     10.0071                11.7221                 1.0706
 Frc consts  --     19.0711                23.8173                 5.5916
 IR Inten    --    503.4812                23.6208                80.0441

                     76                     77                     78
                      A                      A                      A
 Frequencies --   3071.5201              3074.5460              3082.3739
 Red. masses --      1.0741                 1.0692                 1.0750
 Frc consts  --      5.9704                 5.9549                 6.0178
 IR Inten    --      4.6327                 6.3415                52.8027

                     79                     80                     81
                      A                      A                      A
 Frequencies --   3107.6945              3127.9562              3132.5285
 Red. masses --      1.0598                 1.1030                 1.0868
 Frc consts  --      6.0304                 6.3585                 6.2835
 IR Inten    --      6.0760                23.5440                12.5062

                     82                     83                     84
                      A                      A                      A
 Frequencies --   3137.2794              3162.6678              3253.8002
 Red. masses --      1.0976                 1.1077                 1.0904
 Frc consts  --      6.3648                 6.5283                 6.8014
 IR Inten    --     19.0120                 0.8732                 0.6967

                     85                     86                     87
                      A                      A                      A
 Frequencies --   3274.9500              3551.8272              3596.9929
 Red. masses --      1.1072                 1.0742                 1.0763
 Frc consts  --      6.9965                 7.9842                 8.2049
 IR Inten    --      0.6541                28.7217                28.3008

 - Thermochemistry -
 -------------------
 Temperature   298.150 Kelvin.  Pressure   1.00000 Atm.
 Atom     1 has atomic number  6 and mass  12.00000

 Molecular mass:   287.03984 amu.
 Principal axes and moments of inertia in atomic units:
                           1         2         3
     Eigenvalues --  3854.936686819.396988873.04135
           X            0.99996  -0.00849   0.00180
           Y            0.00846   0.99982   0.01725
           Z           -0.00195  -0.01724   0.99985
 This molecule is an asymmetric top.
 Rotational symmetry number  1.
 Warning -- assumption of classical behavior for rotation
           may cause significant error
 Rotational temperatures (Kelvin)      0.02247     0.01270     0.00976
 Rotational constants (GHZ):           0.46816     0.26465     0.20340
 Zero-point vibrational energy     626715.8 (Joules/Mol)
                                  149.78868 (Kcal/Mol)
 Warning -- explicit consideration of  28 degrees of freedom as
           vibrations may cause significant error
 Vibrational temperatures:     24.10    40.03    64.47    85.69   104.59
          (Kelvin)            118.04   142.12   166.23   192.81   217.57
                              253.55   265.12   355.01   421.32   431.14
                              440.57   457.13   524.27   534.55   618.99
                              701.42   708.42   728.66   760.54   821.24
                              834.08   867.96   878.67   916.42   972.68
                              984.17  1021.25  1053.79  1103.01  1112.52
                             1210.70  1212.75  1261.84  1349.78  1362.21
                             1386.39  1400.37  1494.43  1505.86  1537.54
                             1552.38  1579.90  1648.54  1651.84  1676.43
                             1681.87  1749.22  1774.36  1828.91  1879.65
                             1908.95  1924.00  1963.95  1970.61  2018.78
                             2031.91  2055.26  2064.33  2075.00  2144.91
                             2158.21  2174.08  2177.73  2189.45  2222.22
                             2385.42  2578.50  2587.63  2671.84  4283.76
                             4419.23  4423.59  4434.85  4471.28  4500.43
                             4507.01  4513.85  4550.37  4681.49  4711.92
                             5110.29  5175.27

 Zero-point correction=                           0.238703 (Hartree/Particle)
 Thermal correction to Energy=                    0.256663
 Thermal correction to Enthalpy=                  0.257607
 Thermal correction to Gibbs Free Energy=         0.189795
 Sum of electronic and zero-point Energies=          -1575.008491
 Sum of electronic and thermal Energies=             -1574.990532
 Sum of electronic and thermal Enthalpies=           -1574.989588
 Sum of electronic and thermal Free Energies=        -1575.057400

                     E (Thermal)             CV                S
                      KCal/Mol        Cal/Mol-Kelvin    Cal/Mol-Kelvin
 Total                  161.058             65.139            142.723
 Electronic               0.000              0.000              0.000
 Translational            0.889              2.981             42.861
 Rotational               0.889              2.981             33.811
 Vibrational            159.281             59.177             66.051
 Vibration     1          0.593              1.986              6.986
 Vibration     2          0.593              1.984              5.979
 Vibration     3          0.595              1.979              5.034
 Vibration     4          0.597              1.974              4.472
 Vibration     5          0.599              1.967              4.079
 Vibration     6          0.600              1.961              3.841
 Vibration     7          0.604              1.950              3.478
 Vibration     8          0.608              1.937              3.174
 Vibration     9          0.613              1.919              2.888
 Vibration    10          0.619              1.901              2.657
 Vibration    11          0.628              1.872              2.368
 Vibration    12          0.631              1.861              2.285
 Vibration    13          0.661              1.768              1.754
 Vibration    14          0.688              1.687              1.458
 Vibration    15          0.692              1.674              1.419
 Vibration    16          0.697              1.662              1.383
 Vibration    17          0.704              1.640              1.322
 Vibration    18          0.738              1.546              1.103
 Vibration    19          0.743              1.531              1.073
 Vibration    20          0.791              1.404              0.858
 Vibration    21          0.843              1.278              0.690
 Vibration    22          0.848              1.267              0.677
 Vibration    23          0.862              1.236              0.642
 Vibration    24          0.884              1.187              0.590
 Vibration    25          0.927              1.094              0.503
 Vibration    26          0.936              1.075              0.486
 Vibration    27          0.962              1.025              0.444
 Vibration    28          0.970              1.009              0.432

                           ! Non-Optimized Parameters !
 Normal termination of Gaussian 16 at Fri Dec 11 20:10:08 2020.

 ----------------------------------------------------------------------
 # B3LYP/6-311++G(d,p) empiricaldispersion=gd3bj scf=xqc pop=npa geom=c
 heck
 ----------------------------------------------------------------------

 --------------------------------------
 CID_20755662_JID_8231_Energie_neutraal
 --------------------------------------
 Structure from the checkpoint file:  "JID_8231.chk"
 Charge =  0 Multiplicity = 1

 SCF Done:  E(RB3LYP) =  -1575.52908045     A.U. after   18 cycles
 Normal termination of Gaussian 16 at Fri Dec 11 20:16:14 2020.

 ----------------------------------------------------------------------
 # B3LYP/6-311++G(d,p) empiricaldispersion=gd3bj scf=xqc pop=npa geom=c
 heck
 ----------------------------------------------------------------------

 ------------------------------------
 CID_20755662_JID_8231_Energie_kation
 ------------------------------------
 Structure from the checkpoint file:  "JID_8231.chk"
 Charge =  1 Multiplicity = 2

 SCF Done:  E(UB3LYP) =  -1575.23653108     A.U. after   32 cycles
 Normal termination of Gaussian 16 at Fri Dec 11 20:31:38 2020.
 Gaussian 16:  ES64L-G16RevA.03 25-Dec-2016

 ----------------------------------------------------------------------
 # B3LYP/6-311++G(d,p) empiricaldispersion=gd3bj scf=xqc pop=npa geom=c
 heck
 ----------------------------------------------------------------------

 -----------------------------------
 CID_20755662_JID_8231_Energie_anion
 -----------------------------------
 Structure from the checkpoint file:  "JID_8231.chk"
 Charge = -1 Multiplicity = 2

                         Standard orientation:
 ---------------------------------------------------------------------
 Center     Atomic      Atomic             Coordinates (Angstroms)
 Number     Number       Type             X           Y           Z
 ---------------------------------------------------------------------
      1          6           0       -0.181215   -2.429136   -0.280568
      2          6           0       -1.088550   -3.022572    0.501328
      3          6           0       -2.320887   -2.165906    0.541818
      4          8           0       -3.355361   -2.361440    1.143506
      5          7           0       -2.048351   -1.054118   -0.270124
      6          6           0       -0.759468   -1.139291   -0.792115
      7          8           0       -0.220322   -0.307853   -1.498044
      8          6           0       -3.004216    0.020005   -0.509349
      9          6           0       -2.697165    1.301138    0.282506
     10          6           0       -1.767118    2.229483   -0.497120
     11          8           0       -2.036037    2.537623   -1.649589
     12          7           0       -0.667419    2.744327    0.137038
     13          6           0       -0.133464    2.433521    1.456285
     14          6           0        0.597496    1.088925    1.523677
     15          7           0        1.636054    1.038650    0.506670
     16          6           0        2.402393   -0.141118    0.472393
     17         16           0        2.959678   -0.786520   -1.120459
     18         16           0        4.262555   -0.078638    0.412484
     19          1           0        0.819895   -2.745502   -0.545007
     20          1           0       -1.025170   -3.957594    1.042292
     21          1           0       -3.019683    0.256056   -1.575886
     22          1           0       -3.974046   -0.384161   -0.214640
     23          1           0       -3.634015    1.857931    0.400537
     24          1           0       -2.343669    1.046178    1.283971
     25          1           0       -0.127552    3.362067   -0.456659
     26          1           0        0.568872    3.232146    1.709037
     27          1           0       -0.931859    2.454525    2.205169
     28          1           0        1.059539    0.995024    2.513606
     29          1           0       -0.131860    0.265678    1.428214
     30          1           0        1.271384    1.271767   -0.411938
     31          1           0        2.077387   -0.910532    1.173712
 ---------------------------------------------------------------------

 SCF Done:  E(UB3LYP) =  -1575.58397584     A.U. after   25 cycles

 The electronic state is 2-A.
 Alpha  occ. eigenvalues --  -88.75358 -88.74352 -18.98853 -18.95136 -18.95080
 Alpha  occ. eigenvalues --  -14.24732 -14.21524 -14.20942 -10.17762 -10.16208
 Alpha  occ. eigenvalues --  -10.13326 -10.11957 -10.11941 -10.11287 -10.09716
 Alpha  occ. eigenvalues --  -10.08373 -10.02579 -10.02484  -7.83842  -7.82893
 Alpha  occ. eigenvalues --   -5.80302  -5.79969  -5.79357  -5.79063  -5.78973
 Alpha  occ. eigenvalues --   -5.78156  -0.94216  -0.91525  -0.89578  -0.84877
 Alpha  occ. eigenvalues --   -0.82494  -0.80986  -0.73399  -0.69413  -0.65700
 Alpha  occ. eigenvalues --   -0.64012  -0.56267  -0.54470  -0.52276  -0.51470
 Alpha  occ. eigenvalues --   -0.51007  -0.48007  -0.45128  -0.42228  -0.41391
 Alpha  occ. eigenvalues --   -0.40698  -0.39197  -0.37968  -0.36020  -0.35175
 Alpha  occ. eigenvalues --   -0.33865  -0.33107  -0.31959  -0.31451  -0.30463
 Alpha  occ. eigenvalues --   -0.30010  -0.29653  -0.29200  -0.28203  -0.27069
 Alpha  occ. eigenvalues --   -0.26436  -0.26160  -0.25645  -0.24821  -0.24062
 Alpha  occ. eigenvalues --   -0.22851  -0.18219  -0.16836  -0.16250  -0.15744
 Alpha  occ. eigenvalues --   -0.14012  -0.13521  -0.12852  -0.11432  -0.09887
 Alpha  occ. eigenvalues --    0.00920
 Alpha virt. eigenvalues --    0.03735   0.06767   0.08463   0.08539   0.09376
 Alpha virt. eigenvalues --    0.09649   0.10397   0.10901   0.11527   0.11984
 Alpha virt. eigenvalues --    0.12128   0.12705   0.13168   0.13772   0.14536

  Beta  occ. eigenvalues --  -88.75325 -88.74321 -18.98854 -18.94725 -18.94640
  Beta  occ. eigenvalues --  -14.24731 -14.21527 -14.21034 -10.17762 -10.16185
  Beta  occ. eigenvalues --  -10.13326 -10.11778 -10.11731 -10.11286 -10.09714
  Beta  occ. eigenvalues --  -10.08376 -10.02308 -10.02224  -7.83811  -7.82864
  Beta  occ. eigenvalues --   -5.80239  -5.79914  -5.79315  -5.79043  -5.78903
  Beta  occ. eigenvalues --   -5.78138  -0.94215  -0.90943  -0.88837  -0.84869
  Beta  occ. eigenvalues --   -0.82483  -0.80715  -0.73326  -0.69160  -0.65668
  Beta  occ. eigenvalues --   -0.63687  -0.56186  -0.54401  -0.52082  -0.51049
  Beta  occ. eigenvalues --   -0.50311  -0.47976  -0.44673  -0.42216  -0.41290
  Beta  occ. eigenvalues --   -0.40625  -0.39148  -0.37936  -0.35946  -0.35053
  Beta  occ. eigenvalues --   -0.33362  -0.32966  -0.31676  -0.31142  -0.30363
  Beta  occ. eigenvalues --   -0.29761  -0.29530  -0.29054  -0.27857  -0.26606
  Beta  occ. eigenvalues --   -0.26130  -0.25898  -0.25378  -0.23994  -0.22788
  Beta  occ. eigenvalues --   -0.22397  -0.18141  -0.16780  -0.16234  -0.14141
  Beta  occ. eigenvalues --   -0.13563  -0.12711  -0.12008  -0.11007  -0.09809
  Beta virt. eigenvalues --    0.04330   0.06750   0.07996   0.08463   0.08533
  Beta virt. eigenvalues --    0.09432   0.09650   0.10403   0.10924   0.11531
  Beta virt. eigenvalues --    0.12009   0.12144   0.12707   0.13164   0.13781

 Mulliken charges and spin densities:
               1          2
     1  C    0.094075   0.178438
     2  C   -0.172399   0.244578
     3  C   -0.186071   0.112689
     4  O   -0.415542   0.149474
     5  N    0.152320  -0.066650
     6  C   -0.339516   0.166731
     7  O   -0.308456   0.141690
     8  C   -0.336220  -0.010748
     9  C    0.143977   0.004349
    10  C   -0.238834  -0.003969
    11  O   -0.307603  -0.000306
    12  N   -0.207909   0.003157
    13  C   -0.604351  -0.001904
    14  C   -0.212790  -0.004222
    15  N    0.098911  -0.005022
    16  C    0.089689  -0.023047
    17  S   -0.273644   0.056166
    18  S   -0.402630   0.086827
    19  H    0.130416  -0.014249
    20  H    0.140236  -0.015895
    21  H    0.217043  -0.001285
    22  H    0.188358  -0.001566
    23  H    0.171762  -0.000213
    24  H    0.157373  -0.000285
    25  H    0.306931  -0.000263
    26  H    0.154080   0.000269
    27  H    0.182373   0.000154
    28  H    0.139744   0.004122
    29  H    0.146608  -0.006296
    30  H    0.217796   0.006366
    31  H    0.274273   0.000910
 Sum of Mulliken charges =  -1.00000   1.00000

 Dipole moment (field-independent basis, Debye):
    X=              1.7541    Y=              5.2405    Z=              3.7485  Tot=              6.6776
 Quadrupole moment (field-independent basis, Debye-Ang):
   XX=           -174.8024   YY=           -146.8205   ZZ=           -137.0231
   XY=            -11.1015   XZ=              1.8785   YZ=             13.7163

 Summary of Natural Population Analysis:

                                       Natural Population
                Natural  -----------------------------------------------
    Atom  No    Charge         Core      Valence    Rydberg      Total
 -----------------------------------------------------------------------
      C    1   -0.09056      0.99950     2.08202    0.00903     3.09056
      C    2   -0.07521      0.99950     2.06691    0.00879     3.07521
      C    3    0.35670      0.99968     1.62131    0.02231     2.64330
      O    4   -0.26966      0.99987     3.26317    0.00662     4.26966
      N    5   -0.29438      0.99960     2.78322    0.01156     3.79438
      C    6    0.35564      0.99967     1.62054    0.02416     2.64436
      O    7   -0.27543      0.99987     3.26855    0.00701     4.27543
      C    8   -0.08516      0.99962     2.07499    0.01054     3.08516
      C    9   -0.23751      0.99958     2.23165    0.00628     3.23751
      C   10    0.35112      0.99968     1.62658    0.02263     2.64888
      O   11   -0.32297      0.99987     3.31623    0.00687     4.32297
      N   12   -0.32796      0.99966     2.81632    0.01197     3.82796
      C   13   -0.08997      0.99962     2.08072    0.00962     3.08997
      C   14   -0.09156      0.99963     2.08260    0.00933     3.09156
      N   15   -0.35665      0.99966     2.83804    0.01895     3.85665
      C   16   -0.10512      0.99966     2.08801    0.01745     3.10512
      S   17    0.06574      4.99963     2.91459    0.02004     7.93426
      S   18   -0.00684      4.99968     2.98892    0.01824     8.00684
      H   19    0.09790      0.00000     0.39990    0.00220     0.40210
      H   20    0.09282      0.00000     0.40608    0.00110     0.40718
      H   21    0.10942      0.00000     0.38943    0.00115     0.39058
      H   22    0.10821      0.00000     0.39048    0.00131     0.39179
      H   23    0.10842      0.00000     0.39056    0.00102     0.39158
      H   24    0.10271      0.00000     0.39608    0.00121     0.39729
      H   25    0.19449      0.00000     0.30368    0.00183     0.30551
      H   26    0.09877      0.00000     0.40005    0.00118     0.40123
      H   27    0.09555      0.00000     0.40341    0.00104     0.40445
      H   28    0.09165      0.00000     0.40723    0.00112     0.40835
      H   29    0.09542      0.00000     0.40285    0.00173     0.40458
      H   30    0.20200      0.00000     0.29568    0.00232     0.29800
      H   31    0.10240      0.00000     0.39562    0.00197     0.39760
 =======================================================================
   * Total *    0.00000     25.99398    48.74543    0.26059    75.00000

 Normal termination of Gaussian 16 at Fri Dec 11 20:43:59 2020.
