 Gaussian 16, Revision A.03,

 -----------------------------------------------------------
 # opt freq B3LYP/6-31G(d) empiricaldispersion=gd3bj scf=xqc
 -----------------------------------------------------------

 -------------------------------
 CID_117000421_JID_6349_neutraal
 -------------------------------
 Symbolic Z-matrix:
 Charge =  0 Multiplicity = 1

 SCF Done:  E(RB3LYP) =  -676.174770179     A.U. after   14 cycles
 SCF Done:  E(RB3LYP) =  -676.177850145     A.U. after   11 cycles
 SCF Done:  E(RB3LYP) =  -676.178233856     A.U. after   11 cycles
 SCF Done:  E(RB3LYP) =  -676.178399681     A.U. after   10 cycles
 SCF Done:  E(RB3LYP) =  -676.178497526     A.U. after   10 cycles
 SCF Done:  E(RB3LYP) =  -676.178593044     A.U. after   11 cycles
 SCF Done:  E(RB3LYP) =  -676.178633450     A.U. after   10 cycles
 SCF Done:  E(RB3LYP) =  -676.178641504     A.U. after    9 cycles
 SCF Done:  E(RB3LYP) =  -676.178644254     A.U. after    9 cycles
 SCF Done:  E(RB3LYP) =  -676.178645050     A.U. after    8 cycles
 Optimization completed.
    -- Stationary point found.
 Normal termination of Gaussian 16 at Thu Dec 10 22:15:37 2020.

 --------------------------------------------------------------------
 #N Geom=AllCheck Guess=TCheck SCRF=Check GenChk RB3LYP/6-31G(d) Freq
 --------------------------------------------------------------------

 Structure from the checkpoint file:  "JID_6349.chk"
 -------------------------------
 CID_117000421_JID_6349_neutraal
 -------------------------------
 Charge =  0 Multiplicity = 1

 SCF Done:  E(RB3LYP) =  -676.178645050     A.U. after    1 cycles

  Exact polarizability: 210.026  15.827 125.028   6.286 -11.894 131.238
 Approx polarizability: 257.189  26.025 181.976  14.281 -31.464 225.897

                      1                      2                      3
                      A                      A                      A
 Frequencies --     23.3291                42.1624                45.6461
 Red. masses --      2.8627                 3.9133                 3.6505
 Frc consts  --      0.0009                 0.0041                 0.0045
 IR Inten    --      0.0497                 0.2538                 0.0405

                      4                      5                      6
                      A                      A                      A
 Frequencies --     80.7855                97.3361               124.1525
 Red. masses --      2.9727                 3.7790                 3.4085
 Frc consts  --      0.0114                 0.0211                 0.0310
 IR Inten    --      0.5234                 1.5044                 0.3481

                      7                      8                      9
                      A                      A                      A
 Frequencies --    147.9998               202.2529               210.3686
 Red. masses --      2.7068                 2.5903                 1.8911
 Frc consts  --      0.0349                 0.0624                 0.0493
 IR Inten    --      7.3465                 0.3806                 0.4867

                     10                     11                     12
                      A                      A                      A
 Frequencies --    237.3225               266.6811               282.3751
 Red. masses --      1.7759                 2.5054                 3.8344
 Frc consts  --      0.0589                 0.1050                 0.1801
 IR Inten    --      0.0374                 0.6875                 0.9402

                     13                     14                     15
                      A                      A                      A
 Frequencies --    318.3879               331.9799               364.2965
 Red. masses --      1.6854                 1.3450                 3.5380
 Frc consts  --      0.1007                 0.0873                 0.2766
 IR Inten    --     41.4758               105.8686                 2.5388

                     16                     17                     18
                      A                      A                      A
 Frequencies --    377.5225               419.2762               428.0645
 Red. masses --      2.6325                 3.0674                 3.0358
 Frc consts  --      0.2211                 0.3177                 0.3277
 IR Inten    --      2.2288                 0.1778                 0.3908

                     19                     20                     21
                      A                      A                      A
 Frequencies --    455.5464               492.4366               500.4031
 Red. masses --      2.2883                 3.3947                 3.8624
 Frc consts  --      0.2798                 0.4850                 0.5698
 IR Inten    --      0.8708                 0.9252                16.0165

                     22                     23                     24
                      A                      A                      A
 Frequencies --    559.6606               566.6949               603.2458
 Red. masses --      2.0743                 3.1729                 2.3830
 Frc consts  --      0.3828                 0.6004                 0.5109
 IR Inten    --     11.6461                 8.3562                11.2871

                     25                     26                     27
                      A                      A                      A
 Frequencies --    658.7247               755.1241               769.3818
 Red. masses --      6.6585                 4.1803                 3.0743
 Frc consts  --      1.7023                 1.4044                 1.0722
 IR Inten    --      1.3280                 1.3390                 2.2467

                     28                     29                     30
                      A                      A                      A
 Frequencies --    800.3214               810.7212               835.7195
 Red. masses --      1.1774                 1.8014                 1.6489
 Frc consts  --      0.4443                 0.6976                 0.6785
 IR Inten    --      0.7394                45.8880                29.1059

                     31                     32                     33
                      A                      A                      A
 Frequencies --    845.8801               855.5218               866.2772
 Red. masses --      1.9399                 2.0070                 1.3098
 Frc consts  --      0.8178                 0.8655                 0.5791
 IR Inten    --      8.6848                10.0146                 6.5393

                     34                     35                     36
                      A                      A                      A
 Frequencies --    907.2657               913.0993               940.5433
 Red. masses --      1.8735                 2.1473                 2.2529
 Frc consts  --      0.9086                 1.0548                 1.1742
 IR Inten    --      2.9136                 1.5822                 3.3325

                     37                     38                     39
                      A                      A                      A
 Frequencies --    960.7032               979.8800               981.9333
 Red. masses --      1.3262                 1.4044                 2.3190
 Frc consts  --      0.7212                 0.7945                 1.3174
 IR Inten    --      0.1313                 0.0992                 1.9188

                     40                     41                     42
                      A                      A                      A
 Frequencies --    990.3528              1003.7139              1044.4830
 Red. masses --      1.9657                 1.7752                 2.8161
 Frc consts  --      1.1359                 1.0537                 1.8101
 IR Inten    --      0.4109                 0.7098                 5.9832

                     43                     44                     45
                      A                      A                      A
 Frequencies --   1073.0501              1076.5836              1085.9842
 Red. masses --      4.2716                 1.5851                 1.8042
 Frc consts  --      2.8979                 1.0824                 1.2537
 IR Inten    --     79.9726                10.9577                25.9459

                     46                     47                     48
                      A                      A                      A
 Frequencies --   1094.0398              1106.4286              1137.4090
 Red. masses --      1.9095                 1.9938                 2.5849
 Frc consts  --      1.3466                 1.4380                 1.9703
 IR Inten    --     12.9254                20.3530                11.4827

                     49                     50                     51
                      A                      A                      A
 Frequencies --   1140.0101              1150.0536              1176.7032
 Red. masses --      2.2132                 1.4039                 2.6287
 Frc consts  --      1.6947                 1.0940                 2.1445
 IR Inten    --     19.3982                 3.3316                11.7128

                     52                     53                     54
                      A                      A                      A
 Frequencies --   1184.1072              1210.7353              1216.1139
 Red. masses --      1.2772                 1.2203                 1.2080
 Frc consts  --      1.0551                 1.0539                 1.0526
 IR Inten    --      9.2223                 3.4300                 7.7222

                     55                     56                     57
                      A                      A                      A
 Frequencies --   1239.4438              1242.8726              1269.5797
 Red. masses --      3.2064                 1.9077                 1.2876
 Frc consts  --      2.9021                 1.7362                 1.2227
 IR Inten    --      0.1542                 2.6161                 8.0490

                     58                     59                     60
                      A                      A                      A
 Frequencies --   1287.0661              1310.5437              1313.2781
 Red. masses --      1.3542                 1.3943                 1.2583
 Frc consts  --      1.3218                 1.4110                 1.2787
 IR Inten    --      0.1584                 1.5022                 2.3238

                     61                     62                     63
                      A                      A                      A
 Frequencies --   1323.9799              1346.0528              1366.1649
 Red. masses --      1.2971                 1.5567                 1.2870
 Frc consts  --      1.3396                 1.6618                 1.4153
 IR Inten    --      5.9821                 4.9705                51.0292

                     64                     65                     66
                      A                      A                      A
 Frequencies --   1366.9530              1373.0980              1396.6447
 Red. masses --      2.0518                 1.5274                 1.4824
 Frc consts  --      2.2589                 1.6967                 1.7037
 IR Inten    --      0.7378                 5.5808                12.5585

                     67                     68                     69
                      A                      A                      A
 Frequencies --   1403.6037              1408.7819              1417.2019
 Red. masses --      1.4223                 1.3343                 1.5504
 Frc consts  --      1.6510                 1.5602                 1.8346
 IR Inten    --      6.8246                 7.0209                 3.4840

                     70                     71                     72
                      A                      A                      A
 Frequencies --   1429.6153              1435.2773              1439.7444
 Red. masses --      1.4220                 1.2198                 1.3105
 Frc consts  --      1.7123                 1.4805                 1.6005
 IR Inten    --     14.4497                 1.1617                51.8806

                     73                     74                     75
                      A                      A                      A
 Frequencies --   1469.5352              1496.2019              1507.3022
 Red. masses --      2.3751                 1.2451                 1.1901
 Frc consts  --      3.0220                 1.6422                 1.5931
 IR Inten    --      4.8924                13.1951                 5.3240

                     76                     77                     78
                      A                      A                      A
 Frequencies --   1516.2212              1517.9818              1525.9223
 Red. masses --      1.0952                 1.0650                 1.0410
 Frc consts  --      1.4834                 1.4459                 1.4282
 IR Inten    --      5.0377                 1.1038                 7.3170

                     79                     80                     81
                      A                      A                      A
 Frequencies --   1531.7169              1534.0459              1538.4453
 Red. masses --      1.0898                 1.0995                 1.0829
 Frc consts  --      1.5065                 1.5245                 1.5100
 IR Inten    --      2.4581                 0.9595                 1.7734

                     82                     83                     84
                      A                      A                      A
 Frequencies --   1565.1398              1634.5135              1677.8206
 Red. masses --      2.5343                 6.1785                 5.8931
 Frc consts  --      3.6578                 9.7255                 9.7742
 IR Inten    --     19.7168                 0.2002                 0.0222

                     85                     86                     87
                      A                      A                      A
 Frequencies --   2907.7429              2926.4158              2983.0327
 Red. masses --      1.0811                 1.0734                 1.0711
 Frc consts  --      5.3856                 5.4160                 5.6154
 IR Inten    --     39.9168               101.5414                41.8718

                     88                     89                     90
                      A                      A                      A
 Frequencies --   3019.0159              3033.9793              3040.4657
 Red. masses --      1.0815                 1.0598                 1.0605
 Frc consts  --      5.8079                 5.7475                 5.7760
 IR Inten    --     19.2595                25.0348                39.8552

                     91                     92                     93
                      A                      A                      A
 Frequencies --   3044.2902              3047.8627              3078.6966
 Red. masses --      1.0597                 1.0346                 1.1039
 Frc consts  --      5.7864                 5.6625                 6.1644
 IR Inten    --     34.4021                37.3610                 9.7577

                     94                     95                     96
                      A                      A                      A
 Frequencies --   3080.4108              3082.7573              3084.1697
 Red. masses --      1.0985                 1.0936                 1.1015
 Frc consts  --      6.1415                 6.1233                 6.1733
 IR Inten    --     45.3219                12.9729                54.8959

                     97                     98                     99
                      A                      A                      A
 Frequencies --   3093.5859              3118.0611              3122.2380
 Red. masses --      1.0950                 1.1028                 1.1035
 Frc consts  --      6.1743                 6.3171                 6.3379
 IR Inten    --     75.8419                52.0597                34.2907

                    100                    101                    102
                      A                      A                      A
 Frequencies --   3167.5523              3172.9741              3185.3734
 Red. masses --      1.0864                 1.0888                 1.0941
 Frc consts  --      6.4222                 6.4583                 6.5410
 IR Inten    --     15.5864                21.9142                22.7614

                    103                    104                    105
                      A                      A                      A
 Frequencies --   3211.9863              3496.8137              3755.6396
 Red. masses --      1.0919                 1.0746                 1.0660
 Frc consts  --      6.6371                 7.7416                 8.8587
 IR Inten    --      5.2402                 0.6595                 9.1061

 - Thermochemistry -
 -------------------
 Temperature   298.150 Kelvin.  Pressure   1.00000 Atm.
 Atom     1 has atomic number  6 and mass  12.00000

 Molecular mass:   219.16231 amu.
 Principal axes and moments of inertia in atomic units:
                           1         2         3
     Eigenvalues --  1546.638428183.721008993.55419
           X            0.99998   0.00634  -0.00052
           Y           -0.00634   0.99998   0.00111
           Z            0.00052  -0.00111   1.00000
 This molecule is an asymmetric top.
 Rotational symmetry number  1.
 Warning -- assumption of classical behavior for rotation
           may cause significant error
 Rotational temperatures (Kelvin)      0.05600     0.01058     0.00963
 Rotational constants (GHZ):           1.16688     0.22053     0.20067
 Zero-point vibrational energy     869006.9 (Joules/Mol)
                                  207.69763 (Kcal/Mol)
 Warning -- explicit consideration of  24 degrees of freedom as
           vibrations may cause significant error
 Vibrational temperatures:     33.57    60.66    65.67   116.23   140.04
          (Kelvin)            178.63   212.94   291.00   302.67   341.45
                              383.69   406.27   458.09   477.65   524.14
                              543.17   603.24   615.89   655.43   708.51
                              719.97   805.23   815.35   867.94   947.76
                             1086.46  1106.97  1151.48  1166.45  1202.41
                             1217.03  1230.91  1246.38  1305.35  1313.75
                             1353.23  1382.24  1409.83  1412.78  1424.90
                             1444.12  1502.78  1543.88  1548.96  1562.49
                             1574.08  1591.90  1636.48  1640.22  1654.67
                             1693.01  1703.67  1741.98  1749.72  1783.28
                             1788.22  1826.64  1851.80  1885.58  1889.51
                             1904.91  1936.67  1965.61  1966.74  1975.58
                             2009.46  2019.47  2026.92  2039.04  2056.90
                             2065.04  2071.47  2114.33  2152.70  2168.67
                             2181.50  2184.04  2195.46  2203.80  2207.15
                             2213.48  2251.89  2351.70  2414.01  4183.59
                             4210.46  4291.92  4343.69  4365.22  4374.55
                             4380.05  4385.19  4429.56  4432.02  4435.40
                             4437.43  4450.98  4486.19  4492.20  4557.40
                             4565.20  4583.04  4621.33  5031.13  5403.53

 Zero-point correction=                           0.330987 (Hartree/Particle)
 Thermal correction to Energy=                    0.346615
 Thermal correction to Enthalpy=                  0.347559
 Thermal correction to Gibbs Free Energy=         0.286739
 Sum of electronic and zero-point Energies=           -675.847658
 Sum of electronic and thermal Energies=              -675.832030
 Sum of electronic and thermal Enthalpies=            -675.831086
 Sum of electronic and thermal Free Energies=         -675.891906

                     E (Thermal)             CV                S
                      KCal/Mol        Cal/Mol-Kelvin    Cal/Mol-Kelvin
 Total                  217.504             60.525            128.006
 Electronic               0.000              0.000              0.000
 Translational            0.889              2.981             42.057
 Rotational               0.889              2.981             33.098
 Vibrational            215.727             54.563             52.851
 Vibration     1          0.593              1.985              6.329
 Vibration     2          0.595              1.980              5.155
 Vibration     3          0.595              1.979              4.998
 Vibration     4          0.600              1.962              3.872
 Vibration     5          0.603              1.951              3.507
 Vibration     6          0.610              1.929              3.035
 Vibration     7          0.617              1.905              2.698
 Vibration     8          0.639              1.837              2.113
 Vibration     9          0.643              1.825              2.040
 Vibration    10          0.656              1.784              1.823
 Vibration    11          0.672              1.734              1.618
 Vibration    12          0.681              1.706              1.519
 Vibration    13          0.705              1.638              1.318
 Vibration    14          0.714              1.612              1.250
 Vibration    15          0.738              1.546              1.104
 Vibration    16          0.748              1.518              1.049
 Vibration    17          0.782              1.428              0.894
 Vibration    18          0.790              1.409              0.865
 Vibration    19          0.814              1.349              0.779
 Vibration    20          0.848              1.267              0.677
 Vibration    21          0.856              1.249              0.657
 Vibration    22          0.915              1.119              0.525
 Vibration    23          0.923              1.103              0.511
 Vibration    24          0.962              1.025              0.444

                           ! Non-Optimized Parameters !
 Normal termination of Gaussian 16 at Thu Dec 10 22:27:21 2020.

 ----------------------------------------------------------------------
 # B3LYP/6-311++G(d,p) empiricaldispersion=gd3bj scf=xqc pop=npa geom=c
 heck
 ----------------------------------------------------------------------

 ---------------------------------------
 CID_117000421_JID_6349_Energie_neutraal
 ---------------------------------------
 Structure from the checkpoint file:  "JID_6349.chk"
 Charge =  0 Multiplicity = 1

 SCF Done:  E(RB3LYP) =  -676.372689381     A.U. after   14 cycles
 Normal termination of Gaussian 16 at Thu Dec 10 22:33:54 2020.

 ----------------------------------------------------------------------
 # B3LYP/6-311++G(d,p) empiricaldispersion=gd3bj scf=xqc pop=npa geom=c
 heck
 ----------------------------------------------------------------------

 -------------------------------------
 CID_117000421_JID_6349_Energie_kation
 -------------------------------------
 Structure from the checkpoint file:  "JID_6349.chk"
 Charge =  1 Multiplicity = 2

 SCF Done:  E(UB3LYP) =  -676.078978243     A.U. after   23 cycles
 Normal termination of Gaussian 16 at Thu Dec 10 22:47:13 2020.
 Gaussian 16:  ES64L-G16RevA.03 25-Dec-2016

 ----------------------------------------------------------------------
 # B3LYP/6-311++G(d,p) empiricaldispersion=gd3bj scf=xqc pop=npa geom=c
 heck
 ----------------------------------------------------------------------

 ------------------------------------
 CID_117000421_JID_6349_Energie_anion
 ------------------------------------
 Structure from the checkpoint file:  "JID_6349.chk"
 Charge = -1 Multiplicity = 2

                         Standard orientation:
 ---------------------------------------------------------------------
 Center     Atomic      Atomic             Coordinates (Angstroms)
 Number     Number       Type             X           Y           Z
 ---------------------------------------------------------------------
      1          6           0        5.716135   -0.328783   -0.019274
      2          6           0        4.782560    0.799057    0.450307
      3          6           0        3.327442    0.480377    0.195116
      4          6           0        2.714351    0.830865   -1.013000
      5          6           0        1.387940    0.487814   -1.269922
      6          6           0        0.632613   -0.210792   -0.323563
      7          6           0        1.240546   -0.562954    0.887458
      8          6           0        2.568011   -0.223112    1.138385
      9          6           0       -0.824037   -0.528446   -0.583259
     10          6           0       -1.746876    0.526960    0.053858
     11          6           0       -3.230116    0.197364   -0.164802
     12          6           0       -3.518974   -1.235357    0.304684
     13          6           0       -2.551209   -2.226476   -0.342765
     14          7           0       -1.174645   -1.841330   -0.033857
     15          6           0       -4.149225    1.203506    0.533196
     16          8           0       -3.986575    2.539081    0.069961
     17          1           0        5.484453   -1.265766    0.499231
     18          1           0        6.765737   -0.080134    0.174667
     19          1           0        5.599030   -0.507386   -1.093923
     20          1           0        4.938812    0.975678    1.521795
     21          1           0        5.052156    1.730018   -0.063738
     22          1           0        3.284626    1.374921   -1.762819
     23          1           0        0.931346    0.767702   -2.216905
     24          1           0        0.660578   -1.110798    1.623524
     25          1           0        3.024995   -0.505553    2.084561
     26          1           0       -0.995263   -0.490289   -1.677855
     27          1           0       -1.501565    1.506971   -0.373051
     28          1           0       -1.527365    0.565753    1.129893
     29          1           0       -3.436427    0.259102   -1.243918
     30          1           0       -3.403349   -1.294674    1.395172
     31          1           0       -4.553173   -1.514286    0.066112
     32          1           0       -2.722083   -3.236309    0.046390
     33          1           0       -2.746120   -2.255964   -1.433178
     34          1           0       -0.526258   -2.536447   -0.398164
     35          1           0       -5.195720    0.948759    0.333676
     36          1           0       -3.999587    1.141450    1.624652
     37          1           0       -3.114667    2.843774    0.362679
 ---------------------------------------------------------------------

 SCF Done:  E(UB3LYP) =  -676.358877985     A.U. after   33 cycles
 SCF Done:  E(UB3LYP) =  -676.358877986     a.u. after    1 cycles

 The electronic state is 2-A.
 Alpha  occ. eigenvalues --  -19.04113 -14.20743 -10.13087 -10.11312 -10.10242
 Alpha  occ. eigenvalues --  -10.08620 -10.08504 -10.08402 -10.07998 -10.07923
 Alpha  occ. eigenvalues --  -10.07906 -10.07895 -10.07781 -10.07752 -10.07612
 Alpha  occ. eigenvalues --  -10.06832  -0.94159  -0.82935  -0.76623  -0.71657
 Alpha  occ. eigenvalues --   -0.70467  -0.66884  -0.65211  -0.62438  -0.60667
 Alpha  occ. eigenvalues --   -0.55396  -0.52935  -0.51955  -0.51355  -0.47917
 Alpha  occ. eigenvalues --   -0.46949  -0.43266  -0.42298  -0.39850  -0.38684
 Alpha  occ. eigenvalues --   -0.36708  -0.36499  -0.35866  -0.34914  -0.33963
 Alpha  occ. eigenvalues --   -0.33175  -0.32946  -0.32631  -0.31568  -0.30661
 Alpha  occ. eigenvalues --   -0.29844  -0.28336  -0.27010  -0.26484  -0.25889
 Alpha  occ. eigenvalues --   -0.25361  -0.25092  -0.24634  -0.24101  -0.23348
 Alpha  occ. eigenvalues --   -0.22397  -0.19220  -0.16143  -0.14979  -0.13953
 Alpha  occ. eigenvalues --    0.04074
 Alpha virt. eigenvalues --    0.05445   0.06344   0.06711   0.07319   0.07748
 Alpha virt. eigenvalues --    0.07886   0.07998   0.08224   0.08665   0.09478
 Alpha virt. eigenvalues --    0.09696   0.10118   0.10575   0.11094   0.11689

  Beta  occ. eigenvalues --  -19.04099 -14.20724 -10.13075 -10.11307 -10.10219
  Beta  occ. eigenvalues --  -10.08616 -10.08498 -10.08389 -10.07993 -10.07912
  Beta  occ. eigenvalues --  -10.07889 -10.07885 -10.07764 -10.07736 -10.07609
  Beta  occ. eigenvalues --  -10.06800  -0.94128  -0.82907  -0.76599  -0.71633
  Beta  occ. eigenvalues --   -0.70433  -0.66851  -0.65184  -0.62398  -0.60630
  Beta  occ. eigenvalues --   -0.55352  -0.52886  -0.51913  -0.51317  -0.47880
  Beta  occ. eigenvalues --   -0.46910  -0.43225  -0.42258  -0.39814  -0.38653
  Beta  occ. eigenvalues --   -0.36671  -0.36473  -0.35837  -0.34883  -0.33933
  Beta  occ. eigenvalues --   -0.33141  -0.32918  -0.32599  -0.31535  -0.30633
  Beta  occ. eigenvalues --   -0.29800  -0.28291  -0.26975  -0.26454  -0.25860
  Beta  occ. eigenvalues --   -0.25328  -0.25059  -0.24603  -0.24079  -0.23324
  Beta  occ. eigenvalues --   -0.22370  -0.19195  -0.16105  -0.14929  -0.13897
  Beta virt. eigenvalues --    0.05964   0.06374   0.06799   0.07092   0.07760
  Beta virt. eigenvalues --    0.07804   0.08066   0.08374   0.08595   0.09018
  Beta virt. eigenvalues --    0.09823   0.09971   0.10453   0.10765   0.11386

 Mulliken charges and spin densities:
               1          2
     1  C    1.043207  -1.672671
     2  C   -0.559329   0.154304
     3  C    0.750432   0.071570
     4  C   -0.839969   0.271208
     5  C   -0.522855   0.100001
     6  C    1.537993  -0.787588
     7  C   -0.048222  -0.240413
     8  C   -1.185435   0.618480
     9  C    0.336094  -0.568642
    10  C    0.106667  -1.086425
    11  C    0.088952   0.597850
    12  C   -0.810627   0.318901
    13  C    1.119999  -1.416156
    14  N   -0.058028   0.058345
    15  C    0.179648  -0.744619
    16  O   -0.251781   0.011392
    17  H   -0.070367   0.209632
    18  H   -0.367291   0.498901
    19  H   -0.084382   0.224327
    20  H   -0.210089   0.355675
    21  H   -0.251766   0.403030
    22  H   -0.282832   0.460153
    23  H   -0.392214   0.536708
    24  H   -0.048538   0.229561
    25  H   -0.214589   0.387056
    26  H    0.125661   0.040058
    27  H    0.250649  -0.148455
    28  H    0.065596   0.117473
    29  H    0.053551   0.134202
    30  H    0.201789  -0.053200
    31  H   -0.193354   0.348728
    32  H   -0.548163   0.723870
    33  H   -0.060049   0.175462
    34  H    0.040106   0.211468
    35  H    0.035608   0.136751
    36  H   -0.012575   0.152758
    37  H    0.076499   0.170303
 Sum of Mulliken charges =  -1.00000   1.00000

 Dipole moment (field-independent basis, Debye):
    X=             -3.9145    Y=              0.7007    Z=              0.7334  Tot=              4.0437
 Quadrupole moment (field-independent basis, Debye-Ang):
   XX=           -222.2976   YY=           -148.9039   ZZ=           -130.3142
   XY=             -5.3960   XZ=             -3.6585   YZ=              1.3676

 Summary of Natural Population Analysis:

                                       Natural Population
                Natural  -----------------------------------------------
    Atom  No    Charge         Core      Valence    Rydberg      Total
 -----------------------------------------------------------------------
      C    1   -0.27806      0.99966     2.27410    0.00430     3.27806
      C    2   -0.19772      0.99961     2.18874    0.00938     3.19772
      C    3   -0.01470      0.99951     2.00478    0.01042     3.01470
      C    4   -0.09765      0.99951     2.08845    0.00969     3.09765
      C    5   -0.09686      0.99951     2.08761    0.00973     3.09686
      C    6   -0.02081      0.99949     2.00975    0.01157     3.02081
      C    7   -0.09775      0.99951     2.08935    0.00890     3.09775
      C    8   -0.09659      0.99951     2.08793    0.00915     3.09659
      C    9   -0.01173      0.99955     1.99949    0.01269     3.01173
      C   10   -0.19043      0.99959     2.18201    0.00883     3.19043
      C   11   -0.12436      0.99958     2.11554    0.00924     3.12436
      C   12   -0.19467      0.99961     2.18477    0.01029     3.19467
      C   13   -0.08374      0.99962     2.07209    0.01203     3.08374
      N   14   -0.34085      0.99973     2.82949    0.01163     3.84085
      C   15   -0.00185      0.99956     1.99068    0.01162     3.00185
      O   16   -0.36831      0.99990     3.36181    0.00660     4.36831
      H   17    0.09645      0.00000     0.40208    0.00146     0.40355
      H   18    0.09828      0.00000     0.39993    0.00179     0.40172
      H   19    0.09702      0.00000     0.40158    0.00141     0.40298
      H   20    0.09915      0.00000     0.39943    0.00142     0.40085
      H   21    0.09982      0.00000     0.39868    0.00150     0.40018
      H   22    0.10016      0.00000     0.39868    0.00115     0.39984
      H   23    0.09935      0.00000     0.39921    0.00144     0.40065
      H   24    0.10870      0.00000     0.38982    0.00149     0.39130
      H   25    0.09897      0.00000     0.39997    0.00105     0.40103
      H   26    0.08195      0.00000     0.41552    0.00253     0.41805
      H   27    0.10079      0.00000     0.39781    0.00140     0.39921
      H   28    0.09931      0.00000     0.39910    0.00159     0.40069
      H   29    0.09634      0.00000     0.40165    0.00201     0.40366
      H   30    0.09728      0.00000     0.40126    0.00146     0.40272
      H   31    0.10054      0.00000     0.39824    0.00122     0.39946
      H   32    0.09761      0.00000     0.40104    0.00135     0.40239
      H   33    0.07729      0.00000     0.42095    0.00177     0.42271
      H   34    0.17940      0.00000     0.31811    0.00249     0.32060
      H   35    0.08586      0.00000     0.41281    0.00133     0.41414
      H   36    0.07409      0.00000     0.42449    0.00143     0.42591
      H   37    0.22774      0.00000     0.26918    0.00308     0.27226
 =======================================================================
   * Total *   -0.00000     15.99343    43.81613    0.19044    60.00000

 Normal termination of Gaussian 16 at Thu Dec 10 23:06:58 2020.
