 Gaussian 16, Revision A.03,

 -----------------------------------------------------------
 # opt freq B3LYP/6-31G(d) empiricaldispersion=gd3bj scf=xqc
 -----------------------------------------------------------

 ------------------------------
 CID_24255925_JID_9348_neutraal
 ------------------------------
 Symbolic Z-matrix:
 Charge =  0 Multiplicity = 1

 SCF Done:  E(RB3LYP) =  -1205.14882765     A.U. after   15 cycles
 SCF Done:  E(RB3LYP) =  -1205.15496499     A.U. after   13 cycles
 SCF Done:  E(RB3LYP) =  -1205.15766596     A.U. after   13 cycles
 SCF Done:  E(RB3LYP) =  -1205.15906350     A.U. after   15 cycles
 SCF Done:  E(RB3LYP) =  -1205.16086211     A.U. after   13 cycles
 SCF Done:  E(RB3LYP) =  -1205.16191595     A.U. after   12 cycles
 SCF Done:  E(RB3LYP) =  -1205.16328800     A.U. after   15 cycles
 SCF Done:  E(RB3LYP) =  -1205.16382340     A.U. after   13 cycles
 SCF Done:  E(RB3LYP) =  -1205.16456213     A.U. after   12 cycles
 SCF Done:  E(RB3LYP) =  -1205.16521422     A.U. after   13 cycles
 SCF Done:  E(RB3LYP) =  -1205.16539939     A.U. after   10 cycles
 SCF Done:  E(RB3LYP) =  -1205.16540446     A.U. after   10 cycles
 SCF Done:  E(RB3LYP) =  -1205.16540595     A.U. after    9 cycles
 SCF Done:  E(RB3LYP) =  -1205.16540632     A.U. after    8 cycles
 SCF Done:  E(RB3LYP) =  -1205.16540636     A.U. after    7 cycles
 Optimization completed.
    -- Stationary point found.
 Normal termination of Gaussian 16 at Sun Dec 13 20:27:40 2020.

 --------------------------------------------------------------------
 #N Geom=AllCheck Guess=TCheck SCRF=Check GenChk RB3LYP/6-31G(d) Freq
 --------------------------------------------------------------------

 Structure from the checkpoint file:  "JID_9348.chk"
 ------------------------------
 CID_24255925_JID_9348_neutraal
 ------------------------------
 Charge =  0 Multiplicity = 1

 SCF Done:  E(RB3LYP) =  -1205.16540636     A.U. after    1 cycles

  Exact polarizability: 182.361 -10.600 195.057  26.988   6.012 133.312
 Approx polarizability: 272.816 -22.535 307.349  66.677  12.586 232.545

                      1                      2                      3
                      A                      A                      A
 Frequencies --     17.0666                32.8606                35.2749
 Red. masses --      5.2929                 5.3594                 5.2187
 Frc consts  --      0.0009                 0.0034                 0.0038
 IR Inten    --      0.1875                 0.1829                 0.1414

                      4                      5                      6
                      A                      A                      A
 Frequencies --     45.5345                55.2862                70.1125
 Red. masses --     11.3824                 5.5100                 3.9777
 Frc consts  --      0.0139                 0.0099                 0.0115
 IR Inten    --      1.0957                 0.4523                 0.7186

                      7                      8                      9
                      A                      A                      A
 Frequencies --     96.5827               120.3388               131.9770
 Red. masses --      3.0379                 2.2257                 6.2238
 Frc consts  --      0.0167                 0.0190                 0.0639
 IR Inten    --      2.4688                 0.3449                 0.0584

                     10                     11                     12
                      A                      A                      A
 Frequencies --    153.2196               181.7940               200.3667
 Red. masses --      4.6414                 4.0767                 4.9604
 Frc consts  --      0.0642                 0.0794                 0.1173
 IR Inten    --      0.2521                 0.4643                 0.2854

                     13                     14                     15
                      A                      A                      A
 Frequencies --    260.4325               280.9947               295.3071
 Red. masses --      1.2261                 5.5659                 4.8377
 Frc consts  --      0.0490                 0.2589                 0.2486
 IR Inten    --      0.8429                 0.3495                 0.2579

                     16                     17                     18
                      A                      A                      A
 Frequencies --    307.4528               349.9645               359.1864
 Red. masses --      4.2841                 3.5425                 3.2603
 Frc consts  --      0.2386                 0.2556                 0.2478
 IR Inten    --      0.2495                 0.4313                 2.6795

                     19                     20                     21
                      A                      A                      A
 Frequencies --    423.9041               486.7880               490.3967
 Red. masses --      4.9184                 3.3408                 3.4622
 Frc consts  --      0.5207                 0.4664                 0.4906
 IR Inten    --      1.7172                 1.1836                 1.4695

                     22                     23                     24
                      A                      A                      A
 Frequencies --    514.7501               545.9922               573.0073
 Red. masses --      4.3099                 3.9509                 4.5904
 Frc consts  --      0.6728                 0.6939                 0.8880
 IR Inten    --      3.5054                 9.4063                20.9563

                     25                     26                     27
                      A                      A                      A
 Frequencies --    581.0279               610.8371               617.5591
 Red. masses --      2.9796                 2.2696                 4.7110
 Frc consts  --      0.5927                 0.4989                 1.0586
 IR Inten    --      8.0179                42.5146                12.9801

                     28                     29                     30
                      A                      A                      A
 Frequencies --    637.3760               653.5973               668.5966
 Red. masses --      3.7460                 2.5887                 4.8069
 Frc consts  --      0.8966                 0.6516                 1.2660
 IR Inten    --     22.4594                41.6601                15.7145

                     31                     32                     33
                      A                      A                      A
 Frequencies --    705.0122               744.2304               748.2093
 Red. masses --      1.1833                 3.2007                 5.5542
 Frc consts  --      0.3465                 1.0445                 1.8320
 IR Inten    --     59.4810                 1.4063                 5.8149

                     34                     35                     36
                      A                      A                      A
 Frequencies --    763.8621               784.9420               802.1577
 Red. masses --      1.4438                 4.5639                 4.0153
 Frc consts  --      0.4964                 1.6568                 1.5223
 IR Inten    --     50.4242                23.5990                 3.9762

                     37                     38                     39
                      A                      A                      A
 Frequencies --    833.3314               840.0825               852.4005
 Red. masses --      1.3643                 1.1923                 3.5174
 Frc consts  --      0.5582                 0.4958                 1.5058
 IR Inten    --      7.7657                 0.2649                 2.8397

                     40                     41                     42
                      A                      A                      A
 Frequencies --    861.1202               867.5118               906.9029
 Red. masses --      2.1580                 1.9288                 1.3402
 Frc consts  --      0.9428                 0.8552                 0.6495
 IR Inten    --      4.2316                 2.7470                 0.3399

                     43                     44                     45
                      A                      A                      A
 Frequencies --    924.1966               929.7601               951.1865
 Red. masses --      2.4249                 1.8520                 2.1672
 Frc consts  --      1.2203                 0.9433                 1.1553
 IR Inten    --      5.2410                 3.7225                 8.4352

                     46                     47                     48
                      A                      A                      A
 Frequencies --    954.8305               971.0677              1025.0949
 Red. masses --      2.2990                 1.2566                 3.3681
 Frc consts  --      1.2349                 0.6981                 2.0853
 IR Inten    --     14.1600                 0.5443                 2.2622

                     49                     50                     51
                      A                      A                      A
 Frequencies --   1073.0836              1080.3416              1084.7309
 Red. masses --      1.6624                 3.5238                 2.1202
 Frc consts  --      1.1278                 2.4231                 1.4698
 IR Inten    --      0.7013                45.0784                 9.0169

                     52                     53                     54
                      A                      A                      A
 Frequencies --   1115.3414              1134.8087              1158.0642
 Red. masses --      1.2220                 1.9802                 2.2056
 Frc consts  --      0.8957                 1.5025                 1.7428
 IR Inten    --      2.8107                25.4831                72.9366

                     55                     56                     57
                      A                      A                      A
 Frequencies --   1177.7871              1186.3687              1196.9926
 Red. masses --      2.2644                 2.0808                 1.5086
 Frc consts  --      1.8507                 1.7255                 1.2736
 IR Inten    --     17.3542               175.7572                 3.6021

                     58                     59                     60
                      A                      A                      A
 Frequencies --   1198.5603              1219.3468              1228.1102
 Red. masses --      1.1032                 1.5576                 2.4542
 Frc consts  --      0.9337                 1.3644                 2.1809
 IR Inten    --      2.7690                10.7306                16.8986

                     61                     62                     63
                      A                      A                      A
 Frequencies --   1261.2162              1290.5175              1312.1706
 Red. masses --      1.4541                 3.5153                 1.3181
 Frc consts  --      1.3628                 3.4494                 1.3372
 IR Inten    --     26.6850               203.9835                14.6905

                     64                     65                     66
                      A                      A                      A
 Frequencies --   1315.1050              1332.3167              1346.8638
 Red. masses --      1.1154                 1.4880                 1.6857
 Frc consts  --      1.1366                 1.5562                 1.8017
 IR Inten    --      0.7689                15.1541                 6.9257

                     67                     68                     69
                      A                      A                      A
 Frequencies --   1368.1821              1371.5457              1384.0017
 Red. masses --      2.3360                 1.9358                 2.0065
 Frc consts  --      2.5764                 2.1455                 2.2644
 IR Inten    --     50.2970                 5.7783                13.5599

                     70                     71                     72
                      A                      A                      A
 Frequencies --   1418.4586              1421.6328              1452.5462
 Red. masses --      2.0556                 1.2576                 1.3637
 Frc consts  --      2.4368                 1.4975                 1.6952
 IR Inten    --      0.8027                12.0815                39.3146

                     73                     74                     75
                      A                      A                      A
 Frequencies --   1500.8608              1503.8704              1514.5326
 Red. masses --      2.3055                 3.6492                 1.2400
 Frc consts  --      3.0598                 4.8626                 1.6758
 IR Inten    --     12.1838                 9.6664                 7.0530

                     76                     77                     78
                      A                      A                      A
 Frequencies --   1515.2328              1529.7267              1543.2546
 Red. masses --      1.0847                 1.0604                 1.7927
 Frc consts  --      1.4673                 1.4620                 2.5156
 IR Inten    --     11.4182                 8.8597                64.7647

                     79                     80                     81
                      A                      A                      A
 Frequencies --   1560.5984              1603.4321              1649.9096
 Red. masses --      1.3325                 5.3855                 6.3497
 Frc consts  --      1.9120                 8.1579                10.1842
 IR Inten    --      7.2252                 0.6980                 7.0052

                     82                     83                     84
                      A                      A                      A
 Frequencies --   1664.5170              1852.9945              3017.5297
 Red. masses --      5.9498                 9.6943                 1.0555
 Frc consts  --      9.7125                19.6116                 5.6624
 IR Inten    --     30.4018               309.5293                36.2522

                     85                     86                     87
                      A                      A                      A
 Frequencies --   3055.1167              3064.2462              3071.0309
 Red. masses --      1.1088                 1.0352                 1.0617
 Frc consts  --      6.0974                 5.7271                 5.8995
 IR Inten    --     35.3556                15.7954                20.3634

                     88                     89                     90
                      A                      A                      A
 Frequencies --   3120.6107              3136.4428              3136.7031
 Red. masses --      1.0954                 1.0949                 1.0991
 Frc consts  --      6.2851                 6.3458                 6.3713
 IR Inten    --      4.9804                21.7154                10.3336

                     91                     92                     93
                      A                      A                      A
 Frequencies --   3142.2160              3185.8849              3193.5586
 Red. masses --      1.1041                 1.0856                 1.0903
 Frc consts  --      6.4227                 6.4918                 6.5516
 IR Inten    --     24.9680                 0.4237                18.0036

                     94                     95                     96
                      A                      A                      A
 Frequencies --   3211.2885              3215.2889              3229.2754
 Red. masses --      1.0955                 1.0889                 1.0920
 Frc consts  --      6.6560                 6.6322                 6.7095
 IR Inten    --     26.0553                 8.1971                11.5510

                     97                     98                     99
                      A                      A                      A
 Frequencies --   3229.6473              3268.8435              3687.1110
 Red. masses --      1.0950                 1.0972                 1.0641
 Frc consts  --      6.7296                 6.9079                 8.5231
 IR Inten    --      7.3123                 1.6397                61.0024

 - Thermochemistry -
 -------------------
 Temperature   298.150 Kelvin.  Pressure   1.00000 Atm.
 Atom     1 has atomic number  6 and mass  12.00000

 Molecular mass:   276.08202 amu.
 Principal axes and moments of inertia in atomic units:
                           1         2         3
     Eigenvalues --  4220.209856187.174558551.55575
           X            0.99889  -0.04564   0.01156
           Y            0.04567   0.99895  -0.00253
           Z           -0.01143   0.00306   0.99993
 This molecule is an asymmetric top.
 Rotational symmetry number  1.
 Warning -- assumption of classical behavior for rotation
           may cause significant error
 Rotational temperatures (Kelvin)      0.02052     0.01400     0.01013
 Rotational constants (GHZ):           0.42764     0.29169     0.21104
 Zero-point vibrational energy     740460.3 (Joules/Mol)
                                  176.97427 (Kcal/Mol)
 Warning -- explicit consideration of  27 degrees of freedom as
           vibrations may cause significant error
 Vibrational temperatures:     24.56    47.28    50.75    65.51    79.54
          (Kelvin)            100.88   138.96   173.14   189.89   220.45
                              261.56   288.28   374.70   404.29   424.88
                              442.36   503.52   516.79   609.90   700.38
                              705.57   740.61   785.56   824.43   835.97
                              878.86   888.53   917.04   940.38   961.96
                             1014.36  1070.78  1076.51  1099.03  1129.36
                             1154.13  1198.98  1208.69  1226.41  1238.96
                             1248.16  1304.83  1329.71  1337.72  1368.55
                             1373.79  1397.15  1474.88  1543.93  1554.37
                             1560.69  1604.73  1632.74  1666.20  1694.57
                             1706.92  1722.21  1724.46  1754.37  1766.98
                             1814.61  1856.77  1887.92  1892.14  1916.91
                             1937.84  1968.51  1973.35  1991.27  2040.85
                             2045.41  2089.89  2159.40  2163.73  2179.07
                             2180.08  2200.94  2220.40  2245.35  2306.98
                             2373.85  2394.87  2666.05  4341.55  4395.63
                             4408.77  4418.53  4489.86  4512.64  4513.02
                             4520.95  4583.78  4594.82  4620.33  4626.08
                             4646.21  4646.74  4703.14  5304.93

 Zero-point correction=                           0.282026 (Hartree/Particle)
 Thermal correction to Energy=                    0.300124
 Thermal correction to Enthalpy=                  0.301068
 Thermal correction to Gibbs Free Energy=         0.232763
 Sum of electronic and zero-point Energies=          -1204.883380
 Sum of electronic and thermal Energies=             -1204.865282
 Sum of electronic and thermal Enthalpies=           -1204.864338
 Sum of electronic and thermal Free Energies=        -1204.932643

                     E (Thermal)             CV                S
                      KCal/Mol        Cal/Mol-Kelvin    Cal/Mol-Kelvin
 Total                  188.331             67.687            143.760
 Electronic               0.000              0.000              0.000
 Translational            0.889              2.981             42.745
 Rotational               0.889              2.981             33.767
 Vibrational            186.553             61.726             67.247
 Vibration     1          0.593              1.986              6.949
 Vibration     2          0.594              1.983              5.649
 Vibration     3          0.594              1.982              5.508
 Vibration     4          0.595              1.979              5.002
 Vibration     5          0.596              1.975              4.619
 Vibration     6          0.598              1.968              4.150
 Vibration     7          0.603              1.952              3.522
 Vibration     8          0.609              1.932              3.095
 Vibration     9          0.612              1.921              2.917
 Vibration    10          0.619              1.899              2.632
 Vibration    11          0.630              1.865              2.310
 Vibration    12          0.638              1.839              2.130
 Vibration    13          0.668              1.745              1.659
 Vibration    14          0.681              1.709              1.528
 Vibration    15          0.690              1.682              1.443
 Vibration    16          0.697              1.660              1.376
 Vibration    17          0.727              1.575              1.166
 Vibration    18          0.734              1.556              1.126
 Vibration    19          0.786              1.418              0.879
 Vibration    20          0.843              1.279              0.692
 Vibration    21          0.846              1.271              0.683
 Vibration    22          0.870              1.217              0.622
 Vibration    23          0.901              1.148              0.553
 Vibration    24          0.929              1.090              0.498
 Vibration    25          0.938              1.072              0.483
 Vibration    26          0.970              1.009              0.431
 Vibration    27          0.977              0.995              0.420

 Optimization completed.
    -- Stationary point found.
 Normal termination of Gaussian 16 at Sun Dec 13 20:47:56 2020.

 ----------------------------------------------------------------------
 # B3LYP/6-311++G(d,p) empiricaldispersion=gd3bj scf=xqc pop=npa geom=c
 heck
 ----------------------------------------------------------------------

 --------------------------------------
 CID_24255925_JID_9348_Energie_neutraal
 --------------------------------------
 Structure from the checkpoint file:  "JID_9348.chk"
 Charge =  0 Multiplicity = 1

 SCF Done:  E(RB3LYP) =  -1205.42210318     A.U. after   16 cycles
 Normal termination of Gaussian 16 at Sun Dec 13 20:57:17 2020.

 ----------------------------------------------------------------------
 # B3LYP/6-311++G(d,p) empiricaldispersion=gd3bj scf=xqc pop=npa geom=c
 heck
 ----------------------------------------------------------------------

 ------------------------------------
 CID_24255925_JID_9348_Energie_kation
 ------------------------------------
 Structure from the checkpoint file:  "JID_9348.chk"
 Charge =  1 Multiplicity = 2

 SCF Done:  E(UB3LYP) =  -1205.13633121     A.U. after   29 cycles
 Normal termination of Gaussian 16 at Sun Dec 13 21:21:29 2020.
 Gaussian 16:  ES64L-G16RevA.03 25-Dec-2016

 ----------------------------------------------------------------------
 # B3LYP/6-311++G(d,p) empiricaldispersion=gd3bj scf=xqc pop=npa geom=c
 heck
 ----------------------------------------------------------------------

 -----------------------------------
 CID_24255925_JID_9348_Energie_anion
 -----------------------------------
 Structure from the checkpoint file:  "JID_9348.chk"
 Charge = -1 Multiplicity = 2

                         Standard orientation:
 ---------------------------------------------------------------------
 Center     Atomic      Atomic             Coordinates (Angstroms)
 Number     Number       Type             X           Y           Z
 ---------------------------------------------------------------------
      1          6           0        3.687241   -2.561529    0.990020
      2          6           0        3.603809   -1.062545    0.770180
      3          8           0        2.412926   -0.808748    0.029386
      4          6           0        2.092739    0.483365   -0.289104
      5          6           0        2.869043    1.591222    0.059375
      6          6           0        2.442654    2.872861   -0.300578
      7          6           0        1.253988    3.050815   -1.001175
      8          6           0        0.488694    1.933857   -1.345438
      9          6           0        0.890185    0.643714   -1.005678
     10          6           0        0.042497   -0.557360   -1.329906
     11          6           0       -0.693214   -1.088630   -0.063111
     12          6           0       -1.570581   -0.038918    0.562089
     13          6           0       -1.296540    0.668563    1.702234
     14          6           0       -2.250435    1.693740    1.981473
     15          6           0       -3.239610    1.758494    1.041287
     16         16           0       -3.027146    0.562214   -0.199566
     17          6           0       -1.450747   -2.368927   -0.366793
     18          8           0       -1.319221   -3.421537    0.213822
     19          8           0       -2.318390   -2.210065   -1.400457
     20          1           0        2.813863   -2.918091    1.544763
     21          1           0        4.588732   -2.810234    1.559752
     22          1           0        3.723691   -3.088180    0.031549
     23          1           0        3.566957   -0.523679    1.727496
     24          1           0        4.474823   -0.694931    0.209863
     25          1           0        3.796211    1.468288    0.606295
     26          1           0        3.050565    3.730129   -0.025026
     27          1           0        0.920166    4.046448   -1.276652
     28          1           0       -0.447449    2.061009   -1.882219
     29          1           0       -0.699531   -0.298992   -2.089822
     30          1           0        0.663473   -1.367365   -1.727573
     31          1           0        0.061187   -1.365425    0.675531
     32          1           0       -0.421976    0.469686    2.312071
     33          1           0       -2.199531    2.348307    2.844454
     34          1           0       -4.094700    2.420132    1.011479
     35          1           0       -2.783009   -3.062056   -1.500168
 ---------------------------------------------------------------------

 SCF Done:  E(UB3LYP) =  -1205.41075653     A.U. after   33 cycles
 SCF Done:  E(UB3LYP) =  -1205.41075653     a.u. after    1 cycles

 The electronic state is 2-A.
 Alpha  occ. eigenvalues --  -88.77516 -19.07728 -19.06030 -19.02267 -10.21191
 Alpha  occ. eigenvalues --  -10.14279 -10.13206 -10.10629 -10.10523 -10.09822
 Alpha  occ. eigenvalues --  -10.08817 -10.08688 -10.08642 -10.08355 -10.08189
 Alpha  occ. eigenvalues --  -10.08043 -10.07978 -10.07541 -10.07104  -7.86129
 Alpha  occ. eigenvalues --   -5.82416  -5.82044  -5.81735  -1.01747  -0.97689
 Alpha  occ. eigenvalues --   -0.92846  -0.78766  -0.76865  -0.72098  -0.68680
 Alpha  occ. eigenvalues --   -0.66584  -0.63919  -0.63719  -0.61546  -0.57585
 Alpha  occ. eigenvalues --   -0.55496  -0.52066  -0.49940  -0.49588  -0.46340
 Alpha  occ. eigenvalues --   -0.45264  -0.44285  -0.41998  -0.40096  -0.39579
 Alpha  occ. eigenvalues --   -0.39315  -0.38912  -0.37820  -0.35894  -0.35011
 Alpha  occ. eigenvalues --   -0.33900  -0.33038  -0.31750  -0.31199  -0.30830
 Alpha  occ. eigenvalues --   -0.30276  -0.30100  -0.29636  -0.28368  -0.27596
 Alpha  occ. eigenvalues --   -0.27421  -0.26715  -0.26341  -0.25923  -0.24412
 Alpha  occ. eigenvalues --   -0.23618  -0.23250  -0.22711  -0.19292  -0.16165
 Alpha  occ. eigenvalues --   -0.15807  -0.13877  -0.13383   0.04158
 Alpha virt. eigenvalues --    0.05526   0.06304   0.06453   0.07086   0.07546
 Alpha virt. eigenvalues --    0.08034   0.08468   0.08717   0.09055   0.09319
 Alpha virt. eigenvalues --    0.09563   0.09744   0.10647   0.11193   0.11741

  Beta  occ. eigenvalues --  -88.77503 -19.07686 -19.06022 -19.02239 -10.21159
  Beta  occ. eigenvalues --  -10.14279 -10.13173 -10.10632 -10.10442 -10.09730
  Beta  occ. eigenvalues --  -10.08816 -10.08666 -10.08636 -10.08353 -10.08177
  Beta  occ. eigenvalues --  -10.08042 -10.07976 -10.07516 -10.07074  -7.86117
  Beta  occ. eigenvalues --   -5.82412  -5.82040  -5.81694  -1.01668  -0.97675
  Beta  occ. eigenvalues --   -0.92778  -0.78669  -0.76849  -0.72040  -0.68644
  Beta  occ. eigenvalues --   -0.66546  -0.63890  -0.63637  -0.61439  -0.57526
  Beta  occ. eigenvalues --   -0.55439  -0.51958  -0.49905  -0.49539  -0.46250
  Beta  occ. eigenvalues --   -0.45170  -0.44230  -0.41936  -0.40065  -0.39538
  Beta  occ. eigenvalues --   -0.39289  -0.38878  -0.37762  -0.35811  -0.34972
  Beta  occ. eigenvalues --   -0.33856  -0.33000  -0.31699  -0.31155  -0.30790
  Beta  occ. eigenvalues --   -0.30226  -0.30051  -0.29590  -0.28278  -0.27450
  Beta  occ. eigenvalues --   -0.27375  -0.26657  -0.26302  -0.25887  -0.24339
  Beta  occ. eigenvalues --   -0.23560  -0.23162  -0.22689  -0.19224  -0.16145
  Beta  occ. eigenvalues --   -0.15597  -0.13491  -0.13322
  Beta virt. eigenvalues --    0.06180   0.06649   0.06835   0.06936   0.07339
  Beta virt. eigenvalues --    0.07925   0.08202   0.08690   0.08804   0.09408
  Beta virt. eigenvalues --    0.09517   0.09839   0.10074   0.10836   0.11393

 Mulliken charges and spin densities:
               1          2
     1  C    0.746511  -1.419149
     2  C    0.090885  -0.058302
     3  O   -0.100711   0.050782
     4  C   -0.822344   0.213332
     5  C    0.468859  -0.444642
     6  C    0.036984  -0.276246
     7  C   -0.583146  -0.068902
     8  C   -0.576454   0.255188
     9  C    0.433452   0.824490
    10  C    0.942164  -1.436041
    11  C    0.139167  -0.344327
    12  C    0.133050   0.032374
    13  C   -0.054297   0.136217
    14  C   -0.500790   0.005027
    15  C   -0.253310   0.085860
    16  S   -0.021743   0.050247
    17  C   -0.104451  -0.220292
    18  O   -0.234607   0.005511
    19  O   -0.151808   0.011514
    20  H   -0.050071   0.196716
    21  H   -0.376628   0.529153
    22  H   -0.036749   0.179579
    23  H   -0.142078   0.294891
    24  H   -0.332993   0.489962
    25  H   -0.533981   0.730256
    26  H   -0.150957   0.315736
    27  H    0.090654   0.055889
    28  H    0.084218   0.035218
    29  H    0.223736   0.021405
    30  H    0.113690   0.109395
    31  H    0.604367  -0.259221
    32  H   -0.053206   0.206799
    33  H    0.048255   0.100138
    34  H    0.151273   0.066221
    35  H   -0.226943   0.525220
 Sum of Mulliken charges =  -1.00000   1.00000

 Dipole moment (field-independent basis, Debye):
    X=             -4.7162    Y=              4.3829    Z=             -1.8384  Tot=              6.6957
 Quadrupole moment (field-independent basis, Debye-Ang):
   XX=           -202.1622   YY=           -168.8209   ZZ=           -151.1420
   XY=             -7.3017   XZ=            -10.1608   YZ=              0.7293

 Summary of Natural Population Analysis:

                                       Natural Population
                Natural  -----------------------------------------------
    Atom  No    Charge         Core      Valence    Rydberg      Total
 -----------------------------------------------------------------------
      C    1   -0.29146      0.99966     2.28593    0.00587     3.29146
      C    2   -0.01071      0.99958     1.99941    0.01171     3.01071
      O    3   -0.28140      0.99985     3.27152    0.01003     4.28140
      C    4    0.16677      0.99933     1.82078    0.01312     2.83323
      C    5   -0.14112      0.99952     2.13202    0.00958     3.14112
      C    6   -0.09549      0.99957     2.08539    0.01052     3.09549
      C    7   -0.11684      0.99956     2.10804    0.00924     3.11684
      C    8   -0.08848      0.99952     2.08101    0.00796     3.08848
      C    9   -0.03476      0.99947     2.02459    0.01069     3.03476
      C   10   -0.18911      0.99958     2.17905    0.01048     3.18911
      C   11   -0.16683      0.99947     2.15397    0.01339     3.16683
      C   12   -0.08613      0.99947     2.07248    0.01418     3.08613
      C   13   -0.12050      0.99945     2.11072    0.01033     3.12050
      C   14   -0.12859      0.99953     2.11924    0.00982     3.12859
      C   15   -0.18583      0.99954     2.17465    0.01163     3.18583
      S   16    0.21052      4.99940     2.76966    0.02042     7.78948
      C   17    0.42041      0.99968     1.55377    0.02614     2.57959
      O   18   -0.29999      0.99987     3.29410    0.00603     4.29999
      O   19   -0.34998      0.99988     3.34295    0.00715     4.34998
      H   20    0.10234      0.00000     0.39648    0.00118     0.39766
      H   21    0.10346      0.00000     0.39523    0.00131     0.39654
      H   22    0.10078      0.00000     0.39817    0.00106     0.39922
      H   23    0.08515      0.00000     0.41269    0.00216     0.41485
      H   24    0.08529      0.00000     0.41239    0.00232     0.41471
      H   25    0.10861      0.00000     0.38966    0.00174     0.39139
      H   26    0.09999      0.00000     0.39916    0.00085     0.40001
      H   27    0.09892      0.00000     0.40029    0.00079     0.40108
      H   28    0.10139      0.00000     0.39731    0.00130     0.39861
      H   29    0.10689      0.00000     0.39173    0.00138     0.39311
      H   30    0.11160      0.00000     0.38714    0.00127     0.38840
      H   31    0.12483      0.00000     0.37261    0.00256     0.37517
      H   32    0.10852      0.00000     0.39034    0.00114     0.39148
      H   33    0.10401      0.00000     0.39517    0.00081     0.39599
      H   34    0.10507      0.00000     0.39416    0.00077     0.39493
      H   35    0.24268      0.00000     0.24690    0.01042     0.25732
 =======================================================================
   * Total *   -0.00000     22.99194    49.75870    0.24936    73.00000

 Normal termination of Gaussian 16 at Sun Dec 13 21:50:09 2020.
