 Gaussian 16, Revision A.03,

 -----------------------------------------------------------
 # opt freq B3LYP/6-31G(d) empiricaldispersion=gd3bj scf=xqc
 -----------------------------------------------------------

 -------------------------------
 CID_148457348_JID_1040_neutraal
 -------------------------------
 Symbolic Z-matrix:
 Charge =  0 Multiplicity = 1

 SCF Done:  E(RB3LYP) =  -507.766857214     A.U. after   15 cycles
 SCF Done:  E(RB3LYP) =  -507.772989294     A.U. after   14 cycles
 SCF Done:  E(RB3LYP) =  -507.773945198     A.U. after   13 cycles
 SCF Done:  E(RB3LYP) =  -507.774257725     A.U. after   13 cycles
 SCF Done:  E(RB3LYP) =  -507.774987288     A.U. after   15 cycles
 SCF Done:  E(RB3LYP) =  -507.777320461     A.U. after   16 cycles
 SCF Done:  E(RB3LYP) =  -507.767977472     A.U. after   15 cycles
 SCF Done:  E(RB3LYP) =  -507.788612823     A.U. after   15 cycles
 SCF Done:  E(RB3LYP) =  -507.793505396     A.U. after   16 cycles
 SCF Done:  E(RB3LYP) =  -507.797842550     A.U. after   14 cycles
 SCF Done:  E(RB3LYP) =  -507.805818941     A.U. after   10 cycles
 SCF Done:  E(RB3LYP) =  -507.805820132     A.U. after    8 cycles
 SCF Done:  E(RB3LYP) =  -507.805821419     A.U. after    9 cycles
 SCF Done:  E(RB3LYP) =  -507.805822035     A.U. after    8 cycles
 SCF Done:  E(RB3LYP) =  -507.805822379     A.U. after    8 cycles
 Optimization completed.
    -- Stationary point found.
 Normal termination of Gaussian 16 at Tue Dec  8 19:15:38 2020.

 --------------------------------------------------------------------
 #N Geom=AllCheck Guess=TCheck SCRF=Check GenChk RB3LYP/6-31G(d) Freq
 --------------------------------------------------------------------

 Structure from the checkpoint file:  "JID_1040.chk"
 -------------------------------
 CID_148457348_JID_1040_neutraal
 -------------------------------
 Charge =  0 Multiplicity = 1

 SCF Done:  E(RB3LYP) =  -507.805822379     A.U. after    1 cycles

  Exact polarizability: 174.172  -8.143 110.767   0.933  -0.344  37.153
 Approx polarizability: 307.703 -20.039 183.982   3.410  -1.621  57.330

                      1                      2                      3
                      A                      A                      A
 Frequencies --     99.5918               147.2007               196.5210
 Red. masses --      5.4689                 4.2006                 1.1772
 Frc consts  --      0.0320                 0.0536                 0.0268
 IR Inten    --      9.0318                 8.2645                58.0136

                      4                      5                      6
                      A                      A                      A
 Frequencies --    221.9465               247.5900               282.3008
 Red. masses --      2.4145                 1.9560                 4.3264
 Frc consts  --      0.0701                 0.0706                 0.2031
 IR Inten    --     52.6206                88.5048                 3.3156

                      7                      8                      9
                      A                      A                      A
 Frequencies --    308.2880               327.6092               373.0482
 Red. masses --      3.0427                 3.1843                 3.4581
 Frc consts  --      0.1704                 0.2014                 0.2835
 IR Inten    --     15.5399                19.4180                 6.0333

                     10                     11                     12
                      A                      A                      A
 Frequencies --    398.2716               411.0082               455.0056
 Red. masses --      3.5287                 7.8203                 2.9845
 Frc consts  --      0.3298                 0.7783                 0.3640
 IR Inten    --     27.9723                 0.5143                 8.0513

                     13                     14                     15
                      A                      A                      A
 Frequencies --    461.9054               480.9271               530.0779
 Red. masses --      3.9677                 1.1436                 5.2305
 Frc consts  --      0.4988                 0.1558                 0.8659
 IR Inten    --      8.0655                22.1634                11.0617

                     16                     17                     18
                      A                      A                      A
 Frequencies --    639.0142               652.6276               680.2423
 Red. masses --      2.7177                 1.1982                 3.0529
 Frc consts  --      0.6538                 0.3007                 0.8323
 IR Inten    --    201.3012                17.1119                65.7510

                     19                     20                     21
                      A                      A                      A
 Frequencies --    711.8988               727.3960               754.1764
 Red. masses --      2.5876                 2.0126                 5.2383
 Frc consts  --      0.7727                 0.6274                 1.7554
 IR Inten    --     11.9558               171.6955                26.9003

                     22                     23                     24
                      A                      A                      A
 Frequencies --    774.7499               815.1776               865.7732
 Red. masses --      4.1048                 1.7053                 2.1437
 Frc consts  --      1.4516                 0.6677                 0.9467
 IR Inten    --     75.4411                58.6263               128.2303

                     25                     26                     27
                      A                      A                      A
 Frequencies --    872.1194               899.9417               926.5519
 Red. masses --      1.5686                 1.3284                 1.4006
 Frc consts  --      0.7029                 0.6339                 0.7084
 IR Inten    --     67.0946                61.1522                62.6344

                     28                     29                     30
                      A                      A                      A
 Frequencies --   1098.8089              1155.9806              1167.5090
 Red. masses --      1.5731                 1.3413                 1.3267
 Frc consts  --      1.1191                 1.0560                 1.0655
 IR Inten    --      0.1201                 2.4201                40.6469

                     31                     32                     33
                      A                      A                      A
 Frequencies --   1176.7769              1263.1456              1286.1844
 Red. masses --      2.6469                 2.4293                 2.5149
 Frc consts  --      2.1596                 2.2837                 2.4512
 IR Inten    --     23.5264                 6.2958                99.3895

                     34                     35                     36
                      A                      A                      A
 Frequencies --   1319.6622              1365.6568              1430.8541
 Red. masses --      1.8170                 3.4006                 3.7653
 Frc consts  --      1.8643                 3.7367                 4.5419
 IR Inten    --     52.0295                82.9337                75.6636

                     37                     38                     39
                      A                      A                      A
 Frequencies --   1473.2144              1508.5071              1542.8504
 Red. masses --      6.1980                 1.8137                 2.8095
 Frc consts  --      7.9256                 2.4316                 3.9403
 IR Inten    --    151.1021                 7.4912                 6.7708

                     40                     41                     42
                      A                      A                      A
 Frequencies --   1577.0688              1604.1370              1646.7915
 Red. masses --      3.4492                 3.8018                 1.4376
 Frc consts  --      5.0545                 5.7640                 2.2971
 IR Inten    --    260.9559                22.6374                80.5132

                     43                     44                     45
                      A                      A                      A
 Frequencies --   1669.8360              1685.3067              1709.8965
 Red. masses --      1.4586                 1.1466                 3.4294
 Frc consts  --      2.3963                 1.9188                 5.9076
 IR Inten    --    166.3342                57.6550               200.2915

                     46                     47                     48
                      A                      A                      A
 Frequencies --   3164.2856              3195.2842              3323.4322
 Red. masses --      1.0895                 1.0904                 1.0756
 Frc consts  --      6.4273                 6.5594                 6.9998
 IR Inten    --     23.7400                 8.2903                23.7467

                     49                     50                     51
                      A                      A                      A
 Frequencies --   3457.1715              3460.8409              3520.9163
 Red. masses --      1.0568                 1.0539                 1.0491
 Frc consts  --      7.4421                 7.4371                 7.6626
 IR Inten    --     61.3058                 1.2840                32.3590

                     52                     53                     54
                      A                      A                      A
 Frequencies --   3576.5230              3638.5585              3675.2544
 Red. masses --      1.0889                 1.0967                 1.0939
 Frc consts  --      8.2065                 8.5542                 8.7058
 IR Inten    --      4.8902                18.3014                35.4109

 - Thermochemistry -
 -------------------
 Temperature   298.150 Kelvin.  Pressure   1.00000 Atm.
 Atom     1 has atomic number  6 and mass  12.00000

 Molecular mass:   151.08580 amu.
 Principal axes and moments of inertia in atomic units:
                           1         2         3
     Eigenvalues --   816.044122240.586773048.99416
           X            0.99994   0.01135  -0.00097
           Y           -0.01134   0.99993   0.00394
           Z            0.00102  -0.00392   0.99999
 This molecule is an asymmetric top.
 Rotational symmetry number  1.
 Warning -- assumption of classical behavior for rotation
           may cause significant error
 Rotational temperatures (Kelvin)      0.10614     0.03866     0.02841
 Rotational constants (GHZ):           2.21157     0.80548     0.59191
 Zero-point vibrational energy     424407.6 (Joules/Mol)
                                  101.43586 (Kcal/Mol)
 Warning -- explicit consideration of  15 degrees of freedom as
           vibrations may cause significant error
 Vibrational temperatures:    143.29   211.79   282.75   319.33   356.23
          (Kelvin)            406.17   443.56   471.36   536.73   573.02
                              591.35   654.65   664.58   691.95   762.66
                              919.40   938.99   978.72  1024.26  1046.56
                             1085.09  1114.69  1172.86  1245.65  1254.79
                             1294.82  1333.10  1580.94  1663.20  1679.79
                             1693.12  1817.38  1850.53  1898.70  1964.88
                             2058.68  2119.63  2170.41  2219.82  2269.05
                             2308.00  2369.37  2402.52  2424.78  2460.16
                             4552.70  4597.30  4781.68  4974.10  4979.38
                             5065.81  5145.82  5235.07  5287.87

 Zero-point correction=                           0.161648 (Hartree/Particle)
 Thermal correction to Energy=                    0.171832
 Thermal correction to Enthalpy=                  0.172777
 Thermal correction to Gibbs Free Energy=         0.127002
 Sum of electronic and zero-point Energies=           -507.644174
 Sum of electronic and thermal Energies=              -507.633990
 Sum of electronic and thermal Enthalpies=            -507.633046
 Sum of electronic and thermal Free Energies=         -507.678820

                     E (Thermal)             CV                S
                      KCal/Mol        Cal/Mol-Kelvin    Cal/Mol-Kelvin
 Total                  107.826             40.381             96.340
 Electronic               0.000              0.000              0.000
 Translational            0.889              2.981             40.948
 Rotational               0.889              2.981             30.101
 Vibrational            106.049             34.419             25.291
 Vibration     1          0.604              1.949              3.462
 Vibration     2          0.617              1.906              2.708
 Vibration     3          0.636              1.845              2.165
 Vibration     4          0.648              1.808              1.943
 Vibration     5          0.661              1.767              1.748
 Vibration     6          0.681              1.706              1.520
 Vibration     7          0.698              1.658              1.372
 Vibration     8          0.711              1.620              1.272
 Vibration     9          0.744              1.527              1.067
 Vibration    10          0.765              1.474              0.969
 Vibration    11          0.775              1.446              0.923
 Vibration    12          0.813              1.350              0.781
 Vibration    13          0.820              1.335              0.761
 Vibration    14          0.837              1.292              0.708
 Vibration    15          0.885              1.183              0.587

                           ! Non-Optimized Parameters !
 Normal termination of Gaussian 16 at Tue Dec  8 19:19:00 2020.

 ----------------------------------------------------------------------
 # B3LYP/6-311++G(d,p) empiricaldispersion=gd3bj scf=xqc pop=npa geom=c
 heck
 ----------------------------------------------------------------------

 ---------------------------------------
 CID_148457348_JID_1040_Energie_neutraal
 ---------------------------------------
 Structure from the checkpoint file:  "JID_1040.chk"
 Charge =  0 Multiplicity = 1

 SCF Done:  E(RB3LYP) =  -507.968435762     A.U. after   16 cycles
 Normal termination of Gaussian 16 at Tue Dec  8 19:20:12 2020.

 ----------------------------------------------------------------------
 # B3LYP/6-311++G(d,p) empiricaldispersion=gd3bj scf=xqc pop=npa geom=c
 heck
 ----------------------------------------------------------------------

 -------------------------------------
 CID_148457348_JID_1040_Energie_kation
 -------------------------------------
 Structure from the checkpoint file:  "JID_1040.chk"
 Charge =  1 Multiplicity = 2

 SCF Done:  E(UB3LYP) =  -507.709126372     A.U. after   25 cycles
 Normal termination of Gaussian 16 at Tue Dec  8 19:22:38 2020.
 Gaussian 16:  ES64L-G16RevA.03 25-Dec-2016

 ----------------------------------------------------------------------
 # B3LYP/6-311++G(d,p) empiricaldispersion=gd3bj scf=xqc pop=npa geom=c
 heck
 ----------------------------------------------------------------------

 ------------------------------------
 CID_148457348_JID_1040_Energie_anion
 ------------------------------------
 Structure from the checkpoint file:  "JID_1040.chk"
 Charge = -1 Multiplicity = 2

                         Standard orientation:
 ---------------------------------------------------------------------
 Center     Atomic      Atomic             Coordinates (Angstroms)
 Number     Number       Type             X           Y           Z
 ---------------------------------------------------------------------
      1          6           0       -0.419802    1.445593   -0.024727
      2          6           0       -1.555965    0.641543   -0.007502
      3          6           0       -1.426884   -0.776964   -0.005578
      4          6           0       -0.162039   -1.318312    0.007764
      5          6           0        1.009152   -0.526090    0.019147
      6          6           0        0.876548    0.898947   -0.004518
      7          7           0        1.973612    1.706689    0.024524
      8          7           0        2.193070   -1.251853    0.014196
      9          7           0        3.288649   -0.606184   -0.002449
     10          7           0       -2.633789   -1.538113    0.042130
     11          7           0       -2.839300    1.167461   -0.032600
     12          1           0       -0.533094    2.527953   -0.026812
     13          1           0       -0.017917   -2.395369    0.006542
     14          1           0        2.879122    1.251441   -0.065933
     15          1           0        1.867079    2.690293   -0.171014
     16          1           0        4.036686   -1.314235   -0.014789
     17          1           0       -2.438165   -2.522935    0.196954
     18          1           0       -3.156928   -1.458207   -0.829878
     19          1           0       -3.519620    0.555901    0.409037
     20          1           0       -2.918907    2.130857    0.267771
 ---------------------------------------------------------------------

 SCF Done:  E(UB3LYP) =  -507.965040957     A.U. after   33 cycles
 SCF Done:  E(UB3LYP) =  -507.965040957     a.u. after    1 cycles

 The electronic state is 2-A.
 Alpha  occ. eigenvalues --  -14.19129 -14.18205 -14.16889 -14.16322 -14.14458
 Alpha  occ. eigenvalues --  -10.06849 -10.06119 -10.05329 -10.03337 -10.01913
 Alpha  occ. eigenvalues --  -10.01781  -0.83620  -0.80214  -0.77293  -0.76046
 Alpha  occ. eigenvalues --   -0.67548  -0.60644  -0.57419  -0.51179  -0.48025
 Alpha  occ. eigenvalues --   -0.43625  -0.40940  -0.38538  -0.36341  -0.35571
 Alpha  occ. eigenvalues --   -0.35382  -0.32019  -0.28915  -0.27266  -0.27251
 Alpha  occ. eigenvalues --   -0.25466  -0.24229  -0.22639  -0.21279  -0.19781
 Alpha  occ. eigenvalues --   -0.17775  -0.13200  -0.07940  -0.05742  -0.04933
 Alpha  occ. eigenvalues --    0.05432
 Alpha virt. eigenvalues --    0.07475   0.08428   0.09726   0.11205   0.11373
 Alpha virt. eigenvalues --    0.12200   0.13602   0.14250   0.14301   0.15776
 Alpha virt. eigenvalues --    0.17590   0.18045   0.18652   0.19058   0.19709

  Beta  occ. eigenvalues --  -14.19124 -14.18119 -14.16829 -14.15850 -14.13860
  Beta  occ. eigenvalues --  -10.06747 -10.05881 -10.05418 -10.03414 -10.01962
  Beta  occ. eigenvalues --  -10.01597  -0.82673  -0.80078  -0.77091  -0.75965
  Beta  occ. eigenvalues --   -0.67346  -0.60229  -0.57201  -0.50433  -0.47900
  Beta  occ. eigenvalues --   -0.43386  -0.40869  -0.38356  -0.36306  -0.35499
  Beta  occ. eigenvalues --   -0.35241  -0.31752  -0.28827  -0.27161  -0.26751
  Beta  occ. eigenvalues --   -0.24845  -0.23665  -0.21423  -0.20965  -0.18707
  Beta  occ. eigenvalues --   -0.17191  -0.12446  -0.07320  -0.05082  -0.04105
  Beta virt. eigenvalues --    0.07943   0.08830   0.09946   0.11183   0.11436
  Beta virt. eigenvalues --    0.11787   0.12587   0.13737   0.14564   0.14627
  Beta virt. eigenvalues --    0.15739   0.17690   0.18406   0.18683   0.19535

 Mulliken charges and spin densities:
               1          2
     1  C    0.078694  -0.044714
     2  C   -0.122562  -0.151862
     3  C   -0.541420  -0.048413
     4  C   -0.075009   0.363211
     5  C    0.089882  -0.276774
     6  C    0.461014  -0.256284
     7  N   -0.355273   0.025240
     8  N   -0.173705   0.162195
     9  N   -0.504452   0.347796
    10  N   -0.390220  -0.058353
    11  N   -0.372904  -0.031097
    12  H   -0.103508   0.193826
    13  H    0.102348   0.003418
    14  H    0.299931  -0.011117
    15  H    0.199592   0.004868
    16  H    0.231984  -0.010869
    17  H    0.193443   0.044725
    18  H    0.188557   0.039329
    19  H    0.013302   0.243310
    20  H   -0.219693   0.461566
 Sum of Mulliken charges =  -1.00000   1.00000

 Dipole moment (field-independent basis, Debye):
    X=             -0.5471    Y=             -0.5311    Z=             -1.4361  Tot=              1.6260
 Quadrupole moment (field-independent basis, Debye-Ang):
   XX=           -109.3421   YY=            -79.3635   ZZ=            -78.8483
   XY=             13.6653   XZ=              2.8807   YZ=             -0.5742

 Summary of Natural Population Analysis:

                                       Natural Population
                Natural  -----------------------------------------------
    Atom  No    Charge         Core      Valence    Rydberg      Total
 -----------------------------------------------------------------------
      C    1   -0.17452      0.99951     2.16496    0.01004     3.17452
      C    2    0.12692      0.99948     1.86205    0.01156     2.87308
      C    3    0.00948      0.99943     1.98000    0.01109     2.99052
      C    4   -0.05967      0.99949     2.04812    0.01206     3.05967
      C    5   -0.00417      0.99947     1.98734    0.01736     3.00417
      C    6    0.11016      0.99950     1.87629    0.01406     2.88984
      N    7   -0.39520      0.99969     2.88673    0.00878     3.89520
      N    8   -0.06202      0.99972     2.54058    0.02172     3.56202
      N    9   -0.16298      0.99977     2.64700    0.01621     3.66298
      N   10   -0.42292      0.99974     2.91241    0.01077     3.92292
      N   11   -0.39987      0.99971     2.88926    0.01089     3.89987
      H   12    0.08769      0.00000     0.41025    0.00206     0.41231
      H   13    0.09358      0.00000     0.40410    0.00232     0.40642
      H   14    0.21274      0.00000     0.28428    0.00298     0.28726
      H   15    0.17582      0.00000     0.32229    0.00188     0.32418
      H   16    0.13993      0.00000     0.35713    0.00294     0.36007
      H   17    0.17758      0.00000     0.32097    0.00145     0.32242
      H   18    0.17410      0.00000     0.32414    0.00176     0.32590
      H   19    0.19045      0.00000     0.30687    0.00268     0.30955
      H   20    0.18290      0.00000     0.31307    0.00403     0.31710
 =======================================================================
   * Total *    0.00000     10.99552    28.83785    0.16663    40.00000

 Normal termination of Gaussian 16 at Tue Dec  8 19:25:55 2020.
