 Gaussian 16, Revision A.03,

 -----------------------------------------------------------
 # opt freq B3LYP/6-31G(d) empiricaldispersion=gd3bj scf=xqc
 -----------------------------------------------------------

 -------------------------------
 CID_123298517_JID_6152_neutraal
 -------------------------------
 Symbolic Z-matrix:
 Charge =  0 Multiplicity = 1

 SCF Done:  E(RB3LYP) =  -786.259715515     A.U. after   14 cycles
 SCF Done:  E(RB3LYP) =  -786.262902361     A.U. after   13 cycles
 SCF Done:  E(RB3LYP) =  -786.260931170     A.U. after   13 cycles
 SCF Done:  E(RB3LYP) =  -786.263999515     A.U. after   12 cycles
 SCF Done:  E(RB3LYP) =  -786.264968259     A.U. after   12 cycles
 SCF Done:  E(RB3LYP) =  -786.265979052     A.U. after   12 cycles
 SCF Done:  E(RB3LYP) =  -786.266230993     A.U. after   12 cycles
 SCF Done:  E(RB3LYP) =  -786.266403694     A.U. after   12 cycles
 SCF Done:  E(RB3LYP) =  -786.266527833     A.U. after   11 cycles
 SCF Done:  E(RB3LYP) =  -786.266562569     A.U. after   11 cycles
 SCF Done:  E(RB3LYP) =  -786.266604979     A.U. after   10 cycles
 SCF Done:  E(RB3LYP) =  -786.266607625     A.U. after    9 cycles
 SCF Done:  E(RB3LYP) =  -786.266611209     A.U. after   10 cycles
 SCF Done:  E(RB3LYP) =  -786.266611448     A.U. after    8 cycles
 SCF Done:  E(RB3LYP) =  -786.266611469     A.U. after    8 cycles
 SCF Done:  E(RB3LYP) =  -786.266611510     A.U. after    8 cycles
 Optimization completed.
    -- Stationary point found.
 Normal termination of Gaussian 16 at Thu Dec 10 21:18:32 2020.

 --------------------------------------------------------------------
 #N Geom=AllCheck Guess=TCheck SCRF=Check GenChk RB3LYP/6-31G(d) Freq
 --------------------------------------------------------------------

 Structure from the checkpoint file:  "JID_6152.chk"
 -------------------------------
 CID_123298517_JID_6152_neutraal
 -------------------------------
 Charge =  0 Multiplicity = 1

 SCF Done:  E(RB3LYP) =  -786.266611510     A.U. after    1 cycles

  Exact polarizability: 147.244   4.807 121.640  -3.321   0.284 114.588
 Approx polarizability: 199.362   7.803 167.102  -8.037  -1.229 168.484

                      1                      2                      3
                      A                      A                      A
 Frequencies --     20.4379                25.3169                51.5553
 Red. masses --      4.8978                 5.5869                 5.1448
 Frc consts  --      0.0012                 0.0021                 0.0081
 IR Inten    --      1.4730                 2.8202                 1.2172

                      4                      5                      6
                      A                      A                      A
 Frequencies --     55.7955                93.8314               105.2546
 Red. masses --      5.7125                 2.9954                 4.4820
 Frc consts  --      0.0105                 0.0155                 0.0293
 IR Inten    --      0.7011                 0.2344                 2.9061

                      7                      8                      9
                      A                      A                      A
 Frequencies --    132.7422               147.4119               159.1275
 Red. masses --      3.1963                 7.3849                 2.7326
 Frc consts  --      0.0332                 0.0945                 0.0408
 IR Inten    --      1.7289                 1.5440                 4.8772

                     10                     11                     12
                      A                      A                      A
 Frequencies --    194.5676               229.9856               244.7569
 Red. masses --      4.2669                 4.0371                 2.5586
 Frc consts  --      0.0952                 0.1258                 0.0903
 IR Inten    --     21.8768                 3.1770                 2.2012

                     13                     14                     15
                      A                      A                      A
 Frequencies --    283.6882               298.4549               310.3944
 Red. masses --      2.5049                 1.1970                 4.4645
 Frc consts  --      0.1188                 0.0628                 0.2534
 IR Inten    --      1.9586               113.7798                 4.5744

                     16                     17                     18
                      A                      A                      A
 Frequencies --    345.5583               375.4375               387.2320
 Red. masses --      2.4536                 4.6992                 2.5067
 Frc consts  --      0.1726                 0.3903                 0.2215
 IR Inten    --      1.8500                 0.5065                 6.7226

                     19                     20                     21
                      A                      A                      A
 Frequencies --    390.6657               420.6838               455.6734
 Red. masses --      1.9385                 3.4141                 4.7539
 Frc consts  --      0.1743                 0.3560                 0.5816
 IR Inten    --      5.3715                 4.1138                 8.0825

                     22                     23                     24
                      A                      A                      A
 Frequencies --    494.7719               507.7239               532.8707
 Red. masses --      1.3245                 2.2104                 2.6062
 Frc consts  --      0.1910                 0.3357                 0.4360
 IR Inten    --    109.3096                 4.2169                 2.3327

                     25                     26                     27
                      A                      A                      A
 Frequencies --    574.4707               672.1266               682.5336
 Red. masses --      4.3704                 3.6084                 3.0296
 Frc consts  --      0.8498                 0.9604                 0.8315
 IR Inten    --      3.3119                 4.6769                 5.8799

                     28                     29                     30
                      A                      A                      A
 Frequencies --    762.2318               781.2517               811.2972
 Red. masses --      2.8909                 1.4423                 3.5235
 Frc consts  --      0.9896                 0.5187                 1.3664
 IR Inten    --      3.6012                 0.3556                 9.7851

                     31                     32                     33
                      A                      A                      A
 Frequencies --    828.3176               850.0326               885.4213
 Red. masses --      3.6633                 3.1449                 2.8650
 Frc consts  --      1.4808                 1.3388                 1.3233
 IR Inten    --      3.7184                10.7250                10.5618

                     34                     35                     36
                      A                      A                      A
 Frequencies --    900.4343               906.6073               919.1282
 Red. masses --      2.2900                 2.1585                 2.3294
 Frc consts  --      1.0939                 1.0453                 1.1594
 IR Inten    --      2.3531                 3.3917                68.9695

                     37                     38                     39
                      A                      A                      A
 Frequencies --    937.8348               980.3626              1002.0635
 Red. masses --      2.1709                 1.9992                 2.2614
 Frc consts  --      1.1250                 1.1321                 1.3379
 IR Inten    --     41.6911                 8.0230                22.5862

                     40                     41                     42
                      A                      A                      A
 Frequencies --   1016.9042              1034.1967              1046.4262
 Red. masses --      2.3347                 2.1879                 2.4853
 Frc consts  --      1.4224                 1.3787                 1.6034
 IR Inten    --     14.2715                81.1379                32.0703

                     43                     44                     45
                      A                      A                      A
 Frequencies --   1063.9473              1068.9811              1092.8282
 Red. masses --      2.3786                 2.5605                 2.5970
 Frc consts  --      1.5864                 1.7239                 1.8274
 IR Inten    --     17.9486               139.2124               116.2702

                     46                     47                     48
                      A                      A                      A
 Frequencies --   1101.7566              1125.3956              1141.3410
 Red. masses --      2.2991                 2.4297                 2.0748
 Frc consts  --      1.6443                 1.8131                 1.5924
 IR Inten    --      9.7127                45.5507                67.7865

                     49                     50                     51
                      A                      A                      A
 Frequencies --   1146.6570              1157.3982              1226.7254
 Red. masses --      2.0397                 4.1608                 1.1268
 Frc consts  --      1.5801                 3.2839                 0.9990
 IR Inten    --     52.4357                53.2501                15.8490

                     52                     53                     54
                      A                      A                      A
 Frequencies --   1227.2958              1233.1929              1253.0656
 Red. masses --      1.1894                 1.2508                 1.3524
 Frc consts  --      1.0555                 1.1208                 1.2511
 IR Inten    --     38.1326                39.4745                62.0929

                     55                     56                     57
                      A                      A                      A
 Frequencies --   1265.6604              1293.9191              1296.7642
 Red. masses --      1.3409                 1.1803                 1.3038
 Frc consts  --      1.2656                 1.1643                 1.2918
 IR Inten    --     13.0404                 1.7994                10.3972

                     58                     59                     60
                      A                      A                      A
 Frequencies --   1305.8240              1311.1547              1352.1202
 Red. masses --      1.1530                 1.2872                 1.4260
 Frc consts  --      1.1584                 1.3038                 1.5360
 IR Inten    --      8.3836                 7.5022                11.0580

                     61                     62                     63
                      A                      A                      A
 Frequencies --   1364.3499              1370.6898              1377.6095
 Red. masses --      1.3161                 1.5269                 1.3922
 Frc consts  --      1.4435                 1.6902                 1.5567
 IR Inten    --      9.0672                33.6231                 4.0194

                     64                     65                     66
                      A                      A                      A
 Frequencies --   1395.6319              1402.7658              1405.9959
 Red. masses --      1.2469                 1.3342                 1.5178
 Frc consts  --      1.4310                 1.5468                 1.7678
 IR Inten    --     31.4817                19.5813                 3.2307

                     67                     68                     69
                      A                      A                      A
 Frequencies --   1410.5188              1412.4802              1438.9214
 Red. masses --      1.3020                 1.2619                 1.4352
 Frc consts  --      1.5262                 1.4834                 1.7508
 IR Inten    --      8.8016                 2.7984                14.3394

                     70                     71                     72
                      A                      A                      A
 Frequencies --   1444.9108              1452.0754              1471.6491
 Red. masses --      1.2847                 1.3337                 1.5330
 Frc consts  --      1.5803                 1.6568                 1.9561
 IR Inten    --      1.8630                58.8291                 8.3201

                     73                     74                     75
                      A                      A                      A
 Frequencies --   1493.8122              1506.0909              1512.2967
 Red. masses --      1.1045                 1.0805                 1.0974
 Frc consts  --      1.4521                 1.4440                 1.4788
 IR Inten    --      7.0620                 0.5870                 9.5049

                     76                     77                     78
                      A                      A                      A
 Frequencies --   1514.3444              1532.8371              1541.8435
 Red. masses --      1.0888                 1.0983                 1.0914
 Frc consts  --      1.4711                 1.5204                 1.5287
 IR Inten    --      4.2560                 5.2732                 7.2078

                     79                     80                     81
                      A                      A                      A
 Frequencies --   1550.0327              2376.6432              3011.2709
 Red. masses --      1.0907                12.6038                 1.0721
 Frc consts  --      1.5440                41.9450                 5.7278
 IR Inten    --      2.6950                 7.8269                63.9511

                     82                     83                     84
                      A                      A                      A
 Frequencies --   3024.6237              3034.6866              3038.7991
 Red. masses --      1.0670                 1.0845                 1.0759
 Frc consts  --      5.7513                 5.8847                 5.8538
 IR Inten    --     10.6736                59.5531                16.3059

                     85                     86                     87
                      A                      A                      A
 Frequencies --   3045.4867              3049.6109              3062.5016
 Red. masses --      1.0789                 1.0792                 1.0623
 Frc consts  --      5.8959                 5.9133                 5.8704
 IR Inten    --     46.5564                56.5743                12.6520

                     88                     89                     90
                      A                      A                      A
 Frequencies --   3063.7447              3068.3185              3075.6132
 Red. masses --      1.0678                 1.0632                 1.0640
 Frc consts  --      5.9055                 5.8977                 5.9301
 IR Inten    --     37.2076                47.2437                19.9426

                     91                     92                     93
                      A                      A                      A
 Frequencies --   3094.2763              3097.9954              3109.5608
 Red. masses --      1.0994                 1.1013                 1.1014
 Frc consts  --      6.2021                 6.2275                 6.2745
 IR Inten    --     23.5819                11.7776                23.6003

                     94                     95                     96
                      A                      A                      A
 Frequencies --   3110.3988              3112.7183              3124.0660
 Red. masses --      1.0960                 1.1006                 1.1040
 Frc consts  --      6.2476                 6.2832                 6.3482
 IR Inten    --     15.0581                39.3264                67.6302

                     97                     98                     99
                      A                      A                      A
 Frequencies --   3146.0791              3705.2383              3736.0104
 Red. masses --      1.0879                 1.0653                 1.0662
 Frc consts  --      6.3442                 8.6168                 8.7679
 IR Inten    --      3.8919                58.6954                 6.8532

 - Thermochemistry -
 -------------------
 Temperature   298.150 Kelvin.  Pressure   1.00000 Atm.
 Atom     1 has atomic number  6 and mass  12.00000

 Molecular mass:   229.13141 amu.
 Principal axes and moments of inertia in atomic units:
                           1         2         3
     Eigenvalues --  2223.311015583.531806076.19752
           X            0.99975   0.01825   0.01318
           Y           -0.01858   0.99951   0.02505
           Z           -0.01272  -0.02528   0.99960
 This molecule is an asymmetric top.
 Rotational symmetry number  1.
 Warning -- assumption of classical behavior for rotation
           may cause significant error
 Rotational temperatures (Kelvin)      0.03896     0.01551     0.01425
 Rotational constants (GHZ):           0.81174     0.32323     0.29702
 Zero-point vibrational energy     796749.4 (Joules/Mol)
                                  190.42769 (Kcal/Mol)
 Warning -- explicit consideration of  25 degrees of freedom as
           vibrations may cause significant error
 Vibrational temperatures:     29.41    36.43    74.18    80.28   135.00
          (Kelvin)            151.44   190.99   212.09   228.95   279.94
                              330.90   352.15   408.16   429.41   446.59
                              497.18   540.17   557.14   562.08   605.27
                              655.61   711.87   730.50   766.68   826.54
                              967.04   982.01  1096.68  1124.05  1167.28
                             1191.76  1223.01  1273.92  1295.52  1304.41
                             1322.42  1349.34  1410.52  1441.75  1463.10
                             1487.98  1505.57  1530.78  1538.03  1572.34
                             1585.18  1619.19  1642.14  1649.78  1665.24
                             1764.98  1765.80  1774.29  1802.88  1821.00
                             1861.66  1865.75  1878.79  1886.46  1945.40
                             1963.00  1972.12  1982.07  2008.00  2018.27
                             2022.91  2029.42  2032.24  2070.29  2078.90
                             2089.21  2117.37  2149.26  2166.93  2175.86
                             2178.80  2205.41  2218.37  2230.15  3419.46
                             4332.55  4351.76  4366.24  4372.15  4381.78
                             4387.71  4406.26  4408.05  4414.63  4425.12
                             4451.97  4457.32  4473.96  4475.17  4478.51
                             4494.83  4526.51  5331.01  5375.29

 Zero-point correction=                           0.303466 (Hartree/Particle)
 Thermal correction to Energy=                    0.320217
 Thermal correction to Enthalpy=                  0.321161
 Thermal correction to Gibbs Free Energy=         0.257304
 Sum of electronic and zero-point Energies=           -785.963146
 Sum of electronic and thermal Energies=              -785.946395
 Sum of electronic and thermal Enthalpies=            -785.945451
 Sum of electronic and thermal Free Energies=         -786.009308

                     E (Thermal)             CV                S
                      KCal/Mol        Cal/Mol-Kelvin    Cal/Mol-Kelvin
 Total                  200.939             62.263            134.399
 Electronic               0.000              0.000              0.000
 Translational            0.889              2.981             42.189
 Rotational               0.889              2.981             32.689
 Vibrational            199.162             56.301             59.520
 Vibration     1          0.593              1.986              6.591
 Vibration     2          0.593              1.985              6.166
 Vibration     3          0.596              1.977              4.757
 Vibration     4          0.596              1.975              4.601
 Vibration     5          0.603              1.954              3.579
 Vibration     6          0.605              1.945              3.355
 Vibration     7          0.613              1.921              2.906
 Vibration     8          0.617              1.905              2.705
 Vibration     9          0.621              1.892              2.560
 Vibration    10          0.635              1.847              2.184
 Vibration    11          0.652              1.795              1.879
 Vibration    12          0.660              1.771              1.768
 Vibration    13          0.682              1.704              1.511
 Vibration    14          0.692              1.677              1.426
 Vibration    15          0.699              1.654              1.360
 Vibration    16          0.724              1.584              1.186
 Vibration    17          0.746              1.522              1.057
 Vibration    18          0.756              1.497              1.011
 Vibration    19          0.758              1.490              0.998
 Vibration    20          0.783              1.425              0.890
 Vibration    21          0.814              1.348              0.779
 Vibration    22          0.850              1.262              0.671
 Vibration    23          0.863              1.233              0.639
 Vibration    24          0.888              1.177              0.581
 Vibration    25          0.931              1.086              0.496

                           ! Non-Optimized Parameters !
 Normal termination of Gaussian 16 at Thu Dec 10 21:30:45 2020.

 ----------------------------------------------------------------------
 # B3LYP/6-311++G(d,p) empiricaldispersion=gd3bj scf=xqc pop=npa geom=c
 heck
 ----------------------------------------------------------------------

 ---------------------------------------
 CID_123298517_JID_6152_Energie_neutraal
 ---------------------------------------
 Structure from the checkpoint file:  "JID_6152.chk"
 Charge =  0 Multiplicity = 1

 SCF Done:  E(RB3LYP) =  -786.511645258     A.U. after   14 cycles
 Normal termination of Gaussian 16 at Thu Dec 10 21:35:32 2020.

 ----------------------------------------------------------------------
 # B3LYP/6-311++G(d,p) empiricaldispersion=gd3bj scf=xqc pop=npa geom=c
 heck
 ----------------------------------------------------------------------

 -------------------------------------
 CID_123298517_JID_6152_Energie_kation
 -------------------------------------
 Structure from the checkpoint file:  "JID_6152.chk"
 Charge =  1 Multiplicity = 2

 SCF Done:  E(UB3LYP) =  -786.163506797     A.U. after   32 cycles
 Normal termination of Gaussian 16 at Thu Dec 10 21:50:15 2020.
 Gaussian 16:  ES64L-G16RevA.03 25-Dec-2016

 ----------------------------------------------------------------------
 # B3LYP/6-311++G(d,p) empiricaldispersion=gd3bj scf=xqc pop=npa geom=c
 heck
 ----------------------------------------------------------------------

 ------------------------------------
 CID_123298517_JID_6152_Energie_anion
 ------------------------------------
 Structure from the checkpoint file:  "JID_6152.chk"
 Charge = -1 Multiplicity = 2

                         Standard orientation:
 ---------------------------------------------------------------------
 Center     Atomic      Atomic             Coordinates (Angstroms)
 Number     Number       Type             X           Y           Z
 ---------------------------------------------------------------------
      1          6           0       -2.188361   -1.613952   -1.040106
      2          6           0       -2.403873   -1.696106    0.488791
      3          6           0       -3.393322   -0.632657    0.952383
      4          8           0       -2.953710    0.699786    0.652682
      5          6           0       -2.227799    0.864909   -0.542311
      6          6           0       -2.537746   -0.208681   -1.574470
      7          8           0       -0.824661    0.820618   -0.307576
      8          6           0       -0.342997    1.832486    0.581646
      9          6           0        1.174448    1.921179    0.391796
     10          6           0        1.980913    0.841049    1.129411
     11          6           0        1.622195   -0.620942    0.871237
     12          6           0        1.895970   -1.094138   -0.574109
     13          6           0        3.296070   -0.940287   -0.969741
     14          7           0        4.407929   -0.822778   -1.279234
     15          8           0        2.394222   -1.371177    1.802626
     16          8           0        1.476051    1.971556   -1.000181
     17          1           0       -1.148261   -1.855323   -1.278351
     18          1           0       -2.809611   -2.354229   -1.555631
     19          1           0       -2.770759   -2.685769    0.783726
     20          1           0       -1.457008   -1.532683    1.013010
     21          1           0       -4.376990   -0.801078    0.488041
     22          1           0       -3.529623   -0.657984    2.037035
     23          1           0       -2.483704    1.871856   -0.899888
     24          1           0       -1.998646    0.011098   -2.500941
     25          1           0       -3.607524   -0.140772   -1.802053
     26          1           0       -0.807663    2.792532    0.314788
     27          1           0       -0.611074    1.595284    1.617061
     28          1           0        1.493506    2.882082    0.816146
     29          1           0        3.041171    0.986560    0.895010
     30          1           0        1.869010    1.005368    2.208291
     31          1           0        0.549294   -0.773547    1.048528
     32          1           0        1.622139   -2.154443   -0.664451
     33          1           0        1.263004   -0.539350   -1.269308
     34          1           0        2.191556   -2.311817    1.679635
     35          1           0        0.727476    1.538230   -1.443584
 ---------------------------------------------------------------------

 SCF Done:  E(UB3LYP) =  -786.508944564     A.U. after   31 cycles

 The electronic state is 2-A.
 Alpha  occ. eigenvalues --  -19.05438 -19.04108 -19.03468 -19.03356 -14.21238
 Alpha  occ. eigenvalues --  -10.18564 -10.14500 -10.14487 -10.14014 -10.12557
 Alpha  occ. eigenvalues --  -10.11609 -10.11358 -10.08278 -10.08254 -10.07559
 Alpha  occ. eigenvalues --  -10.07329  -0.99224  -0.94639  -0.93961  -0.92332
 Alpha  occ. eigenvalues --   -0.80952  -0.71927  -0.71098  -0.68849  -0.66794
 Alpha  occ. eigenvalues --   -0.62058  -0.56676  -0.56220  -0.54007  -0.49734
 Alpha  occ. eigenvalues --   -0.46700  -0.44836  -0.44361  -0.42233  -0.42001
 Alpha  occ. eigenvalues --   -0.39876  -0.39165  -0.38134  -0.37243  -0.36793
 Alpha  occ. eigenvalues --   -0.36091  -0.34562  -0.33978  -0.32143  -0.30882
 Alpha  occ. eigenvalues --   -0.30085  -0.29415  -0.28787  -0.28525  -0.27559
 Alpha  occ. eigenvalues --   -0.26977  -0.26108  -0.25445  -0.24631  -0.23550
 Alpha  occ. eigenvalues --   -0.22977  -0.22583  -0.20692  -0.20532  -0.19313
 Alpha  occ. eigenvalues --   -0.19190  -0.18355   0.03595
 Alpha virt. eigenvalues --    0.05932   0.06635   0.06950   0.08028   0.08746
 Alpha virt. eigenvalues --    0.09174   0.09712   0.09878   0.10886   0.11288
 Alpha virt. eigenvalues --    0.11435   0.11876   0.12474   0.12669   0.13051

  Beta  occ. eigenvalues --  -19.05429 -19.04106 -19.03431 -19.03345 -14.21229
  Beta  occ. eigenvalues --  -10.18553 -10.14496 -10.14477 -10.14006 -10.12533
  Beta  occ. eigenvalues --  -10.11575 -10.11355 -10.08275 -10.08229 -10.07531
  Beta  occ. eigenvalues --  -10.07296  -0.99212  -0.94617  -0.93884  -0.92318
  Beta  occ. eigenvalues --   -0.80932  -0.71890  -0.71047  -0.68806  -0.66753
  Beta  occ. eigenvalues --   -0.62017  -0.56620  -0.56164  -0.53954  -0.49707
  Beta  occ. eigenvalues --   -0.46639  -0.44769  -0.44315  -0.42207  -0.41943
  Beta  occ. eigenvalues --   -0.39817  -0.39129  -0.38100  -0.37207  -0.36753
  Beta  occ. eigenvalues --   -0.36056  -0.34531  -0.33938  -0.32110  -0.30852
  Beta  occ. eigenvalues --   -0.30046  -0.29369  -0.28761  -0.28490  -0.27530
  Beta  occ. eigenvalues --   -0.26958  -0.26073  -0.25390  -0.24605  -0.23509
  Beta  occ. eigenvalues --   -0.22958  -0.22546  -0.20656  -0.20514  -0.19285
  Beta  occ. eigenvalues --   -0.19168  -0.18320
  Beta virt. eigenvalues --    0.05941   0.06864   0.07103   0.07661   0.08532
  Beta virt. eigenvalues --    0.09288   0.09553   0.09929   0.10240   0.11142
  Beta virt. eigenvalues --    0.11611   0.11696   0.12107   0.12589   0.12776

 Mulliken charges and spin densities:
               1          2
     1  C    0.361519  -0.667343
     2  C   -0.093872   0.050043
     3  C    0.870394  -1.333837
     4  O   -0.145976   0.026236
     5  C   -0.530604   0.314682
     6  C    0.857878  -1.272968
     7  O    0.005997  -0.001329
     8  C   -0.218770  -0.232990
     9  C   -0.060868  -0.011753
    10  C   -0.926641   0.383943
    11  C    0.121538  -0.194155
    12  C    0.262462   0.104778
    13  C    0.148665  -0.809974
    14  N   -0.303680   0.032359
    15  O   -0.164996  -0.007640
    16  O   -0.166312  -0.007748
    17  H   -0.128321   0.270446
    18  H   -0.516506   0.713795
    19  H   -0.685467   0.885276
    20  H   -0.469913   0.582927
    21  H   -0.022794   0.163103
    22  H   -0.174072   0.355080
    23  H   -0.175212   0.355153
    24  H   -0.158690   0.334894
    25  H   -0.104784   0.269141
    26  H    0.098896   0.078389
    27  H    0.107385   0.079553
    28  H    0.194698   0.000639
    29  H    0.183095   0.038328
    30  H    0.083298   0.086248
    31  H    0.919766  -0.529351
    32  H   -0.487863   0.701240
    33  H    0.185542  -0.123696
    34  H   -0.013645   0.276370
    35  H    0.147852   0.090159
 Sum of Mulliken charges =  -1.00000   1.00000

 Dipole moment (field-independent basis, Debye):
    X=             -0.9843    Y=              6.3175    Z=              1.6227  Tot=              6.5964
 Quadrupole moment (field-independent basis, Debye-Ang):
   XX=           -183.8440   YY=           -144.5847   ZZ=           -135.3586
   XY=             -3.9815   XZ=              5.0317   YZ=              5.6263

 Summary of Natural Population Analysis:

                                       Natural Population
                Natural  -----------------------------------------------
    Atom  No    Charge         Core      Valence    Rydberg      Total
 -----------------------------------------------------------------------
      C    1   -0.19032      0.99963     2.18163    0.00905     3.19032
      C    2   -0.20746      0.99963     2.19891    0.00892     3.20746
      C    3   -0.00833      0.99956     1.99640    0.01237     3.00833
      O    4   -0.30642      0.99988     3.29807    0.00848     4.30642
      C    5    0.22363      0.99956     1.75691    0.01990     2.77637
      C    6   -0.20953      0.99960     2.20124    0.00869     3.20953
      O    7   -0.32499      0.99987     3.31342    0.01170     4.32499
      C    8   -0.02272      0.99956     2.01320    0.00997     3.02272
      C    9    0.05506      0.99956     1.93120    0.01418     2.94494
      C   10   -0.20896      0.99958     2.19886    0.01052     3.20896
      C   11    0.06474      0.99956     1.92195    0.01376     2.93526
      C   12   -0.25981      0.99952     2.25028    0.01000     3.25981
      C   13    0.16792      0.99966     1.81515    0.01727     2.83208
      N   14   -0.18766      0.99979     2.67741    0.01046     3.68766
      O   15   -0.36984      0.99989     3.36389    0.00606     4.36984
      O   16   -0.37368      0.99990     3.36737    0.00641     4.37368
      H   17    0.10089      0.00000     0.39696    0.00215     0.39911
      H   18    0.10199      0.00000     0.39625    0.00176     0.39801
      H   19    0.10737      0.00000     0.39002    0.00261     0.39263
      H   20    0.09800      0.00000     0.39947    0.00253     0.40200
      H   21    0.07988      0.00000     0.41868    0.00144     0.42012
      H   22    0.09271      0.00000     0.40603    0.00126     0.40729
      H   23    0.07889      0.00000     0.41946    0.00165     0.42111
      H   24    0.10834      0.00000     0.39031    0.00136     0.39166
      H   25    0.10368      0.00000     0.39504    0.00128     0.39632
      H   26    0.08571      0.00000     0.41293    0.00136     0.41429
      H   27    0.09390      0.00000     0.40479    0.00130     0.40610
      H   28    0.08700      0.00000     0.41197    0.00103     0.41300
      H   29    0.11053      0.00000     0.38843    0.00104     0.38947
      H   30    0.10616      0.00000     0.39280    0.00104     0.39384
      H   31    0.08973      0.00000     0.40696    0.00331     0.41027
      H   32    0.12119      0.00000     0.37636    0.00245     0.37881
      H   33    0.12587      0.00000     0.37168    0.00245     0.37413
      H   34    0.23309      0.00000     0.26268    0.00422     0.26691
      H   35    0.23346      0.00000     0.26307    0.00347     0.26654
 =======================================================================
   * Total *    0.00000     15.99473    45.78981    0.21546    62.00000

 Normal termination of Gaussian 16 at Thu Dec 10 22:04:26 2020.
