 Gaussian 16, Revision A.03,

 -----------------------------------------------------------
 # opt freq B3LYP/6-31G(d) empiricaldispersion=gd3bj scf=xqc
 -----------------------------------------------------------

 --------------------------------
 CID_154248855_JID_10102_neutraal
 --------------------------------
 Symbolic Z-matrix:
 Charge =  0 Multiplicity = 1

 SCF Done:  E(RB3LYP) =  -900.425455404     A.U. after   17 cycles
 SCF Done:  E(RB3LYP) =  -900.436682011     A.U. after   14 cycles
 SCF Done:  E(RB3LYP) =  -900.439356790     A.U. after   14 cycles
 SCF Done:  E(RB3LYP) =  -900.440229910     A.U. after   14 cycles
 SCF Done:  E(RB3LYP) =  -900.440894824     A.U. after   13 cycles
 SCF Done:  E(RB3LYP) =  -900.440896708     A.U. after   13 cycles
 SCF Done:  E(RB3LYP) =  -900.440657866     A.U. after   13 cycles
 SCF Done:  E(RB3LYP) =  -900.440796845     A.U. after   12 cycles
 SCF Done:  E(RB3LYP) =  -900.441221111     A.U. after    9 cycles
 SCF Done:  E(RB3LYP) =  -900.441299360     A.U. after   12 cycles
 SCF Done:  E(RB3LYP) =  -900.441302890     A.U. after   11 cycles
 SCF Done:  E(RB3LYP) =  -900.441307491     A.U. after    8 cycles
 SCF Done:  E(RB3LYP) =  -900.441307957     A.U. after    9 cycles
 SCF Done:  E(RB3LYP) =  -900.441308025     A.U. after    8 cycles
 Optimization completed.
    -- Stationary point found.
 Normal termination of Gaussian 16 at Sun Dec 13 12:43:03 2020.

 --------------------------------------------------------------------
 #N Geom=AllCheck Guess=TCheck SCRF=Check GenChk RB3LYP/6-31G(d) Freq
 --------------------------------------------------------------------

 Structure from the checkpoint file:  "JID_10102.chk"
 --------------------------------
 CID_154248855_JID_10102_neutraal
 --------------------------------
 Charge =  0 Multiplicity = 1

 SCF Done:  E(RB3LYP) =  -900.441308025     A.U. after    1 cycles

  Exact polarizability: 345.413 -21.625 206.046   0.206   7.108  96.817
 Approx polarizability: 652.104 -54.448 346.935  -1.962  24.337 149.853

                      1                      2                      3
                      A                      A                      A
 Frequencies --     23.6657                34.5261                58.7742
 Red. masses --      6.3622                 4.3083                 5.7962
 Frc consts  --      0.0021                 0.0030                 0.0118
 IR Inten    --      0.1767                 1.3231                 0.3037

                      4                      5                      6
                      A                      A                      A
 Frequencies --     68.1457                84.6513               138.0534
 Red. masses --      3.9758                 4.0157                 6.0482
 Frc consts  --      0.0109                 0.0170                 0.0679
 IR Inten    --      0.2671                 2.3515                 1.2195

                      7                      8                      9
                      A                      A                      A
 Frequencies --    140.0642               153.5122               160.9052
 Red. masses --      3.4858                 1.3836                 5.4553
 Frc consts  --      0.0403                 0.0192                 0.0832
 IR Inten    --      0.1102                 0.5140                 0.4675

                     10                     11                     12
                      A                      A                      A
 Frequencies --    185.5468               218.5155               223.7127
 Red. masses --      2.5744                 2.7466                 3.6038
 Frc consts  --      0.0522                 0.0773                 0.1063
 IR Inten    --      0.2794                 0.7217                 0.3072

                     13                     14                     15
                      A                      A                      A
 Frequencies --    232.2269               267.0168               277.0902
 Red. masses --      1.5583                 1.1015                 3.6788
 Frc consts  --      0.0495                 0.0463                 0.1664
 IR Inten    --      0.0521                 0.1710                 0.7912

                     16                     17                     18
                      A                      A                      A
 Frequencies --    286.8545               298.4602               342.0501
 Red. masses --      2.7186                 3.0909                 3.0428
 Frc consts  --      0.1318                 0.1622                 0.2098
 IR Inten    --      0.8754                 0.4645                 3.2204

                     19                     20                     21
                      A                      A                      A
 Frequencies --    347.4712               356.2736               361.0638
 Red. masses --      1.2158                 4.4116                 2.3809
 Frc consts  --      0.0865                 0.3299                 0.1829
 IR Inten    --      0.2684                12.4975                 0.7785

                     22                     23                     24
                      A                      A                      A
 Frequencies --    397.6988               412.2614               419.1046
 Red. masses --      2.5278                 3.8514                 4.9499
 Frc consts  --      0.2356                 0.3857                 0.5123
 IR Inten    --      0.2694                12.7660                31.8946

                     25                     26                     27
                      A                      A                      A
 Frequencies --    467.9076               477.8894               522.6859
 Red. masses --      4.8502                 4.5203                 3.0227
 Frc consts  --      0.6257                 0.6082                 0.4865
 IR Inten    --      2.1193                10.4049                 2.7019

                     28                     29                     30
                      A                      A                      A
 Frequencies --    527.1736               539.5902               569.7711
 Red. masses --      1.1342                 3.2177                 4.9712
 Frc consts  --      0.1857                 0.5520                 0.9509
 IR Inten    --    118.2719                 3.5212                 0.5075

                     31                     32                     33
                      A                      A                      A
 Frequencies --    596.6496               632.9285               639.9791
 Red. masses --      4.9463                 6.3722                 3.6038
 Frc consts  --      1.0375                 1.5040                 0.8696
 IR Inten    --      2.9838                 1.2409                 2.8147

                     34                     35                     36
                      A                      A                      A
 Frequencies --    654.0459               691.7086               708.5029
 Red. masses --      7.1599                 4.6705                 4.0788
 Frc consts  --      1.8046                 1.3166                 1.2063
 IR Inten    --      9.5093                11.4028                 2.7962

                     37                     38                     39
                      A                      A                      A
 Frequencies --    778.1688               796.1269               803.5111
 Red. masses --      6.6268                 3.9806                 5.5508
 Frc consts  --      2.3643                 1.4865                 2.1115
 IR Inten    --      9.8684                 1.3083                 3.8448

                     40                     41                     42
                      A                      A                      A
 Frequencies --    818.6135               856.9376               859.0608
 Red. masses --      4.8649                 2.0078                 2.9338
 Frc consts  --      1.9208                 0.8687                 1.2756
 IR Inten    --      0.7657                19.0232                14.1724

                     43                     44                     45
                      A                      A                      A
 Frequencies --    887.8674               923.4947               925.0613
 Red. masses --      1.4665                 1.8297                 2.3359
 Frc consts  --      0.6811                 0.9194                 1.1777
 IR Inten    --      0.4854                13.7982                29.1544

                     46                     47                     48
                      A                      A                      A
 Frequencies --    945.8078               950.6210               955.1966
 Red. masses --      1.8105                 1.8667                 1.6586
 Frc consts  --      0.9542                 0.9939                 0.8916
 IR Inten    --      2.4210                 6.8735                35.4416

                     49                     50                     51
                      A                      A                      A
 Frequencies --    957.3191               975.5117               977.8009
 Red. masses --      1.9650                 3.1552                 1.2015
 Frc consts  --      1.0610                 1.7691                 0.6768
 IR Inten    --     12.0520                 5.1725                 0.3189

                     52                     53                     54
                      A                      A                      A
 Frequencies --   1041.3948              1064.0974              1065.0910
 Red. masses --      1.7481                 1.4111                 1.3933
 Frc consts  --      1.1170                 0.9414                 0.9312
 IR Inten    --     54.8474                 2.6047                 1.0424

                     55                     56                     57
                      A                      A                      A
 Frequencies --   1074.0869              1107.1975              1162.6305
 Red. masses --      1.5057                 2.7929                 2.5590
 Frc consts  --      1.0234                 2.0172                 2.0380
 IR Inten    --      3.0807                31.2595                29.5838

                     58                     59                     60
                      A                      A                      A
 Frequencies --   1214.9920              1237.5981              1238.3656
 Red. masses --      2.7696                 2.4142                 1.6765
 Frc consts  --      2.4089                 2.1786                 1.5148
 IR Inten    --     25.6708                 2.9814                 7.7781

                     61                     62                     63
                      A                      A                      A
 Frequencies --   1246.2504              1259.7707              1294.0885
 Red. masses --      2.5097                 2.3935                 2.5384
 Frc consts  --      2.2966                 2.2380                 2.5046
 IR Inten    --     12.1149                 3.7519                75.3568

                     64                     65                     66
                      A                      A                      A
 Frequencies --   1321.8892              1350.3322              1359.2323
 Red. masses --      2.7979                 2.2442                 4.1681
 Frc consts  --      2.8805                 2.4110                 4.5371
 IR Inten    --    167.1151               118.8882               239.4058

                     67                     68                     69
                      A                      A                      A
 Frequencies --   1392.2227              1416.5303              1419.4255
 Red. masses --      1.8147                 1.2061                 1.7513
 Frc consts  --      2.0724                 1.4259                 2.0789
 IR Inten    --      7.7689                 7.0454                 8.5730

                     70                     71                     72
                      A                      A                      A
 Frequencies --   1424.2631              1441.5087              1452.3628
 Red. masses --      1.5132                 1.2995                 1.2347
 Frc consts  --      1.8085                 1.5909                 1.5344
 IR Inten    --     13.2483                 5.2758                 6.6465

                     73                     74                     75
                      A                      A                      A
 Frequencies --   1460.9127              1498.2480              1508.6978
 Red. masses --      2.3632                 1.0449                 1.0471
 Frc consts  --      2.9716                 1.3819                 1.4043
 IR Inten    --      3.3331                 6.8186                 0.2973

                     76                     77                     78
                      A                      A                      A
 Frequencies --   1511.5803              1525.6370              1529.0022
 Red. masses --      1.0798                 1.0530                 1.0463
 Frc consts  --      1.4537                 1.4440                 1.4411
 IR Inten    --      4.3916                 2.2201                 0.8308

                     79                     80                     81
                      A                      A                      A
 Frequencies --   1531.1287              1542.5677              1560.5505
 Red. masses --      1.0572                 1.0500                 1.0603
 Frc consts  --      1.4602                 1.4721                 1.5214
 IR Inten    --     24.4822                 4.8254                14.2692

                     82                     83                     84
                      A                      A                      A
 Frequencies --   1619.4867              1637.6953              1648.7660
 Red. masses --      6.2007                 7.7188                 6.1375
 Frc consts  --      9.5818                12.1973                 9.8301
 IR Inten    --     55.4334                70.1640                11.7958

                     85                     86                     87
                      A                      A                      A
 Frequencies --   1702.4841              1712.4965              1826.6641
 Red. masses --     11.0810                 6.6536                 9.9288
 Frc consts  --     18.9232                11.4966                19.5193
 IR Inten    --    364.5143                14.0337               628.7310

                     88                     89                     90
                      A                      A                      A
 Frequencies --   1862.3202              3042.4350              3049.4648
 Red. masses --     12.6481                 1.0364                 1.0389
 Frc consts  --     25.8455                 5.6521                 5.6920
 IR Inten    --    132.8049                13.3140                36.6149

                     91                     92                     93
                      A                      A                      A
 Frequencies --   3054.2898              3057.8940              3106.6017
 Red. masses --      1.0399                 1.0355                 1.1026
 Frc consts  --      5.7158                 5.7047                 6.2693
 IR Inten    --     30.3486                18.6013                 2.2745

                     94                     95                     96
                      A                      A                      A
 Frequencies --   3110.2307              3110.5008              3113.5591
 Red. masses --      1.1021                 1.1023                 1.0996
 Frc consts  --      6.2815                 6.2835                 6.2805
 IR Inten    --     27.2109                43.3673                 9.8676

                     97                     98                     99
                      A                      A                      A
 Frequencies --   3122.5683              3141.1905              3172.1558
 Red. masses --      1.1004                 1.1041                 1.0980
 Frc consts  --      6.3217                 6.4186                 6.5096
 IR Inten    --     61.2103                13.2149                 1.8145

                    100                    101                    102
                      A                      A                      A
 Frequencies --   3175.7061              3177.2254              3183.1025
 Red. masses --      1.0974                 1.0906                 1.0875
 Frc consts  --      6.5209                 6.4863                 6.4920
 IR Inten    --      7.0977                 9.4200                12.1989

                    103                    104                    105
                      A                      A                      A
 Frequencies --   3268.1838              3285.4959              3651.1966
 Red. masses --      1.0903                 1.0931                 1.0801
 Frc consts  --      6.8612                 6.9518                 8.4835
 IR Inten    --      1.5509                 2.6877               131.3137

 - Thermochemistry -
 -------------------
 Temperature   298.150 Kelvin.  Pressure   1.00000 Atm.
 Atom     1 has atomic number  6 and mass  12.00000

 Molecular mass:   271.12084 amu.
 Principal axes and moments of inertia in atomic units:
                           1         2         3
     Eigenvalues --  3323.275639501.47477**********
           X            0.99994   0.01130  -0.00067
           Y           -0.01131   0.99991  -0.00670
           Z            0.00059   0.00671   0.99998
 This molecule is an asymmetric top.
 Rotational symmetry number  1.
 Warning -- assumption of classical behavior for rotation
           may cause significant error
 Rotational temperatures (Kelvin)      0.02606     0.00912     0.00704
 Rotational constants (GHZ):           0.54306     0.18994     0.14660
 Zero-point vibrational energy     789600.8 (Joules/Mol)
                                  188.71912 (Kcal/Mol)
 Warning -- explicit consideration of  31 degrees of freedom as
           vibrations may cause significant error
 Vibrational temperatures:     34.05    49.68    84.56    98.05   121.79
          (Kelvin)            198.63   201.52   220.87   231.51   266.96
                              314.40   321.87   334.12   384.18   398.67
                              412.72   429.42   492.13   499.93   512.60
                              519.49   572.20   593.15   603.00   673.21
                              687.58   752.03   758.49   776.35   819.77
                              858.45   910.64   920.79   941.03   995.21
                             1019.38  1119.61  1145.45  1156.07  1177.80
                             1232.94  1236.00  1277.44  1328.70  1330.96
                             1360.81  1367.73  1374.31  1377.37  1403.54
                             1406.84  1498.33  1531.00  1532.43  1545.37
                             1593.01  1672.77  1748.10  1780.63  1781.73
                             1793.08  1812.53  1861.90  1901.90  1942.83
                             1955.63  2003.10  2038.07  2042.24  2049.20
                             2074.01  2089.63  2101.93  2155.64  2170.68
                             2174.83  2195.05  2199.89  2202.95  2219.41
                             2245.28  2330.08  2356.28  2372.21  2449.49
                             2463.90  2628.16  2679.46  4377.39  4387.50
                             4394.44  4399.63  4469.71  4474.93  4475.32
                             4479.72  4492.68  4519.47  4564.02  4569.13
                             4571.32  4579.77  4702.19  4727.10  5253.26

 Zero-point correction=                           0.300743 (Hartree/Particle)
 Thermal correction to Energy=                    0.319862
 Thermal correction to Enthalpy=                  0.320807
 Thermal correction to Gibbs Free Energy=         0.252979
 Sum of electronic and zero-point Energies=           -900.140565
 Sum of electronic and thermal Energies=              -900.121446
 Sum of electronic and thermal Enthalpies=            -900.120501
 Sum of electronic and thermal Free Energies=         -900.188329

                     E (Thermal)             CV                S
                      KCal/Mol        Cal/Mol-Kelvin    Cal/Mol-Kelvin
 Total                  200.717             73.372            142.755
 Electronic               0.000              0.000              0.000
 Translational            0.889              2.981             42.691
 Rotational               0.889              2.981             34.318
 Vibrational            198.939             67.410             65.745
 Vibration     1          0.593              1.985              6.300
 Vibration     2          0.594              1.983              5.551
 Vibration     3          0.596              1.974              4.498
 Vibration     4          0.598              1.969              4.206
 Vibration     5          0.601              1.960              3.780
 Vibration     6          0.614              1.915              2.831
 Vibration     7          0.615              1.913              2.803
 Vibration     8          0.619              1.899              2.628
 Vibration     9          0.622              1.890              2.539
 Vibration    10          0.632              1.860              2.272
 Vibration    11          0.646              1.813              1.971
 Vibration    12          0.649              1.805              1.929
 Vibration    13          0.653              1.792              1.862
 Vibration    14          0.672              1.734              1.615
 Vibration    15          0.678              1.716              1.552
 Vibration    16          0.684              1.698              1.492
 Vibration    17          0.692              1.677              1.426
 Vibration    18          0.721              1.591              1.203
 Vibration    19          0.725              1.580              1.178
 Vibration    20          0.732              1.562              1.138
 Vibration    21          0.735              1.552              1.118
 Vibration    22          0.764              1.475              0.971
 Vibration    23          0.776              1.444              0.919
 Vibration    24          0.782              1.429              0.895
 Vibration    25          0.825              1.321              0.743
 Vibration    26          0.834              1.299              0.716
 Vibration    27          0.878              1.200              0.604
 Vibration    28          0.882              1.190              0.594
 Vibration    29          0.895              1.163              0.566
 Vibration    30          0.926              1.097              0.505
 Vibration    31          0.954              1.039              0.455

                           ! Non-Optimized Parameters !
 Normal termination of Gaussian 16 at Sun Dec 13 13:03:36 2020.

 ----------------------------------------------------------------------
 # B3LYP/6-311++G(d,p) empiricaldispersion=gd3bj scf=xqc pop=npa geom=c
 heck
 ----------------------------------------------------------------------

 ----------------------------------------
 CID_154248855_JID_10102_Energie_neutraal
 ----------------------------------------
 Structure from the checkpoint file:  "JID_10102.chk"
 Charge =  0 Multiplicity = 1

 SCF Done:  E(RB3LYP) =  -900.689593403     A.U. after   19 cycles
 Normal termination of Gaussian 16 at Sun Dec 13 13:15:21 2020.

 ----------------------------------------------------------------------
 # B3LYP/6-311++G(d,p) empiricaldispersion=gd3bj scf=xqc pop=npa geom=c
 heck
 ----------------------------------------------------------------------

 --------------------------------------
 CID_154248855_JID_10102_Energie_kation
 --------------------------------------
 Structure from the checkpoint file:  "JID_10102.chk"
 Charge =  1 Multiplicity = 2

 SCF Done:  E(UB3LYP) =  -900.382115514     A.U. after   29 cycles
 Normal termination of Gaussian 16 at Sun Dec 13 13:41:00 2020.
 Gaussian 16:  ES64L-G16RevA.03 25-Dec-2016

 ----------------------------------------------------------------------
 # B3LYP/6-311++G(d,p) empiricaldispersion=gd3bj scf=xqc pop=npa geom=c
 heck
 ----------------------------------------------------------------------

 -------------------------------------
 CID_154248855_JID_10102_Energie_anion
 -------------------------------------
 Structure from the checkpoint file:  "JID_10102.chk"
 Charge = -1 Multiplicity = 2

                         Standard orientation:
 ---------------------------------------------------------------------
 Center     Atomic      Atomic             Coordinates (Angstroms)
 Number     Number       Type             X           Y           Z
 ---------------------------------------------------------------------
      1          6           0       -3.161293    3.268105   -0.217807
      2          6           0       -2.199479    2.122250   -0.123042
      3          6           0       -0.858099    2.276538   -0.071673
      4          6           0        0.042563    1.142817   -0.014065
      5          6           0        1.394176    1.378438   -0.029702
      6          6           0        2.485526    0.446251   -0.063562
      7          6           0        2.624884   -0.869633   -0.364389
      8          6           0        4.054329   -1.263347   -0.239828
      9          8           0        4.560871   -2.349573   -0.423834
     10          7           0        4.734661   -0.094776    0.140483
     11          6           0        3.875792    0.987039    0.244965
     12          8           0        4.170634    2.131027    0.519254
     13          6           0       -0.541574   -0.180776    0.074502
     14          6           0       -1.877111   -0.412711    0.037343
     15          6           0       -2.792884    0.760270   -0.096074
     16          8           0       -4.018455    0.639450   -0.165445
     17          6           0       -2.474478   -1.815919    0.143749
     18          6           0       -3.283207   -2.129862   -1.137271
     19          6           0       -1.384173   -2.890503    0.293354
     20          6           0       -3.399835   -1.895128    1.380481
     21          1           0       -3.770570    3.187075   -1.124816
     22          1           0       -2.635008    4.226608   -0.226073
     23          1           0       -3.864033    3.253045    0.622662
     24          1           0       -0.417060    3.270443   -0.102930
     25          1           0        1.721338    2.415432    0.006267
     26          1           0        1.883329   -1.583758   -0.691587
     27          1           0        5.733796   -0.043439    0.281877
     28          1           0        0.138578   -1.007891    0.211580
     29          1           0       -2.637927   -2.087242   -2.022518
     30          1           0       -3.697334   -3.142560   -1.070003
     31          1           0       -4.104186   -1.424264   -1.266899
     32          1           0       -0.784370   -2.746111    1.199316
     33          1           0       -1.856540   -3.875390    0.365091
     34          1           0       -0.709724   -2.912819   -0.570933
     35          1           0       -2.838639   -1.684533    2.298360
     36          1           0       -4.224037   -1.185416    1.302066
     37          1           0       -3.815473   -2.905959    1.463478
 ---------------------------------------------------------------------

 SCF Done:  E(UB3LYP) =  -900.781053301     A.U. after   24 cycles

 The electronic state is 2-A.
 Alpha  occ. eigenvalues --  -18.99715 -18.98967 -18.96408 -14.24088 -10.17137
 Alpha  occ. eigenvalues --  -10.16380 -10.11736 -10.08654 -10.07222 -10.06604
 Alpha  occ. eigenvalues --  -10.06486 -10.06268 -10.06213 -10.06201 -10.06084
 Alpha  occ. eigenvalues --  -10.06053 -10.05955 -10.05473 -10.05342 -10.05280
 Alpha  occ. eigenvalues --   -0.95177  -0.93368  -0.90223  -0.83705  -0.74476
 Alpha  occ. eigenvalues --   -0.71882  -0.69722  -0.66073  -0.63439  -0.59011
 Alpha  occ. eigenvalues --   -0.58507  -0.58251  -0.55996  -0.52708  -0.50145
 Alpha  occ. eigenvalues --   -0.49033  -0.47646  -0.43676  -0.42427  -0.38939
 Alpha  occ. eigenvalues --   -0.37848  -0.36358  -0.35312  -0.34958  -0.34027
 Alpha  occ. eigenvalues --   -0.33720  -0.33572  -0.32983  -0.32543  -0.32096
 Alpha  occ. eigenvalues --   -0.30188  -0.29901  -0.29592  -0.28777  -0.28404
 Alpha  occ. eigenvalues --   -0.28081  -0.27175  -0.26988  -0.26720  -0.25926
 Alpha  occ. eigenvalues --   -0.24283  -0.23759  -0.23312  -0.23010  -0.21839
 Alpha  occ. eigenvalues --   -0.19029  -0.18050  -0.17707  -0.14807  -0.14474
 Alpha  occ. eigenvalues --   -0.12163  -0.11371  -0.03749
 Alpha virt. eigenvalues --    0.05155   0.07405   0.08115   0.08743   0.09477
 Alpha virt. eigenvalues --    0.09947   0.10398   0.10525   0.10584   0.11831
 Alpha virt. eigenvalues --    0.12278   0.12370   0.12728   0.13212   0.13329

  Beta  occ. eigenvalues --  -18.99548 -18.98678 -18.96079 -14.24125 -10.17104
  Beta  occ. eigenvalues --  -10.16341 -10.11685 -10.08659 -10.07168 -10.06490
  Beta  occ. eigenvalues --  -10.06333 -10.06249 -10.06213 -10.06112 -10.06069
  Beta  occ. eigenvalues --  -10.05999 -10.05933 -10.05336 -10.05274 -10.05074
  Beta  occ. eigenvalues --   -0.94905  -0.92954  -0.89661  -0.83541  -0.74229
  Beta  occ. eigenvalues --   -0.71755  -0.69330  -0.65865  -0.63145  -0.58963
  Beta  occ. eigenvalues --   -0.58265  -0.58233  -0.55478  -0.52402  -0.49992
  Beta  occ. eigenvalues --   -0.48821  -0.47389  -0.43564  -0.42229  -0.38782
  Beta  occ. eigenvalues --   -0.37672  -0.36230  -0.35154  -0.34361  -0.33973
  Beta  occ. eigenvalues --   -0.33535  -0.33427  -0.32805  -0.32375  -0.31759
  Beta  occ. eigenvalues --   -0.30114  -0.29658  -0.29476  -0.28606  -0.28143
  Beta  occ. eigenvalues --   -0.27204  -0.27065  -0.26815  -0.26592  -0.25499
  Beta  occ. eigenvalues --   -0.24165  -0.23240  -0.22952  -0.22540  -0.21758
  Beta  occ. eigenvalues --   -0.17605  -0.17553  -0.17110  -0.14539  -0.14150
  Beta  occ. eigenvalues --   -0.11853  -0.09527
  Beta virt. eigenvalues --    0.01570   0.06741   0.07407   0.08117   0.08753
  Beta virt. eigenvalues --    0.09552   0.09949   0.10405   0.10580   0.10950
  Beta virt. eigenvalues --    0.11870   0.12377   0.12450   0.12759   0.13248

 Mulliken charges and spin densities:
               1          2
     1  C   -0.196490   0.002249
     2  C    0.564096   0.055759
     3  C   -0.696826  -0.018712
     4  C    0.158186   0.072562
     5  C    0.110998   0.148169
     6  C    0.098077   0.070726
     7  C    0.279806   0.325095
     8  C   -0.326437   0.036934
     9  O   -0.402402   0.102659
    10  N   -0.268133  -0.025506
    11  C    0.335883   0.016129
    12  O   -0.376121   0.058820
    13  C   -0.655971  -0.010039
    14  C    0.462051   0.043246
    15  C   -0.903751   0.035531
    16  O   -0.307949   0.123033
    17  C    0.637366  -0.018916
    18  C   -0.704335   0.006843
    19  C   -0.517864   0.000527
    20  C   -0.712744   0.006672
    21  H    0.164044   0.002569
    22  H    0.121742   0.000120
    23  H    0.160721   0.002783
    24  H    0.067971  -0.002766
    25  H    0.210515  -0.006004
    26  H    0.163519  -0.019149
    27  H    0.323608  -0.000421
    28  H   -0.100423  -0.010047
    29  H    0.124877   0.000664
    30  H    0.121898   0.000374
    31  H    0.203315  -0.000802
    32  H    0.148121   0.000050
    33  H    0.150739   0.000245
    34  H    0.120028   0.000243
    35  H    0.124095   0.000475
    36  H    0.197268  -0.000592
    37  H    0.120520   0.000479
 Sum of Mulliken charges =  -1.00000   1.00000

 Dipole moment (field-independent basis, Debye):
    X=             -2.2912    Y=             -0.2560    Z=              0.3379  Tot=              2.3301
 Quadrupole moment (field-independent basis, Debye-Ang):
   XX=           -195.9451   YY=           -147.2065   ZZ=           -127.1416
   XY=              8.2780   XZ=              0.1124   YZ=             -3.9468

 Summary of Natural Population Analysis:

                                       Natural Population
                Natural  -----------------------------------------------
    Atom  No    Charge         Core      Valence    Rydberg      Total
 -----------------------------------------------------------------------
      C    1   -0.29416      0.99964     2.28811    0.00641     3.29416
      C    2   -0.03902      0.99951     2.02747    0.01203     3.03902
      C    3   -0.05405      0.99949     2.04910    0.00546     3.05405
      C    4   -0.03283      0.99957     2.02043    0.01283     3.03283
      C    5   -0.03022      0.99943     2.01902    0.01177     3.03022
      C    6   -0.06123      0.99949     2.05268    0.00906     3.06123
      C    7   -0.03144      0.99946     2.02446    0.00752     3.03144
      C    8    0.33140      0.99969     1.64617    0.02274     2.66860
      O    9   -0.26752      0.99987     3.26116    0.00648     4.26752
      N   10   -0.34641      0.99964     2.83661    0.01016     3.84641
      C   11    0.34748      0.99966     1.63050    0.02235     2.65252
      O   12   -0.28728      0.99987     3.28085    0.00656     4.28728
      C   13   -0.06907      0.99947     2.06421    0.00538     3.06907
      C   14   -0.02148      0.99946     2.00581    0.01621     3.02148
      C   15    0.24374      0.99953     1.73785    0.01887     2.75626
      O   16   -0.27815      0.99989     3.27238    0.00589     4.27815
      C   17   -0.05348      0.99957     2.04328    0.01063     3.05348
      C   18   -0.28276      0.99963     2.27758    0.00555     3.28276
      C   19   -0.28592      0.99965     2.28040    0.00588     3.28592
      C   20   -0.28285      0.99963     2.27769    0.00553     3.28285
      H   21    0.10522      0.00000     0.39365    0.00113     0.39478
      H   22    0.09283      0.00000     0.40600    0.00117     0.40717
      H   23    0.10502      0.00000     0.39384    0.00115     0.39498
      H   24    0.09298      0.00000     0.40626    0.00076     0.40702
      H   25    0.10405      0.00000     0.39511    0.00084     0.39595
      H   26    0.09878      0.00000     0.39936    0.00185     0.40122
      H   27    0.19846      0.00000     0.29988    0.00166     0.30154
      H   28    0.09859      0.00000     0.39954    0.00187     0.40141
      H   29    0.09650      0.00000     0.40278    0.00072     0.40350
      H   30    0.08961      0.00000     0.40956    0.00084     0.41039
      H   31    0.11538      0.00000     0.38370    0.00092     0.38462
      H   32    0.10062      0.00000     0.39854    0.00084     0.39938
      H   33    0.09620      0.00000     0.40299    0.00081     0.40380
      H   34    0.10018      0.00000     0.39897    0.00084     0.39982
      H   35    0.09637      0.00000     0.40291    0.00072     0.40363
      H   36    0.11481      0.00000     0.38428    0.00091     0.38519
      H   37    0.08979      0.00000     0.40937    0.00084     0.41021
 =======================================================================
   * Total *    0.00012     19.99217    51.78252    0.22518    71.99988

 Normal termination of Gaussian 16 at Sun Dec 13 14:02:42 2020.
