 Gaussian 16, Revision A.03,

 -----------------------------------------------------------
 # opt freq B3LYP/6-31G(d) empiricaldispersion=gd3bj scf=xqc
 -----------------------------------------------------------

 -------------------------------
 CID_130553268_JID_2487_neutraal
 -------------------------------
 Symbolic Z-matrix:
 Charge =  0 Multiplicity = 1

 SCF Done:  E(RB3LYP) =  -571.984278846     A.U. after   14 cycles
 SCF Done:  E(RB3LYP) =  -571.992313453     A.U. after   12 cycles
 SCF Done:  E(RB3LYP) =  -571.992926535     A.U. after   11 cycles
 SCF Done:  E(RB3LYP) =  -571.993114767     A.U. after   11 cycles
 SCF Done:  E(RB3LYP) =  -571.993281169     A.U. after   11 cycles
 SCF Done:  E(RB3LYP) =  -571.993433955     A.U. after   11 cycles
 SCF Done:  E(RB3LYP) =  -571.993536748     A.U. after   12 cycles
 SCF Done:  E(RB3LYP) =  -571.993746533     A.U. after   11 cycles
 SCF Done:  E(RB3LYP) =  -571.993893865     A.U. after   11 cycles
 SCF Done:  E(RB3LYP) =  -571.993943968     A.U. after   12 cycles
 SCF Done:  E(RB3LYP) =  -571.993967353     A.U. after   11 cycles
 SCF Done:  E(RB3LYP) =  -571.993970245     A.U. after    9 cycles
 SCF Done:  E(RB3LYP) =  -571.993970441     A.U. after    8 cycles
 SCF Done:  E(RB3LYP) =  -571.993970536     A.U. after    7 cycles
 Optimization completed.
    -- Stationary point found.
 Normal termination of Gaussian 16 at Wed Dec  9 17:26:41 2020.

 --------------------------------------------------------------------
 #N Geom=AllCheck Guess=TCheck SCRF=Check GenChk RB3LYP/6-31G(d) Freq
 --------------------------------------------------------------------

 Structure from the checkpoint file:  "JID_2487.chk"
 -------------------------------
 CID_130553268_JID_2487_neutraal
 -------------------------------
 Charge =  0 Multiplicity = 1

 SCF Done:  E(RB3LYP) =  -571.993970536     A.U. after    1 cycles

  Exact polarizability: 125.136  -0.641  95.332  -0.284   2.791  72.146
 Approx polarizability: 167.674  -4.318 148.055  -0.511  11.414 110.933

                      1                      2                      3
                      A                      A                      A
 Frequencies --     35.5452                71.2498                93.8404
 Red. masses --      4.5557                 4.3612                 3.6603
 Frc consts  --      0.0034                 0.0130                 0.0190
 IR Inten    --      0.5853                 2.2993                 0.8878

                      4                      5                      6
                      A                      A                      A
 Frequencies --    124.1958               141.8921               180.3113
 Red. masses --      2.8665                 2.7259                 3.9515
 Frc consts  --      0.0261                 0.0323                 0.0757
 IR Inten    --      0.0934                 0.4794                 0.7822

                      7                      8                      9
                      A                      A                      A
 Frequencies --    225.7833               240.0439               277.9920
 Red. masses --      1.2472                 2.8551                 2.5025
 Frc consts  --      0.0375                 0.0969                 0.1139
 IR Inten    --      0.1646                 0.7466                 2.6561

                     10                     11                     12
                      A                      A                      A
 Frequencies --    323.2741               355.6771               398.9120
 Red. masses --      2.0677                 3.1734                 1.2822
 Frc consts  --      0.1273                 0.2365                 0.1202
 IR Inten    --      5.8163                 3.7876               158.3217

                     13                     14                     15
                      A                      A                      A
 Frequencies --    452.5614               476.6790               485.9793
 Red. masses --      5.2332                 4.4958                 4.0007
 Frc consts  --      0.6315                 0.6019                 0.5567
 IR Inten    --     16.2169                 2.4949                 2.6159

                     16                     17                     18
                      A                      A                      A
 Frequencies --    552.0687               670.4194               747.2562
 Red. masses --      3.2465                 5.7715                 5.2771
 Frc consts  --      0.5830                 1.5284                 1.7361
 IR Inten    --      1.9320                10.4714                26.7892

                     19                     20                     21
                      A                      A                      A
 Frequencies --    781.4753               789.6711               801.9197
 Red. masses --      2.0620                 1.7961                 1.2333
 Frc consts  --      0.7419                 0.6599                 0.4673
 IR Inten    --     17.2965                 2.5982                 1.3803

                     22                     23                     24
                      A                      A                      A
 Frequencies --    860.4850               883.8453               895.2186
 Red. masses --      1.8603                 4.6535                12.9016
 Frc consts  --      0.8116                 2.1418                 6.0919
 IR Inten    --      2.7232                 1.3118                 8.5775

                     25                     26                     27
                      A                      A                      A
 Frequencies --    953.7866               974.8530              1004.7036
 Red. masses --      2.8074                 1.2027                 2.8480
 Frc consts  --      1.5047                 0.6734                 1.6938
 IR Inten    --     14.9996                 0.0824                12.0218

                     28                     29                     30
                      A                      A                      A
 Frequencies --   1026.7713              1031.3596              1053.2820
 Red. masses --      1.8368                 2.8368                 5.8052
 Frc consts  --      1.1410                 1.7779                 3.7945
 IR Inten    --      4.9003                14.7583                12.8179

                     31                     32                     33
                      A                      A                      A
 Frequencies --   1070.8979              1088.7151              1095.8134
 Red. masses --      1.2298                 4.6133                 1.5016
 Frc consts  --      0.8310                 3.2218                 1.0624
 IR Inten    --      3.1201                91.0795                 6.5388

                     34                     35                     36
                      A                      A                      A
 Frequencies --   1100.8421              1129.3993              1211.5829
 Red. masses --      1.8464                 1.8011                 1.4300
 Frc consts  --      1.3184                 1.3536                 1.2367
 IR Inten    --     15.9016                 1.3184                 3.5085

                     37                     38                     39
                      A                      A                      A
 Frequencies --   1215.1294              1226.9832              1289.2160
 Red. masses --      2.6609                 1.1957                 1.8283
 Frc consts  --      2.3149                 1.0606                 1.7904
 IR Inten    --     18.3562                30.1954                 2.1185

                     40                     41                     42
                      A                      A                      A
 Frequencies --   1337.8297              1368.1384              1377.5172
 Red. masses --      1.9151                 2.4689                 1.3097
 Frc consts  --      2.0195                 2.7228                 1.4642
 IR Inten    --      7.3768                59.8149                 6.2272

                     43                     44                     45
                      A                      A                      A
 Frequencies --   1391.6834              1406.1824              1439.8918
 Red. masses --      1.7966                 3.0909                 1.2478
 Frc consts  --      2.0502                 3.6010                 1.5242
 IR Inten    --     25.9148                48.9540                 7.0401

                     46                     47                     48
                      A                      A                      A
 Frequencies --   1454.1329              1490.6293              1509.9974
 Red. masses --      1.5426                 1.0868                 1.0970
 Frc consts  --      1.9218                 1.4227                 1.4736
 IR Inten    --     82.9832                 4.2462                 1.8969

                     49                     50                     51
                      A                      A                      A
 Frequencies --   1526.3636              1527.9989              1528.4591
 Red. masses --      1.1553                 1.1107                 1.1258
 Frc consts  --      1.5859                 1.5279                 1.5495
 IR Inten    --      3.0364                 1.5958                 3.4085

                     52                     53                     54
                      A                      A                      A
 Frequencies --   1542.3091              1582.0051              1627.1893
 Red. masses --      1.0561                 8.2035                 9.4221
 Frc consts  --      1.4802                12.0966                14.6985
 IR Inten    --      3.9589                46.7303               143.9446

                     55                     56                     57
                      A                      A                      A
 Frequencies --   2993.9959              3051.9156              3056.2995
 Red. masses --      1.0727                 1.0619                 1.0372
 Frc consts  --      5.6656                 5.8275                 5.7083
 IR Inten    --     50.3842                24.4767                24.2327

                     58                     59                     60
                      A                      A                      A
 Frequencies --   3091.1301              3120.2635              3134.2919
 Red. masses --      1.1014                 1.1022                 1.0911
 Frc consts  --      6.2005                 6.3225                 6.3150
 IR Inten    --     10.9165                36.9520                14.4065

                     61                     62                     63
                      A                      A                      A
 Frequencies --   3142.3216              3157.5587              3159.8751
 Red. masses --      1.1016                 1.0508                 1.0589
 Frc consts  --      6.4086                 6.1727                 6.2293
 IR Inten    --     23.6101                11.0487                 7.5987

                     64                     65                     66
                      A                      A                      A
 Frequencies --   3239.8148              3252.4608              3715.3803
 Red. masses --      1.1199                 1.1169                 1.0657
 Frc consts  --      6.9260                 6.9614                 8.6674
 IR Inten    --      0.1045                 7.1656                28.6899

 - Thermochemistry -
 -------------------
 Temperature   298.150 Kelvin.  Pressure   1.00000 Atm.
 Atom     1 has atomic number  6 and mass  12.00000

 Molecular mass:   168.08988 amu.
 Principal axes and moments of inertia in atomic units:
                           1         2         3
     Eigenvalues --  1106.387282865.403953676.03458
           X            0.99991   0.01227  -0.00539
           Y           -0.01233   0.99985  -0.01193
           Z            0.00524   0.01199   0.99991
 This molecule is an asymmetric top.
 Rotational symmetry number  1.
 Warning -- assumption of classical behavior for rotation
           may cause significant error
 Rotational temperatures (Kelvin)      0.07829     0.03023     0.02356
 Rotational constants (GHZ):           1.63120     0.62984     0.49095
 Zero-point vibrational energy     523756.6 (Joules/Mol)
                                  125.18083 (Kcal/Mol)
 Warning -- explicit consideration of  16 degrees of freedom as
           vibrations may cause significant error
 Vibrational temperatures:     51.14   102.51   135.02   178.69   204.15
          (Kelvin)            259.43   324.85   345.37   399.97   465.12
                              511.74   573.95   651.13   685.83   699.22
                              794.30   964.58  1075.14  1124.37  1136.16
                             1153.78  1238.05  1271.66  1288.02  1372.29
                             1402.60  1445.54  1477.29  1483.90  1515.44
                             1540.78  1566.42  1576.63  1583.87  1624.95
                             1743.20  1748.30  1765.36  1854.89  1924.84
                             1968.45  1981.94  2002.32  2023.18  2071.68
                             2092.17  2144.68  2172.55  2196.10  2198.45
                             2199.11  2219.04  2276.15  2341.16  4307.69
                             4391.03  4397.33  4447.45  4489.36  4509.55
                             4521.10  4543.02  4546.36  4661.37  4679.57
                             5345.60

 Zero-point correction=                           0.199488 (Hartree/Particle)
 Thermal correction to Energy=                    0.211244
 Thermal correction to Enthalpy=                  0.212189
 Thermal correction to Gibbs Free Energy=         0.160995
 Sum of electronic and zero-point Energies=           -571.794482
 Sum of electronic and thermal Energies=              -571.782726
 Sum of electronic and thermal Enthalpies=            -571.781782
 Sum of electronic and thermal Free Energies=         -571.832976

                     E (Thermal)             CV                S
                      KCal/Mol        Cal/Mol-Kelvin    Cal/Mol-Kelvin
 Total                  132.558             43.467            107.746
 Electronic               0.000              0.000              0.000
 Translational            0.889              2.981             41.266
 Rotational               0.889              2.981             30.834
 Vibrational            130.780             37.505             35.646
 Vibration     1          0.594              1.982              5.493
 Vibration     2          0.598              1.968              4.119
 Vibration     3          0.603              1.954              3.578
 Vibration     4          0.610              1.929              3.034
 Vibration     5          0.615              1.911              2.778
 Vibration     6          0.629              1.866              2.325
 Vibration     7          0.650              1.802              1.912
 Vibration     8          0.657              1.779              1.803
 Vibration     9          0.679              1.714              1.546
 Vibration    10          0.708              1.629              1.293
 Vibration    11          0.731              1.564              1.141
 Vibration    12          0.765              1.472              0.967
 Vibration    13          0.811              1.355              0.788
 Vibration    14          0.833              1.302              0.719
 Vibration    15          0.842              1.281              0.694
 Vibration    16          0.907              1.135              0.540

 Optimization completed.
    -- Stationary point found.
 Normal termination of Gaussian 16 at Wed Dec  9 17:31:43 2020.

 ----------------------------------------------------------------------
 # B3LYP/6-311++G(d,p) empiricaldispersion=gd3bj scf=xqc pop=npa geom=c
 heck
 ----------------------------------------------------------------------

 ---------------------------------------
 CID_130553268_JID_2487_Energie_neutraal
 ---------------------------------------
 Structure from the checkpoint file:  "JID_2487.chk"
 Charge =  0 Multiplicity = 1

 SCF Done:  E(RB3LYP) =  -572.159560262     A.U. after   14 cycles
 Normal termination of Gaussian 16 at Wed Dec  9 17:34:11 2020.

 ----------------------------------------------------------------------
 # B3LYP/6-311++G(d,p) empiricaldispersion=gd3bj scf=xqc pop=npa geom=c
 heck
 ----------------------------------------------------------------------

 -------------------------------------
 CID_130553268_JID_2487_Energie_kation
 -------------------------------------
 Structure from the checkpoint file:  "JID_2487.chk"
 Charge =  1 Multiplicity = 2

 SCF Done:  E(UB3LYP) =  -571.813561438     A.U. after   23 cycles
 Normal termination of Gaussian 16 at Wed Dec  9 17:41:06 2020.
 Gaussian 16:  ES64L-G16RevA.03 25-Dec-2016

 ----------------------------------------------------------------------
 # B3LYP/6-311++G(d,p) empiricaldispersion=gd3bj scf=xqc pop=npa geom=c
 heck
 ----------------------------------------------------------------------

 ------------------------------------
 CID_130553268_JID_2487_Energie_anion
 ------------------------------------
 Structure from the checkpoint file:  "JID_2487.chk"
 Charge = -1 Multiplicity = 2

                         Standard orientation:
 ---------------------------------------------------------------------
 Center     Atomic      Atomic             Coordinates (Angstroms)
 Number     Number       Type             X           Y           Z
 ---------------------------------------------------------------------
      1          6           0        1.642800    2.369654   -0.547183
      2          6           0        1.972275    1.370952    0.566382
      3          6           0        1.675215   -0.073554    0.190627
      4          6           0        2.641026   -0.802678   -0.734380
      5          6           0        2.586104   -1.183948    0.710484
      6          6           0        0.249535   -0.408094    0.071941
      7          7           0       -0.783225    0.341141    0.355152
      8          6           0       -1.846653   -0.489745    0.069987
      9          7           0       -1.521753   -1.678056   -0.362681
     10          8           0       -0.103275   -1.634458   -0.359454
     11          6           0       -3.255582   -0.013106    0.273815
     12          8           0       -3.410548    1.315858   -0.186154
     13          1           0        2.200223    2.136000   -1.461489
     14          1           0        1.904445    3.388787   -0.243161
     15          1           0        0.575468    2.349726   -0.784430
     16          1           0        3.037228    1.438135    0.820257
     17          1           0        1.413657    1.625403    1.474457
     18          1           0        2.221920   -1.488942   -1.462663
     19          1           0        3.488371   -0.221484   -1.086844
     20          1           0        3.393306   -0.871599    1.366581
     21          1           0        2.122554   -2.129720    0.971785
     22          1           0       -3.948785   -0.645806   -0.285043
     23          1           0       -3.504395   -0.102674    1.344298
     24          1           0       -2.646882    1.812488    0.153774
 ---------------------------------------------------------------------

 SCF Done:  E(UB3LYP) =  -572.146183375     A.U. after   33 cycles
 SCF Done:  E(UB3LYP) =  -572.146183373     a.u. after    1 cycles

 The electronic state is 2-A.
 Alpha  occ. eigenvalues --  -19.09476 -19.02813 -14.24625 -14.20531 -10.15817
 Alpha  occ. eigenvalues --  -10.13230 -10.12427 -10.10030 -10.07890 -10.07723
 Alpha  occ. eigenvalues --  -10.06688 -10.05186  -1.04431  -0.93326  -0.82358
 Alpha  occ. eigenvalues --   -0.79102  -0.74559  -0.65835  -0.61531  -0.56724
 Alpha  occ. eigenvalues --   -0.52555  -0.50772  -0.49979  -0.46232  -0.41975
 Alpha  occ. eigenvalues --   -0.40174  -0.38618  -0.36800  -0.36006  -0.33542
 Alpha  occ. eigenvalues --   -0.33150  -0.32121  -0.31061  -0.28360  -0.27105
 Alpha  occ. eigenvalues --   -0.26147  -0.25541  -0.24668  -0.22608  -0.21800
 Alpha  occ. eigenvalues --   -0.20874  -0.20678  -0.19034  -0.18802  -0.15831
 Alpha  occ. eigenvalues --    0.04926
 Alpha virt. eigenvalues --    0.06812   0.07571   0.08102   0.08842   0.09533
 Alpha virt. eigenvalues --    0.10480   0.10709   0.11206   0.11967   0.12486
 Alpha virt. eigenvalues --    0.12645   0.13570   0.14215   0.15685   0.16088

  Beta  occ. eigenvalues --  -19.09325 -19.02790 -14.24438 -14.20555 -10.15638
  Beta  occ. eigenvalues --  -10.13228 -10.12368 -10.10049 -10.07864 -10.07673
  Beta  occ. eigenvalues --  -10.06661 -10.05166  -1.04177  -0.93270  -0.82240
  Beta  occ. eigenvalues --   -0.78963  -0.74362  -0.65790  -0.61433  -0.56540
  Beta  occ. eigenvalues --   -0.52437  -0.50668  -0.49857  -0.46125  -0.41904
  Beta  occ. eigenvalues --   -0.40071  -0.38325  -0.36501  -0.35852  -0.33491
  Beta  occ. eigenvalues --   -0.33108  -0.31992  -0.30969  -0.28296  -0.27019
  Beta  occ. eigenvalues --   -0.26041  -0.25464  -0.24592  -0.22393  -0.21414
  Beta  occ. eigenvalues --   -0.20677  -0.20387  -0.18937  -0.18759  -0.15273
  Beta virt. eigenvalues --    0.07435   0.07943   0.08617   0.08875   0.09393
  Beta virt. eigenvalues --    0.10078   0.10680   0.10992   0.11574   0.12250
  Beta virt. eigenvalues --    0.12997   0.13226   0.13851   0.14598   0.15813

 Mulliken charges and spin densities:
               1          2
     1  C    0.474061  -1.093180
     2  C   -1.284977   1.127477
     3  C   -3.476086   4.541727
     4  C    0.090309  -0.616297
     5  C    1.634498  -2.061862
     6  C    1.691567  -3.273386
     7  N   -0.050841   0.012623
     8  C    1.510406  -0.531225
     9  N   -0.395768   0.063188
    10  O    0.174625   0.030229
    11  C    0.533980  -0.918165
    12  O   -0.297919   0.040641
    13  H   -0.057136   0.189654
    14  H   -0.418616   0.555056
    15  H    0.203946  -0.056843
    16  H   -0.452549   0.608287
    17  H   -0.184350   0.374215
    18  H    0.079637   0.121288
    19  H   -0.097642   0.250355
    20  H   -0.591457   0.767476
    21  H   -0.170376   0.350026
    22  H    0.199098  -0.026249
    23  H   -0.231753   0.400542
    24  H    0.117342   0.144423
 Sum of Mulliken charges =  -1.00000   1.00000

 Dipole moment (field-independent basis, Debye):
    X=             -4.0676    Y=             -1.8886    Z=             -2.2617  Tot=              5.0227
 Quadrupole moment (field-independent basis, Debye-Ang):
   XX=           -143.9443   YY=           -112.6616   ZZ=            -96.2765
   XY=             -1.2367   XZ=             -9.1438   YZ=             -0.2242

 Summary of Natural Population Analysis:

                                       Natural Population
                Natural  -----------------------------------------------
    Atom  No    Charge         Core      Valence    Rydberg      Total
 -----------------------------------------------------------------------
      C    1   -0.28621      0.99966     2.28095    0.00561     3.28621
      C    2   -0.18246      0.99961     2.17299    0.00986     3.18246
      C    3   -0.07600      0.99951     2.06309    0.01340     3.07600
      C    4   -0.18304      0.99960     2.17434    0.00911     3.18304
      C    5   -0.17734      0.99960     2.16775    0.00998     3.17734
      C    6    0.32630      0.99954     1.65391    0.02025     2.67370
      N    7   -0.29643      0.99966     2.78734    0.00943     3.79643
      C    8    0.16415      0.99965     1.81697    0.01923     2.83585
      N    9   -0.07495      0.99966     2.56407    0.01122     3.57495
      O   10   -0.16708      0.99985     3.15958    0.00765     4.16708
      C   11   -0.02626      0.99956     2.01310    0.01360     3.02626
      O   12   -0.36628      0.99990     3.35997    0.00641     4.36628
      H   13    0.09422      0.00000     0.40473    0.00105     0.40578
      H   14    0.09855      0.00000     0.40046    0.00099     0.40145
      H   15    0.10342      0.00000     0.39537    0.00122     0.39658
      H   16    0.10065      0.00000     0.39689    0.00246     0.39935
      H   17    0.10450      0.00000     0.39395    0.00155     0.39550
      H   18    0.10706      0.00000     0.39173    0.00121     0.39294
      H   19    0.10553      0.00000     0.39348    0.00099     0.39447
      H   20    0.10917      0.00000     0.38760    0.00323     0.39083
      H   21    0.10682      0.00000     0.39185    0.00133     0.39318
      H   22    0.09418      0.00000     0.40463    0.00119     0.40582
      H   23    0.08509      0.00000     0.41310    0.00182     0.41491
      H   24    0.23640      0.00000     0.25996    0.00363     0.26360
 =======================================================================
   * Total *    0.00000     11.99580    32.84778    0.15642    45.00000

 Normal termination of Gaussian 16 at Wed Dec  9 17:48:14 2020.
