 Gaussian 16, Revision A.03,

 -----------------------------------------------------------
 # opt freq B3LYP/6-31G(d) empiricaldispersion=gd3bj scf=xqc
 -----------------------------------------------------------

 -------------------------------
 CID_148202474_JID_6459_neutraal
 -------------------------------
 Symbolic Z-matrix:
 Charge =  0 Multiplicity = 1

 SCF Done:  E(RB3LYP) =  -685.925942507     A.U. after   14 cycles
 SCF Done:  E(RB3LYP) =  -685.933952567     A.U. after   12 cycles
 SCF Done:  E(RB3LYP) =  -685.935896636     A.U. after   11 cycles
 SCF Done:  E(RB3LYP) =  -685.937476788     A.U. after   12 cycles
 SCF Done:  E(RB3LYP) =  -685.938145877     A.U. after   12 cycles
 SCF Done:  E(RB3LYP) =  -685.938410138     A.U. after   11 cycles
 SCF Done:  E(RB3LYP) =  -685.938512548     A.U. after   11 cycles
 SCF Done:  E(RB3LYP) =  -685.938551037     A.U. after   11 cycles
 SCF Done:  E(RB3LYP) =  -685.938563804     A.U. after   10 cycles
 SCF Done:  E(RB3LYP) =  -685.938566557     A.U. after    8 cycles
 SCF Done:  E(RB3LYP) =  -685.938567026     A.U. after    7 cycles
 SCF Done:  E(RB3LYP) =  -685.938567198     A.U. after    7 cycles
 SCF Done:  E(RB3LYP) =  -685.938567270     A.U. after    7 cycles
 Optimization completed.
    -- Stationary point found.
 Normal termination of Gaussian 16 at Thu Dec 10 22:57:20 2020.

 --------------------------------------------------------------------
 #N Geom=AllCheck Guess=TCheck SCRF=Check GenChk RB3LYP/6-31G(d) Freq
 --------------------------------------------------------------------

 Structure from the checkpoint file:  "JID_6459.chk"
 -------------------------------
 CID_148202474_JID_6459_neutraal
 -------------------------------
 Charge =  0 Multiplicity = 1

 SCF Done:  E(RB3LYP) =  -685.938567270     A.U. after    1 cycles

  Exact polarizability: 195.697 -15.369 139.877  15.540   9.624 111.051
 Approx polarizability: 264.110 -33.370 231.676  25.254  31.116 182.834

                      1                      2                      3
                      A                      A                      A
 Frequencies --     36.8752                61.8688                67.2211
 Red. masses --      4.1856                 3.8107                 4.3568
 Frc consts  --      0.0034                 0.0086                 0.0116
 IR Inten    --      0.9478                 0.6578                 0.3124

                      4                      5                      6
                      A                      A                      A
 Frequencies --     98.4120               150.3473               182.3101
 Red. masses --      3.9167                 5.0163                 2.8377
 Frc consts  --      0.0223                 0.0668                 0.0556
 IR Inten    --      1.0604                 1.9555                 9.3799

                      7                      8                      9
                      A                      A                      A
 Frequencies --    241.7079               292.1676               309.3092
 Red. masses --      3.1202                 3.6917                 4.0020
 Frc consts  --      0.1074                 0.1857                 0.2256
 IR Inten    --      0.6182                 5.2652                 0.7330

                     10                     11                     12
                      A                      A                      A
 Frequencies --    371.1868               377.9154               408.0510
 Red. masses --      1.3428                 2.3451                 2.2806
 Frc consts  --      0.1090                 0.1973                 0.2237
 IR Inten    --     44.2402                14.5280                 6.5656

                     13                     14                     15
                      A                      A                      A
 Frequencies --    427.0363               429.6472               459.5730
 Red. masses --      2.7042                 2.9201                 3.1855
 Frc consts  --      0.2905                 0.3176                 0.3964
 IR Inten    --      5.4003                 5.0540                 1.4337

                     16                     17                     18
                      A                      A                      A
 Frequencies --    490.9617               515.8688               567.7652
 Red. masses --      2.2135                 1.9267                 2.8684
 Frc consts  --      0.3144                 0.3021                 0.5448
 IR Inten    --     19.6551               177.0429               117.3903

                     19                     20                     21
                      A                      A                      A
 Frequencies --    573.2585               612.6437               646.2344
 Red. masses --      2.4468                 2.8961                 3.3635
 Frc consts  --      0.4738                 0.6404                 0.8276
 IR Inten    --     87.9328                32.9294                10.6878

                     22                     23                     24
                      A                      A                      A
 Frequencies --    669.1415               694.5614               730.0392
 Red. masses --      4.0656                 2.3512                 1.7863
 Frc consts  --      1.0725                 0.6683                 0.5609
 IR Inten    --      2.9660                15.6329                 8.9889

                     25                     26                     27
                      A                      A                      A
 Frequencies --    769.9886               777.3587               794.6021
 Red. masses --      3.5554                 4.7647                 1.7389
 Frc consts  --      1.2419                 1.6964                 0.6469
 IR Inten    --     14.7261                11.8245                25.5316

                     28                     29                     30
                      A                      A                      A
 Frequencies --    803.2001               824.9444               833.7172
 Red. masses --      2.4187                 2.2199                 2.6260
 Frc consts  --      0.9193                 0.8901                 1.0754
 IR Inten    --     31.6835                38.7868                44.5007

                     31                     32                     33
                      A                      A                      A
 Frequencies --    839.6180               876.4014               880.0950
 Red. masses --      1.6119                 2.4807                 2.3382
 Frc consts  --      0.6695                 1.1226                 1.0671
 IR Inten    --     30.0462                 1.5870                 5.3373

                     34                     35                     36
                      A                      A                      A
 Frequencies --    887.2864               949.2035               965.8679
 Red. masses --      3.3257                 2.1538                 1.8752
 Frc consts  --      1.5426                 1.1434                 1.0307
 IR Inten    --      1.2835                 5.0767                 0.7546

                     37                     38                     39
                      A                      A                      A
 Frequencies --    974.4045               981.7359               984.9866
 Red. masses --      1.4135                 1.7087                 1.4177
 Frc consts  --      0.7907                 0.9703                 0.8104
 IR Inten    --      4.2531                 3.5779                 1.1144

                     40                     41                     42
                      A                      A                      A
 Frequencies --    993.6698              1027.0467              1038.2643
 Red. masses --      2.0654                 1.6255                 3.1267
 Frc consts  --      1.2015                 1.0102                 1.9858
 IR Inten    --     13.4042                11.3930                 8.0214

                     43                     44                     45
                      A                      A                      A
 Frequencies --   1077.3653              1089.6329              1091.7401
 Red. masses --      2.0510                 1.5468                 1.7562
 Frc consts  --      1.4027                 1.0821                 1.2333
 IR Inten    --      8.6318                 4.6769                 7.2515

                     46                     47                     48
                      A                      A                      A
 Frequencies --   1111.1709              1148.8371              1152.6776
 Red. masses --      2.0115                 1.3148                 2.7713
 Frc consts  --      1.4633                 1.0224                 2.1694
 IR Inten    --      5.1421                18.5412                33.1813

                     49                     50                     51
                      A                      A                      A
 Frequencies --   1168.0482              1173.4108              1223.6418
 Red. masses --      1.5659                 1.1845                 2.2264
 Frc consts  --      1.2587                 0.9609                 1.9641
 IR Inten    --      4.3883                21.4958                 5.2859

                     52                     53                     54
                      A                      A                      A
 Frequencies --   1235.2602              1243.6003              1293.3494
 Red. masses --      1.1926                 1.6745                 1.4049
 Frc consts  --      1.0722                 1.5258                 1.3847
 IR Inten    --      4.6244                16.6847                 1.8150

                     55                     56                     57
                      A                      A                      A
 Frequencies --   1299.2762              1319.7283              1330.3568
 Red. masses --      1.4542                 2.3824                 1.6182
 Frc consts  --      1.4463                 2.4448                 1.6874
 IR Inten    --      7.8326                16.4176                 2.0925

                     58                     59                     60
                      A                      A                      A
 Frequencies --   1332.3852              1353.2764              1361.6982
 Red. masses --      1.6555                 2.3284                 1.5748
 Frc consts  --      1.7316                 2.5124                 1.7204
 IR Inten    --     13.6190                21.2464                 0.0319

                     61                     62                     63
                      A                      A                      A
 Frequencies --   1382.7448              1385.6849              1411.1915
 Red. masses --      1.4362                 1.6346                 4.1369
 Frc consts  --      1.6179                 1.8493                 4.8540
 IR Inten    --      9.1120                10.7805               197.4383

                     64                     65                     66
                      A                      A                      A
 Frequencies --   1435.5316              1454.5065              1472.4145
 Red. masses --      3.7900                 1.2792                 1.3701
 Frc consts  --      4.6017                 1.5945                 1.7501
 IR Inten    --     68.1310                12.0178                33.9979

                     67                     68                     69
                      A                      A                      A
 Frequencies --   1514.7641              1536.2978              1542.4831
 Red. masses --      1.1132                 1.0963                 1.1290
 Frc consts  --      1.5050                 1.5246                 1.5827
 IR Inten    --      5.0092                 5.3736                10.5574

                     70                     71                     72
                      A                      A                      A
 Frequencies --   1547.0580              1617.4756              1656.7640
 Red. masses --      2.5463                 5.5208                 1.9627
 Frc consts  --      3.5906                 8.5099                 3.1741
 IR Inten    --     89.6637                19.0631                17.9551

                     73                     74                     75
                      A                      A                      A
 Frequencies --   1676.5808              1680.4260              3046.2809
 Red. masses --      2.7860                 3.1966                 1.0588
 Frc consts  --      4.6141                 5.3184                 5.7893
 IR Inten    --    172.6816               290.9173                72.0831

                     76                     77                     78
                      A                      A                      A
 Frequencies --   3048.4993              3080.7543              3091.8324
 Red. masses --      1.0614                 1.0594                 1.1070
 Frc consts  --      5.8115                 5.9244                 6.2350
 IR Inten    --     20.0379                23.0934                17.7424

                     79                     80                     81
                      A                      A                      A
 Frequencies --   3095.4546              3135.9591              3137.2397
 Red. masses --      1.1056                 1.1021                 1.0955
 Frc consts  --      6.2417                 6.3858                 6.3525
 IR Inten    --     34.3904                40.6429                38.9810

                     82                     83                     84
                      A                      A                      A
 Frequencies --   3176.2364              3180.8706              3189.3152
 Red. masses --      1.0902                 1.0890                 1.0881
 Frc consts  --      6.4798                 6.4918                 6.5210
 IR Inten    --     25.9608                15.9817                13.2434

                     85                     86                     87
                      A                      A                      A
 Frequencies --   3199.6072              3208.8550              3278.3297
 Red. masses --      1.0591                 1.0942                 1.1159
 Frc consts  --      6.3883                 6.6380                 7.0660
 IR Inten    --      2.5008                 9.5995                15.0584

                     88                     89                     90
                      A                      A                      A
 Frequencies --   3491.5211              3567.0572              3678.9973
 Red. masses --      1.0753                 1.0468                 1.1001
 Frc consts  --      7.7236                 7.8475                 8.7730
 IR Inten    --      1.8888                36.4770                19.2468

 - Thermochemistry -
 -------------------
 Temperature   298.150 Kelvin.  Pressure   1.00000 Atm.
 Atom     1 has atomic number  6 and mass  12.00000

 Molecular mass:   216.13750 amu.
 Principal axes and moments of inertia in atomic units:
                           1         2         3
     Eigenvalues --  1428.966545979.628646398.32708
           X            0.99997   0.00164   0.00731
           Y           -0.00164   1.00000   0.00025
           Z           -0.00731  -0.00027   0.99997
 This molecule is an asymmetric top.
 Rotational symmetry number  1.
 Warning -- assumption of classical behavior for rotation
           may cause significant error
 Rotational temperatures (Kelvin)      0.06061     0.01448     0.01354
 Rotational constants (GHZ):           1.26297     0.30181     0.28206
 Zero-point vibrational energy     721005.4 (Joules/Mol)
                                  172.32442 (Kcal/Mol)
 Warning -- explicit consideration of  20 degrees of freedom as
           vibrations may cause significant error
 Vibrational temperatures:     53.06    89.02    96.72   141.59   216.32
          (Kelvin)            262.30   347.76   420.36   445.03   534.06
                              543.74   587.09   614.41   618.17   661.22
                              706.38   742.22   816.89   824.79   881.46
                              929.79   962.75   999.32  1050.36  1107.84
                             1118.45  1143.26  1155.63  1186.91  1199.53
                             1208.02  1260.95  1266.26  1276.61  1365.69
                             1389.67  1401.95  1412.50  1417.18  1429.67
                             1477.69  1493.83  1550.09  1567.74  1570.77
                             1598.73  1652.92  1658.45  1680.56  1688.28
                             1760.55  1777.26  1789.26  1860.84  1869.37
                             1898.79  1914.09  1917.01  1947.06  1959.18
                             1989.46  1993.69  2030.39  2065.41  2092.71
                             2118.48  2179.41  2210.39  2219.29  2225.87
                             2327.19  2383.71  2412.23  2417.76  4382.92
                             4386.11  4432.52  4448.46  4453.67  4511.95
                             4513.79  4569.90  4576.56  4588.71  4603.52
                             4616.83  4716.79  5023.52  5132.20  5293.26

 Zero-point correction=                           0.274616 (Hartree/Particle)
 Thermal correction to Energy=                    0.287834
 Thermal correction to Enthalpy=                  0.288778
 Thermal correction to Gibbs Free Energy=         0.234300
 Sum of electronic and zero-point Energies=           -685.663951
 Sum of electronic and thermal Energies=              -685.650734
 Sum of electronic and thermal Enthalpies=            -685.649789
 Sum of electronic and thermal Free Energies=         -685.704267

                     E (Thermal)             CV                S
                      KCal/Mol        Cal/Mol-Kelvin    Cal/Mol-Kelvin
 Total                  180.618             54.290            114.659
 Electronic               0.000              0.000              0.000
 Translational            0.889              2.981             42.015
 Rotational               0.889              2.981             32.369
 Vibrational            178.841             48.328             40.274
 Vibration     1          0.594              1.982              5.420
 Vibration     2          0.597              1.973              4.397
 Vibration     3          0.598              1.970              4.233
 Vibration     4          0.604              1.950              3.486
 Vibration     5          0.618              1.902              2.668
 Vibration     6          0.630              1.864              2.305
 Vibration     7          0.658              1.776              1.790
 Vibration     8          0.688              1.688              1.461
 Vibration     9          0.699              1.656              1.366
 Vibration    10          0.743              1.531              1.075
 Vibration    11          0.748              1.517              1.047
 Vibration    12          0.773              1.453              0.934
 Vibration    13          0.789              1.411              0.868
 Vibration    14          0.791              1.406              0.860
 Vibration    15          0.817              1.340              0.767
 Vibration    16          0.847              1.270              0.681
 Vibration    17          0.871              1.215              0.620
 Vibration    18          0.924              1.101              0.509
 Vibration    19          0.930              1.089              0.498
 Vibration    20          0.972              1.005              0.428

 Optimization completed.
    -- Stationary point found.
 Normal termination of Gaussian 16 at Thu Dec 10 23:08:03 2020.

 ----------------------------------------------------------------------
 # B3LYP/6-311++G(d,p) empiricaldispersion=gd3bj scf=xqc pop=npa geom=c
 heck
 ----------------------------------------------------------------------

 ---------------------------------------
 CID_148202474_JID_6459_Energie_neutraal
 ---------------------------------------
 Structure from the checkpoint file:  "JID_6459.chk"
 Charge =  0 Multiplicity = 1

 SCF Done:  E(RB3LYP) =  -686.129244155     A.U. after   15 cycles
 Normal termination of Gaussian 16 at Thu Dec 10 23:12:14 2020.

 ----------------------------------------------------------------------
 # B3LYP/6-311++G(d,p) empiricaldispersion=gd3bj scf=xqc pop=npa geom=c
 heck
 ----------------------------------------------------------------------

 -------------------------------------
 CID_148202474_JID_6459_Energie_kation
 -------------------------------------
 Structure from the checkpoint file:  "JID_6459.chk"
 Charge =  1 Multiplicity = 2

 SCF Done:  E(UB3LYP) =  -685.870856363     A.U. after   23 cycles
 Normal termination of Gaussian 16 at Thu Dec 10 23:20:50 2020.
 Gaussian 16:  ES64L-G16RevA.03 25-Dec-2016

 ----------------------------------------------------------------------
 # B3LYP/6-311++G(d,p) empiricaldispersion=gd3bj scf=xqc pop=npa geom=c
 heck
 ----------------------------------------------------------------------

 ------------------------------------
 CID_148202474_JID_6459_Energie_anion
 ------------------------------------
 Structure from the checkpoint file:  "JID_6459.chk"
 Charge = -1 Multiplicity = 2

                         Standard orientation:
 ---------------------------------------------------------------------
 Center     Atomic      Atomic             Coordinates (Angstroms)
 Number     Number       Type             X           Y           Z
 ---------------------------------------------------------------------
      1          6           0       -0.485109    2.568247   -0.312928
      2          6           0       -0.315206    1.228620   -0.336288
      3          6           0        1.041194    0.648515   -0.163080
      4          6           0        1.530449   -0.348360   -1.014664
      5          7           0        2.747350   -0.892261   -0.929522
      6          6           0        3.568875   -0.445113    0.033196
      7          6           0        3.186358    0.557644    0.945864
      8          6           0        1.914088    1.093855    0.841613
      9          7           0        4.839365   -0.993942    0.054644
     10          7           0       -1.327875    0.309276   -0.613659
     11          6           0       -2.719548    0.768783   -0.811792
     12          6           0       -3.528052   -0.426605   -0.279201
     13          6           0       -2.606876   -1.613753   -0.625199
     14          6           0       -1.427334   -0.975355    0.117940
     15          6           0       -2.039029   -0.703458    1.512868
     16          7           0       -3.458138   -0.339084    1.202022
     17          1           0        0.377882    3.217678   -0.229535
     18          1           0       -1.448800    3.044931   -0.438532
     19          1           0        0.896658   -0.723750   -1.815871
     20          1           0        3.876512    0.895109    1.713832
     21          1           0        1.578027    1.856043    1.538514
     22          1           0        4.915917   -1.855458   -0.470924
     23          1           0        5.315913   -1.007242    0.945879
     24          1           0       -2.956271    1.652602   -0.210066
     25          1           0       -2.907019    0.993451   -1.869072
     26          1           0       -4.562188   -0.458429   -0.626673
     27          1           0       -2.945428   -2.556969   -0.184582
     28          1           0       -2.404985   -1.745256   -1.691801
     29          1           0       -0.483166   -1.514917    0.126795
     30          1           0       -1.525198    0.127325    2.007938
     31          1           0       -1.977089   -1.582622    2.166153
     32          1           0       -4.074539   -1.048539    1.593587
 ---------------------------------------------------------------------

 SCF Done:  E(UB3LYP) =  -686.120064357     A.U. after   33 cycles
 SCF Done:  E(UB3LYP) =  -686.120064357     a.u. after    1 cycles

 The electronic state is 2-A.
 Alpha  occ. eigenvalues --  -14.23092 -14.22483 -14.20974 -14.20308 -10.14950
 Alpha  occ. eigenvalues --  -10.11809 -10.11287 -10.11030 -10.11020 -10.10338
 Alpha  occ. eigenvalues --  -10.09560 -10.09496 -10.08434 -10.08236 -10.07453
 Alpha  occ. eigenvalues --  -10.05192  -0.87920  -0.87039  -0.80735  -0.79478
 Alpha  occ. eigenvalues --   -0.72237  -0.68842  -0.66172  -0.64927  -0.61976
 Alpha  occ. eigenvalues --   -0.57270  -0.54403  -0.53287  -0.49760  -0.48712
 Alpha  occ. eigenvalues --   -0.45323  -0.44041  -0.43422  -0.42157  -0.41293
 Alpha  occ. eigenvalues --   -0.38186  -0.37113  -0.35624  -0.34579  -0.33945
 Alpha  occ. eigenvalues --   -0.32643  -0.31974  -0.31731  -0.31161  -0.29974
 Alpha  occ. eigenvalues --   -0.28354  -0.27491  -0.27010  -0.25984  -0.25908
 Alpha  occ. eigenvalues --   -0.25115  -0.23479  -0.20231  -0.19102  -0.17168
 Alpha  occ. eigenvalues --   -0.14024  -0.12757  -0.10687   0.03835
 Alpha virt. eigenvalues --    0.05164   0.06308   0.06991   0.07314   0.07533
 Alpha virt. eigenvalues --    0.08179   0.08631   0.09591   0.09839   0.10250
 Alpha virt. eigenvalues --    0.11001   0.11159   0.11483   0.12321   0.12822

  Beta  occ. eigenvalues --  -14.23092 -14.22427 -14.20975 -14.20289 -10.14920
  Beta  occ. eigenvalues --  -10.11802 -10.11284 -10.11006 -10.11005 -10.10332
  Beta  occ. eigenvalues --  -10.09545 -10.09496 -10.08422 -10.08215 -10.07429
  Beta  occ. eigenvalues --  -10.05180  -0.87899  -0.86996  -0.80700  -0.79422
  Beta  occ. eigenvalues --   -0.72210  -0.68810  -0.66142  -0.64876  -0.61934
  Beta  occ. eigenvalues --   -0.57236  -0.54353  -0.53230  -0.49715  -0.48668
  Beta  occ. eigenvalues --   -0.45281  -0.43992  -0.43361  -0.42103  -0.41253
  Beta  occ. eigenvalues --   -0.38156  -0.37063  -0.35581  -0.34551  -0.33910
  Beta  occ. eigenvalues --   -0.32582  -0.31944  -0.31695  -0.31117  -0.29950
  Beta  occ. eigenvalues --   -0.28319  -0.27463  -0.26976  -0.25960  -0.25875
  Beta  occ. eigenvalues --   -0.25084  -0.23405  -0.20174  -0.19072  -0.17154
  Beta  occ. eigenvalues --   -0.13999  -0.12678  -0.10625
  Beta virt. eigenvalues --    0.06163   0.06352   0.06773   0.07148   0.07799
  Beta virt. eigenvalues --    0.07994   0.08702   0.08981   0.09938   0.10279
  Beta virt. eigenvalues --    0.10671   0.11132   0.11217   0.11857   0.12409

 Mulliken charges and spin densities:
               1          2
     1  C   -0.610819   0.116338
     2  C    0.471496  -0.239783
     3  C    0.994672  -0.456634
     4  C   -0.818177   0.104524
     5  N   -0.013735  -0.050828
     6  C    0.356806  -0.728888
     7  C    0.278673  -0.089364
     8  C   -0.669990   0.025645
     9  N   -0.308458   0.034544
    10  N    0.295265  -0.091657
    11  C    0.319156  -0.822939
    12  C   -0.577334   0.887225
    13  C    1.241456  -2.118972
    14  C   -1.124417   1.361265
    15  C    0.457789  -1.157806
    16  N   -0.054657  -0.123787
    17  H    0.121130   0.011244
    18  H    0.052913   0.033472
    19  H    0.110619   0.108855
    20  H   -0.439396   0.621150
    21  H    0.097979   0.101922
    22  H    0.073805   0.187451
    23  H   -0.403744   0.663740
    24  H    0.174851  -0.051770
    25  H    0.044238   0.122974
    26  H   -0.648361   0.908092
    27  H   -0.513706   0.699160
    28  H    0.058645   0.083033
    29  H    0.146421   0.145949
    30  H    0.221283  -0.033961
    31  H   -0.356467   0.522216
    32  H    0.022062   0.227587
 Sum of Mulliken charges =  -1.00000   1.00000

 Dipole moment (field-independent basis, Debye):
    X=             -1.4121    Y=              3.8599    Z=             -2.4515  Tot=              4.7857
 Quadrupole moment (field-independent basis, Debye-Ang):
   XX=           -205.6273   YY=           -131.9369   ZZ=           -129.5214
   XY=             -3.8236   XZ=             -4.6445   YZ=              3.1325

 Summary of Natural Population Analysis:

                                       Natural Population
                Natural  -----------------------------------------------
    Atom  No    Charge         Core      Valence    Rydberg      Total
 -----------------------------------------------------------------------
      C    1   -0.25088      0.99955     2.24493    0.00640     3.25088
      C    2    0.10049      0.99948     1.88847    0.01156     2.89951
      C    3   -0.07714      0.99946     2.06710    0.01058     3.07714
      C    4    0.04791      0.99954     1.93928    0.01327     2.95209
      N    5   -0.25990      0.99967     2.74976    0.01047     3.75990
      C    6    0.20075      0.99955     1.78432    0.01539     2.79925
      C    7   -0.13919      0.99951     2.12991    0.00977     3.13919
      C    8   -0.06881      0.99953     2.05953    0.00975     3.06881
      N    9   -0.39282      0.99971     2.88297    0.01013     3.89282
      N   10   -0.26504      0.99966     2.75451    0.01086     3.76504
      C   11   -0.08858      0.99961     2.07758    0.01139     3.08858
      C   12   -0.01843      0.99960     2.00310    0.01573     3.01843
      C   13   -0.19933      0.99961     2.19008    0.00964     3.19933
      C   14   -0.01271      0.99958     1.99893    0.01421     3.01271
      C   15   -0.09983      0.99961     2.08936    0.01086     3.09983
      N   16   -0.34463      0.99976     2.83270    0.01217     3.84463
      H   17    0.09663      0.00000     0.40252    0.00085     0.40337
      H   18    0.09484      0.00000     0.40419    0.00097     0.40516
      H   19    0.09312      0.00000     0.40506    0.00182     0.40688
      H   20    0.10571      0.00000     0.39304    0.00126     0.39429
      H   21    0.10490      0.00000     0.39405    0.00105     0.39510
      H   22    0.19092      0.00000     0.30661    0.00247     0.30908
      H   23    0.19251      0.00000     0.29850    0.00899     0.30749
      H   24    0.09911      0.00000     0.39928    0.00161     0.40089
      H   25    0.09611      0.00000     0.40293    0.00097     0.40389
      H   26    0.10366      0.00000     0.39465    0.00169     0.39634
      H   27    0.10497      0.00000     0.39300    0.00203     0.39503
      H   28    0.10426      0.00000     0.39460    0.00114     0.39574
      H   29    0.11257      0.00000     0.38599    0.00144     0.38743
      H   30    0.09554      0.00000     0.40301    0.00145     0.40446
      H   31    0.09546      0.00000     0.40303    0.00151     0.40454
      H   32    0.17783      0.00000     0.31892    0.00326     0.32217
 =======================================================================
   * Total *    0.00000     15.99345    41.79191    0.21465    58.00000

 Normal termination of Gaussian 16 at Thu Dec 10 23:33:05 2020.
