 Gaussian 16, Revision A.03,

 -----------------------------------------------------------
 # opt freq B3LYP/6-31G(d) empiricaldispersion=gd3bj scf=xqc
 -----------------------------------------------------------

 ------------------------------
 CID_61895646_JID_4225_neutraal
 ------------------------------
 Symbolic Z-matrix:
 Charge =  0 Multiplicity = 1

 SCF Done:  E(RB3LYP) =  -632.012103402     A.U. after   14 cycles
 SCF Done:  E(RB3LYP) =  -632.018351359     A.U. after   12 cycles
 SCF Done:  E(RB3LYP) =  -632.019370303     A.U. after   11 cycles
 SCF Done:  E(RB3LYP) =  -632.019879036     A.U. after   12 cycles
 SCF Done:  E(RB3LYP) =  -632.020530428     A.U. after   12 cycles
 SCF Done:  E(RB3LYP) =  -632.020770550     A.U. after   10 cycles
 SCF Done:  E(RB3LYP) =  -632.020951747     A.U. after   12 cycles
 SCF Done:  E(RB3LYP) =  -632.021063510     A.U. after   11 cycles
 SCF Done:  E(RB3LYP) =  -632.021321200     A.U. after   13 cycles
 SCF Done:  E(RB3LYP) =  -632.021382614     A.U. after   12 cycles
 SCF Done:  E(RB3LYP) =  -632.023405876     A.U. after   10 cycles
 SCF Done:  E(RB3LYP) =  -632.023411704     A.U. after   10 cycles
 SCF Done:  E(RB3LYP) =  -632.023412892     A.U. after    8 cycles
 SCF Done:  E(RB3LYP) =  -632.023413317     A.U. after    8 cycles
 SCF Done:  E(RB3LYP) =  -632.023413453     A.U. after    7 cycles
 SCF Done:  E(RB3LYP) =  -632.023413500     A.U. after    6 cycles
 Optimization completed.
    -- Stationary point found.
 Normal termination of Gaussian 16 at Thu Dec 10 09:33:37 2020.

 --------------------------------------------------------------------
 #N Geom=AllCheck Guess=TCheck SCRF=Check GenChk RB3LYP/6-31G(d) Freq
 --------------------------------------------------------------------

 Structure from the checkpoint file:  "JID_4225.chk"
 ------------------------------
 CID_61895646_JID_4225_neutraal
 ------------------------------
 Charge =  0 Multiplicity = 1

 SCF Done:  E(RB3LYP) =  -632.023413501     A.U. after    1 cycles

  Exact polarizability: 132.918  -2.042 119.748  -3.704  -2.023 114.779
 Approx polarizability: 166.498  -5.796 167.341  -6.615  -0.228 183.204

                      1                      2                      3
                      A                      A                      A
 Frequencies --     30.1407                48.8205                50.8594
 Red. masses --      3.8736                 3.4778                 4.1927
 Frc consts  --      0.0021                 0.0049                 0.0064
 IR Inten    --      2.8141                 2.5520                 0.7115

                      4                      5                      6
                      A                      A                      A
 Frequencies --    114.6664               149.3892               163.9429
 Red. masses --      3.4193                 2.5647                 3.3998
 Frc consts  --      0.0265                 0.0337                 0.0538
 IR Inten    --      2.1094                 0.8272                 3.8850

                      7                      8                      9
                      A                      A                      A
 Frequencies --    205.2554               215.8153               221.9593
 Red. masses --      1.3633                 2.8639                 1.8164
 Frc consts  --      0.0338                 0.0786                 0.0527
 IR Inten    --      0.1494                11.5879                 0.9610

                     10                     11                     12
                      A                      A                      A
 Frequencies --    242.1717               244.1827               268.9915
 Red. masses --      2.1748                 2.3218                 1.6702
 Frc consts  --      0.0751                 0.0816                 0.0712
 IR Inten    --      9.8179                 2.2561                 2.0112

                     13                     14                     15
                      A                      A                      A
 Frequencies --    293.9119               333.4189               368.5219
 Red. masses --      2.6242                 2.2212                 2.2403
 Frc consts  --      0.1336                 0.1455                 0.1793
 IR Inten    --      1.3743                 0.1911                 0.2872

                     16                     17                     18
                      A                      A                      A
 Frequencies --    382.3746               456.8078               480.7591
 Red. masses --      2.3894                 2.5133                 4.4697
 Frc consts  --      0.2058                 0.3090                 0.6087
 IR Inten    --      2.9408                 0.0954                 7.2794

                     19                     20                     21
                      A                      A                      A
 Frequencies --    490.5601               560.2520               576.2618
 Red. masses --      2.5908                 2.2808                 1.5637
 Frc consts  --      0.3673                 0.4218                 0.3060
 IR Inten    --      1.3943                37.2053                91.1784

                     22                     23                     24
                      A                      A                      A
 Frequencies --    675.1682               695.2563               730.4110
 Red. masses --      2.7692                 2.9019                 1.6572
 Frc consts  --      0.7438                 0.8265                 0.5209
 IR Inten    --      0.9941                 1.6111               115.7236

                     25                     26                     27
                      A                      A                      A
 Frequencies --    743.6132               747.6001               781.2819
 Red. masses --      3.0606                 4.7076                 3.4462
 Frc consts  --      0.9971                 1.5502                 1.2394
 IR Inten    --     38.6747                28.3821                52.8784

                     28                     29                     30
                      A                      A                      A
 Frequencies --    839.3983               879.0823               888.0181
 Red. masses --      1.8519                 2.1222                 2.2703
 Frc consts  --      0.7688                 0.9662                 1.0548
 IR Inten    --     19.8517                 0.2768                 5.8802

                     31                     32                     33
                      A                      A                      A
 Frequencies --    921.7825               939.8084               953.7128
 Red. masses --      1.6450                 1.3725                 2.3557
 Frc consts  --      0.8235                 0.7142                 1.2624
 IR Inten    --      6.2599                 1.3176                12.1522

                     34                     35                     36
                      A                      A                      A
 Frequencies --    973.1869               977.2647               983.8855
 Red. masses --      2.0540                 1.9469                 1.4142
 Frc consts  --      1.1461                 1.0955                 0.8066
 IR Inten    --      6.5200                 2.2121                 2.2196

                     37                     38                     39
                      A                      A                      A
 Frequencies --   1028.6555              1043.7655              1078.8489
 Red. masses --      1.3850                 1.4729                 2.0148
 Frc consts  --      0.8635                 0.9454                 1.3817
 IR Inten    --      6.7677                 2.2757                29.3475

                     40                     41                     42
                      A                      A                      A
 Frequencies --   1080.4678              1098.8276              1115.7297
 Red. masses --      1.4458                 1.8044                 1.8098
 Frc consts  --      0.9944                 1.2837                 1.3274
 IR Inten    --      4.5975                16.2504                 7.8530

                     43                     44                     45
                      A                      A                      A
 Frequencies --   1141.4853              1149.7783              1175.7883
 Red. masses --      1.8924                 2.1119                 2.1087
 Frc consts  --      1.4528                 1.6449                 1.7176
 IR Inten    --     15.5459                 7.1416                 1.8249

                     46                     47                     48
                      A                      A                      A
 Frequencies --   1178.7402              1217.7553              1237.7945
 Red. masses --      2.3739                 1.6983                 2.1431
 Frc consts  --      1.9433                 1.4838                 1.9346
 IR Inten    --     17.2930                14.2917                29.0145

                     49                     50                     51
                      A                      A                      A
 Frequencies --   1247.9559              1259.6016              1292.2439
 Red. masses --      1.9486                 1.4363                 1.8718
 Frc consts  --      1.7880                 1.3426                 1.8416
 IR Inten    --     17.2435                30.0012                35.8201

                     52                     53                     54
                      A                      A                      A
 Frequencies --   1303.3332              1316.8234              1339.4805
 Red. masses --      1.2353                 2.0148                 1.6155
 Frc consts  --      1.2363                 2.0584                 1.7078
 IR Inten    --     24.5624                70.7818                13.0395

                     55                     56                     57
                      A                      A                      A
 Frequencies --   1357.4683              1362.8817              1402.6834
 Red. masses --      1.6900                 1.4936                 1.5619
 Frc consts  --      1.8349                 1.6346                 1.8106
 IR Inten    --      8.9340                14.9055                34.0189

                     58                     59                     60
                      A                      A                      A
 Frequencies --   1421.4417              1431.1092              1443.9132
 Red. masses --      1.3129                 1.3141                 1.4361
 Frc consts  --      1.5629                 1.5857                 1.7640
 IR Inten    --     16.4715                 7.1343                 7.8839

                     61                     62                     63
                      A                      A                      A
 Frequencies --   1449.2165              1451.7449              1476.8686
 Red. masses --      1.5987                 1.2421                 1.9065
 Frc consts  --      1.9783                 1.5424                 2.4500
 IR Inten    --     17.5588                 0.0263                98.7427

                     64                     65                     66
                      A                      A                      A
 Frequencies --   1502.3898              1504.5485              1517.0387
 Red. masses --      1.1011                 1.1426                 1.1077
 Frc consts  --      1.4644                 1.5239                 1.5020
 IR Inten    --     23.7212                 6.8408                 2.5592

                     67                     68                     69
                      A                      A                      A
 Frequencies --   1520.3221              1527.4135              1534.6128
 Red. masses --      1.1107                 1.1001                 1.0952
 Frc consts  --      1.5126                 1.5122                 1.5196
 IR Inten    --      4.8717                22.5473                 4.3607

                     70                     71                     72
                      A                      A                      A
 Frequencies --   1538.0908              1553.9889              1557.5189
 Red. masses --      1.0835                 1.2089                 1.1340
 Frc consts  --      1.5103                 1.7200                 1.6208
 IR Inten    --      7.4104                36.0715                16.2273

                     73                     74                     75
                      A                      A                      A
 Frequencies --   1563.4691              1808.6532              2986.1453
 Red. masses --      1.1822                 8.7573                 1.0717
 Frc consts  --      1.7026                16.8783                 5.6306
 IR Inten    --     16.4162               410.9602                51.5694

                     76                     77                     78
                      A                      A                      A
 Frequencies --   3003.2061              3017.0386              3031.7344
 Red. masses --      1.0735                 1.0696                 1.0363
 Frc consts  --      5.7046                 5.7363                 5.6121
 IR Inten    --     59.2325                61.0572                39.4227

                     79                     80                     81
                      A                      A                      A
 Frequencies --   3034.3992              3040.1037              3073.1229
 Red. masses --      1.0720                 1.0370                 1.0890
 Frc consts  --      5.8153                 5.6468                 6.0598
 IR Inten    --     71.8909                41.2682                18.9724

                     82                     83                     84
                      A                      A                      A
 Frequencies --   3090.2416              3093.4662              3096.1053
 Red. masses --      1.1019                 1.0925                 1.1015
 Frc consts  --      6.1998                 6.1599                 6.2213
 IR Inten    --     13.2238                27.0161                49.1117

                     85                     86                     87
                      A                      A                      A
 Frequencies --   3107.1373              3111.2144              3114.8314
 Red. masses --      1.0982                 1.0958                 1.0894
 Frc consts  --      6.2469                 6.2494                 6.2272
 IR Inten    --     16.3400                45.6141                45.7403

                     88                     89                     90
                      A                      A                      A
 Frequencies --   3120.1881              3130.9521              3136.0124
 Red. masses --      1.0998                 1.0569                 1.0935
 Frc consts  --      6.3084                 6.1044                 6.3360
 IR Inten    --     31.0208                19.9150                22.6236

                     91                     92                     93
                      A                      A                      A
 Frequencies --   3220.3040              3560.4667              3617.0114
 Red. masses --      1.1152                 1.0736                 1.0772
 Frc consts  --      6.8139                 8.0191                 8.3029
 IR Inten    --     14.4345                26.0309                25.1421

 - Thermochemistry -
 -------------------
 Temperature   298.150 Kelvin.  Pressure   1.00000 Atm.
 Atom     1 has atomic number  6 and mass  12.00000

 Molecular mass:   197.15281 amu.
 Principal axes and moments of inertia in atomic units:
                           1         2         3
     Eigenvalues --  1614.428054125.821224381.10526
           X            0.99990   0.00850  -0.01158
           Y           -0.00904   0.99883  -0.04747
           Z            0.01116   0.04757   0.99881
 This molecule is an asymmetric top.
 Rotational symmetry number  1.
 Warning -- assumption of classical behavior for rotation
           may cause significant error
 Rotational temperatures (Kelvin)      0.05365     0.02099     0.01977
 Rotational constants (GHZ):           1.11788     0.43743     0.41194
 Zero-point vibrational energy     774251.0 (Joules/Mol)
                                  185.05044 (Kcal/Mol)
 Warning -- explicit consideration of  21 degrees of freedom as
           vibrations may cause significant error
 Vibrational temperatures:     43.37    70.24    73.18   164.98   214.94
          (Kelvin)            235.88   295.32   310.51   319.35   348.43
                              351.32   387.02   422.87   479.72   530.22
                              550.15   657.24   691.71   705.81   806.08
                              829.11   971.42  1000.32  1050.90  1069.89
                             1075.63  1124.09  1207.71  1264.80  1277.66
                             1326.24  1352.17  1372.18  1400.20  1406.07
                             1415.59  1480.01  1501.75  1552.22  1554.55
                             1580.97  1605.29  1642.34  1654.27  1691.70
                             1695.94  1752.08  1780.91  1795.53  1812.29
                             1859.25  1875.21  1894.62  1927.21  1953.09
                             1960.88  2018.15  2045.14  2059.05  2077.47
                             2085.10  2088.74  2124.88  2161.60  2164.71
                             2182.68  2187.40  2197.61  2207.97  2212.97
                             2235.84  2240.92  2249.48  2602.25  4296.40
                             4320.94  4340.85  4361.99  4365.82  4374.03
                             4421.54  4446.17  4450.81  4454.60  4470.48
                             4476.34  4481.55  4489.25  4504.74  4512.02
                             4633.30  5122.72  5204.07

 Zero-point correction=                           0.294897 (Hartree/Particle)
 Thermal correction to Energy=                    0.309385
 Thermal correction to Enthalpy=                  0.310329
 Thermal correction to Gibbs Free Energy=         0.253116
 Sum of electronic and zero-point Energies=           -631.728517
 Sum of electronic and thermal Energies=              -631.714029
 Sum of electronic and thermal Enthalpies=            -631.713085
 Sum of electronic and thermal Free Energies=         -631.770297

                     E (Thermal)             CV                S
                      KCal/Mol        Cal/Mol-Kelvin    Cal/Mol-Kelvin
 Total                  194.142             55.285            120.414
 Electronic               0.000              0.000              0.000
 Translational            0.889              2.981             41.741
 Rotational               0.889              2.981             31.746
 Vibrational            192.364             49.323             46.927
 Vibration     1          0.594              1.984              5.820
 Vibration     2          0.595              1.978              4.865
 Vibration     3          0.595              1.977              4.784
 Vibration     4          0.608              1.937              3.188
 Vibration     5          0.618              1.903              2.680
 Vibration     6          0.623              1.887              2.504
 Vibration     7          0.640              1.832              2.085
 Vibration     8          0.645              1.817              1.994
 Vibration     9          0.648              1.808              1.943
 Vibration    10          0.658              1.776              1.787
 Vibration    11          0.660              1.772              1.772
 Vibration    12          0.673              1.730              1.603
 Vibration    13          0.689              1.685              1.451
 Vibration    14          0.715              1.609              1.243
 Vibration    15          0.741              1.537              1.086
 Vibration    16          0.752              1.508              1.030
 Vibration    17          0.815              1.346              0.775
 Vibration    18          0.837              1.293              0.708
 Vibration    19          0.846              1.271              0.682
 Vibration    20          0.916              1.117              0.523
 Vibration    21          0.933              1.083              0.492

 Optimization completed.
    -- Stationary point found.
 Normal termination of Gaussian 16 at Thu Dec 10 09:43:23 2020.

 ----------------------------------------------------------------------
 # B3LYP/6-311++G(d,p) empiricaldispersion=gd3bj scf=xqc pop=npa geom=c
 heck
 ----------------------------------------------------------------------

 --------------------------------------
 CID_61895646_JID_4225_Energie_neutraal
 --------------------------------------
 Structure from the checkpoint file:  "JID_4225.chk"
 Charge =  0 Multiplicity = 1

 SCF Done:  E(RB3LYP) =  -632.206088022     A.U. after   14 cycles
 Normal termination of Gaussian 16 at Thu Dec 10 09:47:50 2020.

 ----------------------------------------------------------------------
 # B3LYP/6-311++G(d,p) empiricaldispersion=gd3bj scf=xqc pop=npa geom=c
 heck
 ----------------------------------------------------------------------

 ------------------------------------
 CID_61895646_JID_4225_Energie_kation
 ------------------------------------
 Structure from the checkpoint file:  "JID_4225.chk"
 Charge =  1 Multiplicity = 2

 SCF Done:  E(UB3LYP) =  -631.929836762     A.U. after   23 cycles
 Normal termination of Gaussian 16 at Thu Dec 10 09:58:08 2020.
 Gaussian 16:  ES64L-G16RevA.03 25-Dec-2016

 ----------------------------------------------------------------------
 # B3LYP/6-311++G(d,p) empiricaldispersion=gd3bj scf=xqc pop=npa geom=c
 heck
 ----------------------------------------------------------------------

 -----------------------------------
 CID_61895646_JID_4225_Energie_anion
 -----------------------------------
 Structure from the checkpoint file:  "JID_4225.chk"
 Charge = -1 Multiplicity = 2

                         Standard orientation:
 ---------------------------------------------------------------------
 Center     Atomic      Atomic             Coordinates (Angstroms)
 Number     Number       Type             X           Y           Z
 ---------------------------------------------------------------------
      1          6           0        2.150385    1.532711   -1.000036
      2          6           0        2.584383    0.605418    0.121991
      3          6           0        1.590138    0.319945    1.230434
      4          6           0        1.971467   -0.768347    0.223658
      5          7           0        1.110787   -1.276824   -0.802791
      6          6           0        0.051498   -2.178903   -0.392174
      7          6           0       -0.943895   -1.677972    0.672926
      8          7           0       -1.575933   -0.391328    0.405030
      9          6           0       -2.474561    0.152450    1.414617
     10          6           0       -2.939099    1.468167    0.768732
     11          7           0       -2.833060    1.128886   -0.644847
     12          6           0       -1.858205    0.151345   -0.834660
     13          8           0       -1.352435   -0.130483   -1.915070
     14          6           0        4.047881    0.747565    0.496388
     15          1           0        1.078201    1.466450   -1.210063
     16          1           0        2.367850    2.574747   -0.733625
     17          1           0        2.687700    1.306499   -1.929467
     18          1           0        1.956811    0.239064    2.251966
     19          1           0        0.600814    0.757710    1.133896
     20          1           0        2.633955   -1.540091    0.618627
     21          1           0        0.705656   -0.551214   -1.384637
     22          1           0       -0.494649   -2.465199   -1.293135
     23          1           0        0.497964   -3.093343    0.023859
     24          1           0       -1.720713   -2.448896    0.810591
     25          1           0       -0.423814   -1.570790    1.631652
     26          1           0       -1.952613    0.307332    2.364449
     27          1           0       -3.322830   -0.527403    1.592523
     28          1           0       -2.268968    2.295441    1.046543
     29          1           0       -3.961018    1.734787    1.051756
     30          1           0       -2.845176    1.859021   -1.344823
     31          1           0        4.268450    1.768001    0.836330
     32          1           0        4.323165    0.059921    1.303659
     33          1           0        4.696198    0.532432   -0.362545
 ---------------------------------------------------------------------

 SCF Done:  E(UB3LYP) =  -632.194894324     A.U. after   30 cycles

 The electronic state is 2-A.
 Alpha  occ. eigenvalues --  -18.98728 -14.23965 -14.22866 -14.19188 -10.19390
 Alpha  occ. eigenvalues --  -10.11030 -10.10838 -10.10834 -10.09849 -10.09682
 Alpha  occ. eigenvalues --  -10.08782 -10.07136 -10.06671 -10.05983  -0.95379
 Alpha  occ. eigenvalues --   -0.86961  -0.82130  -0.79644  -0.74578  -0.65707
 Alpha  occ. eigenvalues --   -0.63538  -0.62409  -0.59856  -0.55284  -0.53435
 Alpha  occ. eigenvalues --   -0.49661  -0.45996  -0.45123  -0.41448  -0.41141
 Alpha  occ. eigenvalues --   -0.39122  -0.38495  -0.36676  -0.36459  -0.34636
 Alpha  occ. eigenvalues --   -0.33854  -0.32619  -0.31637  -0.31098  -0.30753
 Alpha  occ. eigenvalues --   -0.30317  -0.29929  -0.28862  -0.28233  -0.27724
 Alpha  occ. eigenvalues --   -0.27171  -0.25358  -0.24637  -0.21164  -0.17984
 Alpha  occ. eigenvalues --   -0.17385  -0.16054  -0.14322  -0.11188   0.04268
 Alpha virt. eigenvalues --    0.06375   0.06880   0.07892   0.08333   0.08643
 Alpha virt. eigenvalues --    0.09467   0.09724   0.10428   0.10762   0.11175
 Alpha virt. eigenvalues --    0.11669   0.12512   0.12962   0.13623   0.13677

  Beta  occ. eigenvalues --  -18.98725 -14.23964 -14.22847 -14.19185 -10.19389
  Beta  occ. eigenvalues --  -10.10993 -10.10818 -10.10787 -10.09843 -10.09678
  Beta  occ. eigenvalues --  -10.08781 -10.07123 -10.06658 -10.05963  -0.95370
  Beta  occ. eigenvalues --   -0.86944  -0.82119  -0.79617  -0.74568  -0.65660
  Beta  occ. eigenvalues --   -0.63492  -0.62381  -0.59832  -0.55251  -0.53347
  Beta  occ. eigenvalues --   -0.49626  -0.45954  -0.45095  -0.41376  -0.41103
  Beta  occ. eigenvalues --   -0.39104  -0.38470  -0.36635  -0.36417  -0.34603
  Beta  occ. eigenvalues --   -0.33827  -0.32582  -0.31617  -0.31074  -0.30726
  Beta  occ. eigenvalues --   -0.30286  -0.29899  -0.28838  -0.28202  -0.27691
  Beta  occ. eigenvalues --   -0.27127  -0.25341  -0.24624  -0.21145  -0.17967
  Beta  occ. eigenvalues --   -0.17370  -0.16034  -0.14297  -0.11165
  Beta virt. eigenvalues --    0.06408   0.07272   0.07566   0.08498   0.08934
  Beta virt. eigenvalues --    0.09159   0.09724   0.10199   0.10801   0.10974
  Beta virt. eigenvalues --    0.11686   0.12134   0.12751   0.13073   0.13767

 Mulliken charges and spin densities:
               1          2
     1  C   -0.528829  -0.087213
     2  C    0.367020   0.221856
     3  C   -0.520246  -0.124157
     4  C   -0.568066   0.204697
     5  N   -0.011707  -0.028636
     6  C   -0.321781  -0.130138
     7  C   -0.041683  -0.113888
     8  N    0.004059   0.059084
     9  C    0.246786  -0.429026
    10  C    1.719029  -2.097771
    11  N   -0.372514   0.265990
    12  C    0.268929  -0.306468
    13  O   -0.428138   0.019251
    14  C    0.464311  -1.012918
    15  H    0.042875   0.104907
    16  H   -0.085603   0.216793
    17  H    0.111314   0.032657
    18  H   -0.698004   0.870728
    19  H    0.967244  -0.795986
    20  H    0.065812   0.131253
    21  H    0.236898   0.004819
    22  H    0.232493  -0.024649
    23  H   -0.004127   0.139711
    24  H   -0.125833   0.284918
    25  H    0.070567   0.114356
    26  H   -0.417852   0.588500
    27  H   -0.300666   0.475215
    28  H   -0.488088   0.661742
    29  H   -0.916694   1.112284
    30  H   -0.052884   0.332278
    31  H    0.031639   0.104844
    32  H   -0.018592   0.138989
    33  H    0.072330   0.065975
 Sum of Mulliken charges =  -1.00000   1.00000

 Dipole moment (field-independent basis, Debye):
    X=              5.1291    Y=             -3.2794    Z=             -3.1756  Tot=              6.8663
 Quadrupole moment (field-independent basis, Debye-Ang):
   XX=           -157.7035   YY=           -125.1699   ZZ=           -135.0653
   XY=             10.4457   XZ=              6.2207   YZ=             -6.0539

 Summary of Natural Population Analysis:

                                       Natural Population
                Natural  -----------------------------------------------
    Atom  No    Charge         Core      Valence    Rydberg      Total
 -----------------------------------------------------------------------
      C    1   -0.28466      0.99962     2.27868    0.00636     3.28466
      C    2   -0.05149      0.99956     2.04106    0.01088     3.05149
      C    3   -0.21124      0.99957     2.20123    0.01043     3.21124
      C    4   -0.00727      0.99952     1.99432    0.01343     3.00727
      N    5   -0.34467      0.99972     2.83321    0.01173     3.84467
      C    6   -0.08897      0.99962     2.07752    0.01182     3.08897
      C    7   -0.08769      0.99961     2.07746    0.01062     3.08769
      N    8   -0.26935      0.99964     2.75894    0.01077     3.76935
      C    9   -0.07838      0.99963     2.06793    0.01082     3.07838
      C   10   -0.08656      0.99964     2.07572    0.01120     3.08656
      N   11   -0.32867      0.99969     2.81865    0.01032     3.82867
      C   12    0.40997      0.99966     1.56590    0.02447     2.59003
      O   13   -0.34523      0.99987     3.34001    0.00535     4.34523
      C   14   -0.27588      0.99963     2.27150    0.00476     3.27588
      H   15    0.10530      0.00000     0.39354    0.00115     0.39470
      H   16    0.10049      0.00000     0.39862    0.00088     0.39951
      H   17    0.09782      0.00000     0.40144    0.00074     0.40218
      H   18    0.10104      0.00000     0.39750    0.00146     0.39896
      H   19    0.10724      0.00000     0.39034    0.00242     0.39276
      H   20    0.09144      0.00000     0.40736    0.00120     0.40856
      H   21    0.19294      0.00000     0.30393    0.00313     0.30706
      H   22    0.10270      0.00000     0.39629    0.00101     0.39730
      H   23    0.08921      0.00000     0.40989    0.00090     0.41079
      H   24    0.09078      0.00000     0.40802    0.00120     0.40922
      H   25    0.09799      0.00000     0.40034    0.00167     0.40201
      H   26    0.10195      0.00000     0.39536    0.00269     0.39805
      H   27    0.09021      0.00000     0.40774    0.00205     0.40979
      H   28    0.09091      0.00000     0.40554    0.00355     0.40909
      H   29    0.10170      0.00000     0.39359    0.00471     0.39830
      H   30    0.19554      0.00000     0.30231    0.00215     0.30446
      H   31    0.09724      0.00000     0.40174    0.00102     0.40276
      H   32    0.09931      0.00000     0.39969    0.00100     0.40069
      H   33    0.09627      0.00000     0.40280    0.00093     0.40373
 =======================================================================
   * Total *   -0.00000     13.99499    39.81817    0.18684    54.00000

 Normal termination of Gaussian 16 at Thu Dec 10 10:12:55 2020.
