 Gaussian 16, Revision A.03,

 -----------------------------------------------------------
 # opt freq B3LYP/6-31G(d) empiricaldispersion=gd3bj scf=xqc
 -----------------------------------------------------------

 -------------------------------
 CID_104033018_JID_3899_neutraal
 -------------------------------
 Symbolic Z-matrix:
 Charge =  0 Multiplicity = 1

 SCF Done:  E(RB3LYP) =  -554.358398811     A.U. after   14 cycles
 SCF Done:  E(RB3LYP) =  -554.363533062     A.U. after   12 cycles
 SCF Done:  E(RB3LYP) =  -554.364824099     A.U. after   12 cycles
 SCF Done:  E(RB3LYP) =  -554.366443917     A.U. after   13 cycles
 SCF Done:  E(RB3LYP) =  -554.366895626     A.U. after   12 cycles
 SCF Done:  E(RB3LYP) =  -554.367268590     A.U. after   11 cycles
 SCF Done:  E(RB3LYP) =  -554.367365533     A.U. after   10 cycles
 SCF Done:  E(RB3LYP) =  -554.367413214     A.U. after   10 cycles
 SCF Done:  E(RB3LYP) =  -554.367441757     A.U. after   10 cycles
 SCF Done:  E(RB3LYP) =  -554.367450224     A.U. after   10 cycles
 SCF Done:  E(RB3LYP) =  -554.367452644     A.U. after    9 cycles
 SCF Done:  E(RB3LYP) =  -554.367452973     A.U. after    7 cycles
 SCF Done:  E(RB3LYP) =  -554.367453046     A.U. after    7 cycles
 Optimization completed.
    -- Stationary point found.
 Normal termination of Gaussian 16 at Mon Dec 14 13:09:04 2020.

 --------------------------------------------------------------------
 #N Geom=AllCheck Guess=TCheck SCRF=Check GenChk RB3LYP/6-31G(d) Freq
 --------------------------------------------------------------------

 Structure from the checkpoint file:  "JID_3899.chk"
 -------------------------------
 CID_104033018_JID_3899_neutraal
 -------------------------------
 Charge =  0 Multiplicity = 1

 SCF Done:  E(RB3LYP) =  -554.367453046     A.U. after    1 cycles

  Exact polarizability: 147.336   6.060 138.950  15.500  -7.088  81.090
 Approx polarizability: 211.803  18.005 212.244  36.143  -9.744 123.793

                      1                      2                      3
                      A                      A                      A
 Frequencies --     27.8941                49.6778                59.2834
 Red. masses --      3.3728                 3.1295                 3.2982
 Frc consts  --      0.0015                 0.0046                 0.0068
 IR Inten    --      0.4904                 0.7109                 0.4198

                      4                      5                      6
                      A                      A                      A
 Frequencies --    100.6811               153.8322               179.0926
 Red. masses --      3.2490                 2.1225                 2.0717
 Frc consts  --      0.0194                 0.0296                 0.0392
 IR Inten    --      9.6638                 1.2669                 1.0671

                      7                      8                      9
                      A                      A                      A
 Frequencies --    202.1817               244.5330               255.2889
 Red. masses --      2.6651                 2.3177                 3.4641
 Frc consts  --      0.0642                 0.0817                 0.1330
 IR Inten    --      3.2044                 0.4061                 1.7452

                     10                     11                     12
                      A                      A                      A
 Frequencies --    269.5416               354.2190               380.0040
 Red. masses --      2.8654                 2.3766                 2.4160
 Frc consts  --      0.1227                 0.1757                 0.2055
 IR Inten    --      3.7724                 0.4663                 0.1741

                     13                     14                     15
                      A                      A                      A
 Frequencies --    442.2206               466.7737               495.3426
 Red. masses --      1.6232                 2.5135                 2.4317
 Frc consts  --      0.1870                 0.3227                 0.3515
 IR Inten    --     80.0251                 5.7408               106.0350

                     16                     17                     18
                      A                      A                      A
 Frequencies --    506.9998               537.9812               602.7681
 Red. masses --      3.0026                 3.4227                 1.9132
 Frc consts  --      0.4547                 0.5836                 0.4095
 IR Inten    --      2.7725                40.9269                13.5425

                     19                     20                     21
                      A                      A                      A
 Frequencies --    616.7733               671.2769               747.6200
 Red. masses --      2.5394                 4.2315                 2.3066
 Frc consts  --      0.5692                 1.1234                 0.7596
 IR Inten    --     47.6951                 7.5183                 3.3936

                     22                     23                     24
                      A                      A                      A
 Frequencies --    772.6283               776.4001               783.5104
 Red. masses --      2.5603                 1.3600                 1.3868
 Frc consts  --      0.9005                 0.4830                 0.5016
 IR Inten    --      0.9817                 3.1034                17.6716

                     25                     26                     27
                      A                      A                      A
 Frequencies --    808.9475               819.8230               848.8735
 Red. masses --      1.7767                 2.0544                 1.6619
 Frc consts  --      0.6850                 0.8135                 0.7056
 IR Inten    --     18.6960                36.2417                16.0799

                     28                     29                     30
                      A                      A                      A
 Frequencies --    913.1651               955.5488               967.3269
 Red. masses --      1.8370                 2.3978                 1.3402
 Frc consts  --      0.9025                 1.2900                 0.7389
 IR Inten    --      1.4067                12.7223                 0.6774

                     31                     32                     33
                      A                      A                      A
 Frequencies --    979.6004              1001.4236              1037.3529
 Red. masses --      2.7392                 6.9869                 2.1673
 Frc consts  --      1.5487                 4.1283                 1.3741
 IR Inten    --     18.8486                 6.4541                 9.8839

                     34                     35                     36
                      A                      A                      A
 Frequencies --   1067.4030              1084.1111              1102.1643
 Red. masses --      1.4198                 1.3575                 3.4636
 Frc consts  --      0.9531                 0.9400                 2.4789
 IR Inten    --      7.7738                 5.6452                47.7056

                     37                     38                     39
                      A                      A                      A
 Frequencies --   1112.7466              1137.7195              1142.9656
 Red. masses --      1.9802                 1.4005                 1.1591
 Frc consts  --      1.4446                 1.0681                 0.8921
 IR Inten    --      1.8875                 0.0227                 1.2354

                     40                     41                     42
                      A                      A                      A
 Frequencies --   1166.6733              1189.2351              1205.7090
 Red. masses --      1.3047                 1.7021                 1.9223
 Frc consts  --      1.0463                 1.4183                 1.6465
 IR Inten    --     11.0694                13.8405                 9.4549

                     43                     44                     45
                      A                      A                      A
 Frequencies --   1207.7701              1239.4550              1270.9633
 Red. masses --      1.4167                 1.8411                 2.4796
 Frc consts  --      1.2175                 1.6664                 2.3600
 IR Inten    --      1.5279                 5.7247               121.5478

                     46                     47                     48
                      A                      A                      A
 Frequencies --   1291.1619              1322.6715              1343.1041
 Red. masses --      1.4327                 1.6236                 2.1345
 Frc consts  --      1.4072                 1.6735                 2.2686
 IR Inten    --      7.2348                28.9155                17.3986

                     49                     50                     51
                      A                      A                      A
 Frequencies --   1364.4421              1387.1764              1439.9887
 Red. masses --      1.9134                 1.3329                 1.5679
 Frc consts  --      2.0987                 1.5112                 1.9156
 IR Inten    --     32.3061                 9.4563                 7.2326

                     52                     53                     54
                      A                      A                      A
 Frequencies --   1474.4184              1486.4037              1498.3352
 Red. masses --      1.4935                 1.6113                 1.0881
 Frc consts  --      1.9129                 2.0975                 1.4393
 IR Inten    --     51.0183                 5.5926                 0.8058

                     55                     56                     57
                      A                      A                      A
 Frequencies --   1511.8460              1514.8850              1531.5255
 Red. masses --      1.0863                 1.1599                 1.6806
 Frc consts  --      1.4629                 1.5682                 2.3226
 IR Inten    --     11.7073                 4.6511                29.5665

                     58                     59                     60
                      A                      A                      A
 Frequencies --   1534.2891              1543.1922              1555.2068
 Red. masses --      1.8407                 1.4442                 1.2184
 Frc consts  --      2.5530                 2.0264                 1.7363
 IR Inten    --     28.4978                11.3126                40.0875

                     61                     62                     63
                      A                      A                      A
 Frequencies --   1576.5250              1635.9417              1667.8743
 Red. masses --      2.3810                 3.6731                 5.3336
 Frc consts  --      3.4867                 5.7919                 8.7417
 IR Inten    --    243.2975               191.9162               450.6110

                     64                     65                     66
                      A                      A                      A
 Frequencies --   2997.0153              3054.5030              3060.7491
 Red. masses --      1.0512                 1.0653                 1.0903
 Frc consts  --      5.5632                 5.8558                 6.0181
 IR Inten    --     72.0773                52.6292                45.9408

                     67                     68                     69
                      A                      A                      A
 Frequencies --   3101.3675              3140.1802              3140.5186
 Red. masses --      1.0982                 1.0966                 1.0855
 Frc consts  --      6.2233                 6.3712                 6.3078
 IR Inten    --      8.4998                31.6264                22.2231

                     70                     71                     72
                      A                      A                      A
 Frequencies --   3143.7281              3157.5642              3160.9125
 Red. masses --      1.0575                 1.0881                 1.0577
 Frc consts  --      6.1577                 6.3920                 6.2263
 IR Inten    --     19.7520                39.4742                 8.6210

                     73                     74                     75
                      A                      A                      A
 Frequencies --   3192.9250              3220.5629              3238.7063
 Red. masses --      1.0935                 1.1179                 1.0946
 Frc consts  --      6.5680                 6.8317                 6.7647
 IR Inten    --     23.9527                 6.7262                13.9491

                     76                     77                     78
                      A                      A                      A
 Frequencies --   3243.8374              3585.9114              3617.2796
 Red. masses --      1.1094                 1.0754                 1.0762
 Frc consts  --      6.8782                 8.1472                 8.2967
 IR Inten    --     17.2233                 9.8409                33.3025

 - Thermochemistry -
 -------------------
 Temperature   298.150 Kelvin.  Pressure   1.00000 Atm.
 Atom     1 has atomic number  6 and mass  12.00000

 Molecular mass:   177.12660 amu.
 Principal axes and moments of inertia in atomic units:
                           1         2         3
     Eigenvalues --  1605.527273418.487094451.65131
           X            0.99993   0.01078  -0.00555
           Y           -0.01087   0.99981  -0.01638
           Z            0.00537   0.01644   0.99985
 This molecule is an asymmetric top.
 Rotational symmetry number  1.
 Warning -- assumption of classical behavior for rotation
           may cause significant error
 Rotational temperatures (Kelvin)      0.05395     0.02534     0.01946
 Rotational constants (GHZ):           1.12408     0.52794     0.40541
 Zero-point vibrational energy     638149.4 (Joules/Mol)
                                  152.52137 (Kcal/Mol)
 Warning -- explicit consideration of  19 degrees of freedom as
           vibrations may cause significant error
 Vibrational temperatures:     40.13    71.48    85.30   144.86   221.33
          (Kelvin)            257.67   290.89   351.83   367.30   387.81
                              509.64   546.74   636.26   671.58   712.69
                              729.46   774.03   867.25   887.40   965.82
                             1075.66  1111.64  1117.07  1127.30  1163.89
                             1179.54  1221.34  1313.84  1374.82  1391.77
                             1409.43  1440.83  1492.52  1535.75  1559.79
                             1585.77  1600.99  1636.92  1644.47  1678.58
                             1711.04  1734.75  1737.71  1783.30  1828.63
                             1857.69  1903.03  1932.43  1963.13  1995.84
                             2071.82  2121.36  2138.60  2155.77  2175.21
                             2179.58  2203.52  2207.50  2220.31  2237.60
                             2268.27  2353.76  2399.70  4312.04  4394.75
                             4403.74  4462.18  4518.02  4518.51  4523.12
                             4543.03  4547.85  4593.91  4633.67  4659.78
                             4667.16  5159.33  5204.46

 Zero-point correction=                           0.243058 (Hartree/Particle)
 Thermal correction to Energy=                    0.255819
 Thermal correction to Enthalpy=                  0.256763
 Thermal correction to Gibbs Free Energy=         0.202754
 Sum of electronic and zero-point Energies=           -554.124395
 Sum of electronic and thermal Energies=              -554.111634
 Sum of electronic and thermal Enthalpies=            -554.110690
 Sum of electronic and thermal Free Energies=         -554.164699

                     E (Thermal)             CV                S
                      KCal/Mol        Cal/Mol-Kelvin    Cal/Mol-Kelvin
 Total                  160.529             48.481            113.672
 Electronic               0.000              0.000              0.000
 Translational            0.889              2.981             41.422
 Rotational               0.889              2.981             31.569
 Vibrational            158.751             42.519             40.681
 Vibration     1          0.593              1.984              5.974
 Vibration     2          0.595              1.978              4.830
 Vibration     3          0.597              1.974              4.481
 Vibration     4          0.604              1.949              3.441
 Vibration     5          0.619              1.898              2.624
 Vibration     6          0.629              1.868              2.338
 Vibration     7          0.639              1.837              2.113
 Vibration     8          0.660              1.772              1.770
 Vibration     9          0.666              1.754              1.694
 Vibration    10          0.674              1.729              1.599
 Vibration    11          0.730              1.567              1.147
 Vibration    12          0.750              1.513              1.039
 Vibration    13          0.802              1.378              0.820
 Vibration    14          0.824              1.324              0.747
 Vibration    15          0.851              1.260              0.670
 Vibration    16          0.862              1.234              0.641
 Vibration    17          0.893              1.166              0.570
 Vibration    18          0.961              1.026              0.445
 Vibration    19          0.976              0.996              0.422

 Optimization completed.
    -- Stationary point found.
 Normal termination of Gaussian 16 at Mon Dec 14 13:15:41 2020.

 ----------------------------------------------------------------------
 # B3LYP/6-311++G(d,p) empiricaldispersion=gd3bj scf=xqc pop=npa geom=c
 heck
 ----------------------------------------------------------------------

 ---------------------------------------
 CID_104033018_JID_3899_Energie_neutraal
 ---------------------------------------
 Structure from the checkpoint file:  "JID_3899.chk"
 Charge =  0 Multiplicity = 1

 SCF Done:  E(RB3LYP) =  -554.523332398     A.U. after   15 cycles
 Normal termination of Gaussian 16 at Mon Dec 14 13:18:11 2020.

 ----------------------------------------------------------------------
 # B3LYP/6-311++G(d,p) empiricaldispersion=gd3bj scf=xqc pop=npa geom=c
 heck
 ----------------------------------------------------------------------

 -------------------------------------
 CID_104033018_JID_3899_Energie_kation
 -------------------------------------
 Structure from the checkpoint file:  "JID_3899.chk"
 Charge =  1 Multiplicity = 2

 SCF Done:  E(UB3LYP) =  -554.253344201     A.U. after   23 cycles
 Normal termination of Gaussian 16 at Mon Dec 14 13:23:21 2020.
 Gaussian 16:  ES64L-G16RevA.03 25-Dec-2016

 ----------------------------------------------------------------------
 # B3LYP/6-311++G(d,p) empiricaldispersion=gd3bj scf=xqc pop=npa geom=c
 heck
 ----------------------------------------------------------------------

 ------------------------------------
 CID_104033018_JID_3899_Energie_anion
 ------------------------------------
 Structure from the checkpoint file:  "JID_3899.chk"
 Charge = -1 Multiplicity = 2

                         Standard orientation:
 ---------------------------------------------------------------------
 Center     Atomic      Atomic             Coordinates (Angstroms)
 Number     Number       Type             X           Y           Z
 ---------------------------------------------------------------------
      1          6           0       -2.070632   -2.687803    0.584983
      2          7           0       -2.561549   -1.552306   -0.161084
      3          6           0       -1.968564   -0.309135   -0.110216
      4          7           0       -2.725188    0.696196   -0.593581
      5          6           0       -2.169021    1.911844   -0.588374
      6          6           0       -0.892518    2.201832   -0.131631
      7          6           0       -0.104900    1.148430    0.378348
      8          6           0       -0.667595   -0.135152    0.390123
      9          7           0        1.146727    1.425746    0.897450
     10          6           0        2.212778    0.439856    1.026306
     11          6           0        2.936642    0.111056   -0.265136
     12          6           0        3.648500   -1.212239   -0.411071
     13          6           0        2.404210   -0.929798   -1.217043
     14          1           0       -1.963250   -2.484103    1.662718
     15          1           0       -1.093533   -3.012370    0.204623
     16          1           0       -2.766206   -3.520561    0.457051
     17          1           0       -3.554521   -1.498311   -0.341225
     18          1           0       -2.792235    2.714305   -0.981779
     19          1           0       -0.510040    3.218207   -0.158859
     20          1           0       -0.117796   -0.980984    0.779475
     21          1           0        1.476521    2.356725    0.676980
     22          1           0        2.928258    0.832308    1.759408
     23          1           0        1.797290   -0.471259    1.468159
     24          1           0        3.426002    0.969738   -0.723874
     25          1           0        4.607611   -1.231104   -0.920338
     26          1           0        3.571298   -1.920607    0.410586
     27          1           0        1.488148   -1.444954   -0.947538
     28          1           0        2.509118   -0.747827   -2.282627
 ---------------------------------------------------------------------

 SCF Done:  E(UB3LYP) =  -554.509895714     A.U. after   33 cycles
 SCF Done:  E(UB3LYP) =  -554.509895713     a.u. after    1 cycles

 The electronic state is 2-A.
 Alpha  occ. eigenvalues --  -14.22901 -14.22450 -14.19013 -10.13872 -10.12610
 Alpha  occ. eigenvalues --  -10.11013 -10.10259 -10.10257 -10.08243 -10.07780
 Alpha  occ. eigenvalues --  -10.07514 -10.06350 -10.06235  -0.86676  -0.84204
 Alpha  occ. eigenvalues --   -0.79897  -0.76418  -0.68718  -0.65251  -0.61047
 Alpha  occ. eigenvalues --   -0.59170  -0.52030  -0.51645  -0.50708  -0.48187
 Alpha  occ. eigenvalues --   -0.44742  -0.41971  -0.40222  -0.38906  -0.37583
 Alpha  occ. eigenvalues --   -0.36851  -0.35530  -0.34808  -0.33552  -0.33057
 Alpha  occ. eigenvalues --   -0.30608  -0.29528  -0.29044  -0.27536  -0.27347
 Alpha  occ. eigenvalues --   -0.26690  -0.23242  -0.20659  -0.19669  -0.19342
 Alpha  occ. eigenvalues --   -0.16312  -0.12057  -0.10981   0.04225
 Alpha virt. eigenvalues --    0.05659   0.06952   0.07666   0.08179   0.08638
 Alpha virt. eigenvalues --    0.08915   0.09799   0.09957   0.10007   0.10527
 Alpha virt. eigenvalues --    0.11177   0.11611   0.12749   0.13201   0.14297

  Beta  occ. eigenvalues --  -14.22878 -14.22441 -14.19013 -10.13873 -10.12611
  Beta  occ. eigenvalues --  -10.10990 -10.10255 -10.10214 -10.08225 -10.07760
  Beta  occ. eigenvalues --  -10.07504 -10.06336 -10.06224  -0.86664  -0.84168
  Beta  occ. eigenvalues --   -0.79883  -0.76391  -0.68700  -0.65228  -0.60999
  Beta  occ. eigenvalues --   -0.59112  -0.52006  -0.51608  -0.50654  -0.48126
  Beta  occ. eigenvalues --   -0.44711  -0.41931  -0.40177  -0.38856  -0.37543
  Beta  occ. eigenvalues --   -0.36798  -0.35505  -0.34775  -0.33516  -0.33033
  Beta  occ. eigenvalues --   -0.30576  -0.29502  -0.29002  -0.27495  -0.27324
  Beta  occ. eigenvalues --   -0.26668  -0.23218  -0.20634  -0.19642  -0.19328
  Beta  occ. eigenvalues --   -0.16307  -0.12036  -0.10968
  Beta virt. eigenvalues --    0.06556   0.07106   0.07517   0.08276   0.08635
  Beta virt. eigenvalues --    0.08730   0.09274   0.10054   0.10191   0.10385
  Beta virt. eigenvalues --    0.10999   0.11741   0.12137   0.13033   0.13568

 Mulliken charges and spin densities:
               1          2
     1  C    1.022898  -1.382341
     2  N   -0.246912   0.109459
     3  C   -1.986936   1.007203
     4  N   -0.172967   0.026451
     5  C    0.193161  -0.568987
     6  C   -0.775698   1.013504
     7  C   -0.634322  -0.687583
     8  C    2.607486  -1.010298
     9  N   -0.161768   0.223065
    10  C    1.841905  -2.520423
    11  C   -1.237246   1.619108
    12  C    0.556272  -1.022681
    13  C   -0.023445  -0.324181
    14  H   -0.195847   0.345194
    15  H   -0.315095   0.461578
    16  H   -0.781273   0.949387
    17  H    0.140890   0.142787
    18  H    0.132822   0.027961
    19  H   -0.401912   0.545642
    20  H    1.005560  -0.853542
    21  H   -0.152176   0.403141
    22  H   -0.302336   0.477029
    23  H   -0.399005   0.565909
    24  H   -0.601697   0.820561
    25  H   -0.162982   0.313543
    26  H   -0.113973   0.240793
    27  H    0.103275  -0.010207
    28  H    0.061320   0.087930
 Sum of Mulliken charges =  -1.00000   1.00000

 Dipole moment (field-independent basis, Debye):
    X=             -1.6839    Y=              1.0732    Z=             -0.9433  Tot=              2.2084
 Quadrupole moment (field-independent basis, Debye-Ang):
   XX=           -148.8873   YY=           -137.4397   ZZ=           -110.9520
   XY=            -16.6352   XZ=             -0.3867   YZ=              1.2733

 Summary of Natural Population Analysis:

                                       Natural Population
                Natural  -----------------------------------------------
    Atom  No    Charge         Core      Valence    Rydberg      Total
 -----------------------------------------------------------------------
      C    1   -0.18019      0.99966     2.17232    0.00821     3.18019
      N    2   -0.31144      0.99967     2.80039    0.01138     3.81144
      C    3    0.20800      0.99954     1.77638    0.01607     2.79200
      N    4   -0.28016      0.99968     2.76994    0.01055     3.78016
      C    5    0.03814      0.99959     1.94852    0.01375     2.96186
      C    6   -0.16881      0.99952     2.15942    0.00987     3.16881
      C    7    0.11728      0.99950     1.87151    0.01170     2.88272
      C    8   -0.18395      0.99948     2.17749    0.00699     3.18395
      N    9   -0.30443      0.99967     2.79248    0.01228     3.80443
      C   10   -0.08640      0.99959     2.07368    0.01314     3.08640
      C   11   -0.12234      0.99958     2.11077    0.01198     3.12234
      C   12   -0.19644      0.99962     2.18895    0.00788     3.19644
      C   13   -0.19606      0.99962     2.18963    0.00682     3.19606
      H   14    0.08855      0.00000     0.40988    0.00157     0.41145
      H   15    0.09345      0.00000     0.40477    0.00178     0.40655
      H   16    0.10184      0.00000     0.39622    0.00193     0.39816
      H   17    0.19073      0.00000     0.30599    0.00328     0.30927
      H   18    0.08647      0.00000     0.41246    0.00107     0.41353
      H   19    0.10266      0.00000     0.39626    0.00109     0.39734
      H   20    0.10539      0.00000     0.39230    0.00231     0.39461
      H   21    0.18726      0.00000     0.30815    0.00459     0.31274
      H   22    0.10167      0.00000     0.39650    0.00183     0.39833
      H   23    0.09521      0.00000     0.40279    0.00201     0.40479
      H   24    0.10444      0.00000     0.39316    0.00240     0.39556
      H   25    0.10266      0.00000     0.39616    0.00118     0.39734
      H   26    0.10046      0.00000     0.39839    0.00114     0.39954
      H   27    0.10436      0.00000     0.39425    0.00139     0.39564
      H   28    0.10166      0.00000     0.39733    0.00101     0.39834
 =======================================================================
   * Total *    0.00000     12.99471    34.83610    0.16919    48.00000

 Normal termination of Gaussian 16 at Mon Dec 14 13:30:57 2020.
