 Gaussian 16, Revision A.03,

 -----------------------------------------------------------
 # opt freq B3LYP/6-31G(d) empiricaldispersion=gd3bj scf=xqc
 -----------------------------------------------------------

 -----------------------------
 CID_6434518_JID_4773_neutraal
 -----------------------------
 Symbolic Z-matrix:
 Charge =  0 Multiplicity = 1

 SCF Done:  E(RB3LYP) =  -585.080495966     A.U. after   13 cycles
 SCF Done:  E(RB3LYP) =  -585.083312684     A.U. after   11 cycles
 SCF Done:  E(RB3LYP) =  -585.083726001     A.U. after   11 cycles
 SCF Done:  E(RB3LYP) =  -585.084101920     A.U. after   11 cycles
 SCF Done:  E(RB3LYP) =  -585.084418767     A.U. after   12 cycles
 SCF Done:  E(RB3LYP) =  -585.084653476     A.U. after   14 cycles
 SCF Done:  E(RB3LYP) =  -585.085408039     A.U. after   12 cycles
 SCF Done:  E(RB3LYP) =  -585.085722840     A.U. after   11 cycles
 SCF Done:  E(RB3LYP) =  -585.084331382     A.U. after   14 cycles
 SCF Done:  E(RB3LYP) =  -585.086015029     A.U. after   14 cycles
 SCF Done:  E(RB3LYP) =  -585.087303106     A.U. after    8 cycles
 SCF Done:  E(RB3LYP) =  -585.087304144     A.U. after    8 cycles
 SCF Done:  E(RB3LYP) =  -585.087304810     A.U. after    7 cycles
 SCF Done:  E(RB3LYP) =  -585.087305002     A.U. after    7 cycles
 SCF Done:  E(RB3LYP) =  -585.087305020     A.U. after    7 cycles
 Optimization completed.
    -- Stationary point found.
 Normal termination of Gaussian 16 at Thu Dec 10 10:44:32 2020.

 --------------------------------------------------------------------
 #N Geom=AllCheck Guess=TCheck SCRF=Check GenChk RB3LYP/6-31G(d) Freq
 --------------------------------------------------------------------

 Structure from the checkpoint file:  "JID_4773.chk"
 -----------------------------
 CID_6434518_JID_4773_neutraal
 -----------------------------
 Charge =  0 Multiplicity = 1

 SCF Done:  E(RB3LYP) =  -585.087305020     A.U. after    1 cycles

  Exact polarizability: 160.593   3.781 136.794   3.326   6.531 124.432
 Approx polarizability: 207.001   9.109 191.979  14.393  13.216 187.335

                      1                      2                      3
                      A                      A                      A
 Frequencies --     29.5998                33.7595                50.0362
 Red. masses --      3.7432                 2.9737                 3.8970
 Frc consts  --      0.0019                 0.0020                 0.0057
 IR Inten    --      0.3262                 0.0660                 0.1555

                      4                      5                      6
                      A                      A                      A
 Frequencies --     72.1296                85.6191               104.9134
 Red. masses --      2.7532                 2.8809                 2.6382
 Frc consts  --      0.0084                 0.0124                 0.0171
 IR Inten    --      0.1125                 0.0848                 0.8045

                      7                      8                      9
                      A                      A                      A
 Frequencies --    125.9440               163.6509               173.3373
 Red. masses --      3.2148                 1.0897                 2.5055
 Frc consts  --      0.0300                 0.0172                 0.0444
 IR Inten    --      0.2298                 0.1936                 0.2035

                     10                     11                     12
                      A                      A                      A
 Frequencies --    220.6913               240.3968               260.3251
 Red. masses --      2.6325                 1.0448                 1.1994
 Frc consts  --      0.0755                 0.0356                 0.0479
 IR Inten    --      0.2185                 0.0461                 0.2878

                     13                     14                     15
                      A                      A                      A
 Frequencies --    266.7781               284.0905               303.6551
 Red. masses --      1.2115                 1.9679                 3.0062
 Frc consts  --      0.0508                 0.0936                 0.1633
 IR Inten    --      0.3354                 5.3658                 1.4368

                     16                     17                     18
                      A                      A                      A
 Frequencies --    309.6159               336.6255               347.4448
 Red. masses --      2.2966                 1.7214                 1.6422
 Frc consts  --      0.1297                 0.1149                 0.1168
 IR Inten    --      0.1490                27.5750                28.9667

                     19                     20                     21
                      A                      A                      A
 Frequencies --    355.1049               383.5045               393.7872
 Red. masses --      2.0763                 2.0257                 1.9919
 Frc consts  --      0.1543                 0.1755                 0.1820
 IR Inten    --      2.9154                15.0947                 3.2229

                     22                     23                     24
                      A                      A                      A
 Frequencies --    409.5340               420.3520               437.6488
 Red. masses --      2.4283                 2.2766                 2.2201
 Frc consts  --      0.2400                 0.2370                 0.2505
 IR Inten    --     14.2551                 2.3102                 4.8182

                     25                     26                     27
                      A                      A                      A
 Frequencies --    487.1048               529.5597               582.7101
 Red. masses --      2.3630                 2.1283                 2.5891
 Frc consts  --      0.3303                 0.3516                 0.5180
 IR Inten    --      2.9059                 2.9182                 6.2410

                     28                     29                     30
                      A                      A                      A
 Frequencies --    621.0782               689.1940               733.3823
 Red. masses --      2.7670                 1.8576                 2.5132
 Frc consts  --      0.6289                 0.5199                 0.7964
 IR Inten    --      3.3491                10.6694                 5.3389

                     31                     32                     33
                      A                      A                      A
 Frequencies --    783.6315               816.7586               870.1625
 Red. masses --      2.6940                 2.6490                 2.0877
 Frc consts  --      0.9747                 1.0412                 0.9314
 IR Inten    --      4.5878                 1.5844                 2.5287

                     34                     35                     36
                      A                      A                      A
 Frequencies --    882.9183               894.6589               915.5185
 Red. masses --      1.6504                 1.5391                 1.8335
 Frc consts  --      0.7580                 0.7258                 0.9055
 IR Inten    --     11.2205                 1.1872                 7.5487

                     37                     38                     39
                      A                      A                      A
 Frequencies --    945.7591               948.8254               950.9390
 Red. masses --      1.1863                 1.8243                 1.4064
 Frc consts  --      0.6252                 0.9677                 0.7493
 IR Inten    --      5.0693                 7.7678                26.6159

                     40                     41                     42
                      A                      A                      A
 Frequencies --    969.1254               978.5782               987.0757
 Red. masses --      1.9507                 1.5285                 1.9927
 Frc consts  --      1.0794                 0.8624                 1.1439
 IR Inten    --      2.0489                 0.9957                 9.4673

                     43                     44                     45
                      A                      A                      A
 Frequencies --   1003.6367              1026.6618              1039.9424
 Red. masses --      1.9560                 1.5260                 1.2211
 Frc consts  --      1.1609                 0.9477                 0.7781
 IR Inten    --      3.3714                14.2160                 9.1945

                     46                     47                     48
                      A                      A                      A
 Frequencies --   1048.4945              1070.5768              1088.7105
 Red. masses --      1.2880                 1.4479                 1.9584
 Frc consts  --      0.8342                 0.9778                 1.3677
 IR Inten    --      5.2030                 1.7608                 2.6821

                     49                     50                     51
                      A                      A                      A
 Frequencies --   1128.0773              1139.3805              1151.6482
 Red. masses --      1.9883                 1.6801                 2.1425
 Frc consts  --      1.4908                 1.2850                 1.6742
 IR Inten    --      8.8236                45.6094                 1.3399

                     52                     53                     54
                      A                      A                      A
 Frequencies --   1167.0291              1205.1443              1207.7696
 Red. masses --      1.8572                 1.8960                 1.7866
 Frc consts  --      1.4903                 1.6224                 1.5355
 IR Inten    --      5.4075                 7.3411                14.7783

                     55                     56                     57
                      A                      A                      A
 Frequencies --   1220.8498              1267.6352              1281.2808
 Red. masses --      2.2107                 1.4294                 1.3575
 Frc consts  --      1.9414                 1.3533                 1.3130
 IR Inten    --     16.5068                 6.1352                 1.7674

                     58                     59                     60
                      A                      A                      A
 Frequencies --   1306.3937              1331.9101              1337.1690
 Red. masses --      1.6369                 1.3384                 1.3496
 Frc consts  --      1.6460                 1.3989                 1.4218
 IR Inten    --      4.4509                 0.2802                10.1353

                     61                     62                     63
                      A                      A                      A
 Frequencies --   1357.1065              1381.2399              1384.7686
 Red. masses --      1.3920                 1.2882                 1.4325
 Frc consts  --      1.5105                 1.4480                 1.6184
 IR Inten    --     43.4875                 0.8959                 1.3124

                     64                     65                     66
                      A                      A                      A
 Frequencies --   1389.2891              1405.1172              1422.8150
 Red. masses --      1.3596                 1.4879                 1.3287
 Frc consts  --      1.5462                 1.7308                 1.5848
 IR Inten    --      2.3833                 6.2396                 1.2374

                     67                     68                     69
                      A                      A                      A
 Frequencies --   1427.7266              1432.5295              1445.0569
 Red. masses --      1.2848                 1.2728                 1.2637
 Frc consts  --      1.5430                 1.5389                 1.5547
 IR Inten    --      3.7447                 9.0510                 4.8095

                     70                     71                     72
                      A                      A                      A
 Frequencies --   1446.8184              1458.3268              1497.9642
 Red. masses --      1.3610                 1.2075                 1.0831
 Frc consts  --      1.6785                 1.5130                 1.4320
 IR Inten    --      7.3814                 5.1956                 2.2325

                     73                     74                     75
                      A                      A                      A
 Frequencies --   1511.0356              1511.9238              1516.5211
 Red. masses --      1.0650                 1.0774                 1.0658
 Frc consts  --      1.4327                 1.4511                 1.4442
 IR Inten    --      0.9280                 5.1541                 0.9118

                     76                     77                     78
                      A                      A                      A
 Frequencies --   1521.6738              1522.1049              1525.0223
 Red. masses --      1.0535                 1.0572                 1.0620
 Frc consts  --      1.4372                 1.4432                 1.4552
 IR Inten    --      1.2262                 4.4264                 3.3972

                     79                     80                     81
                      A                      A                      A
 Frequencies --   1527.8636              1534.6249              1541.9852
 Red. masses --      1.0616                 1.0540                 1.0629
 Frc consts  --      1.4601                 1.4626                 1.4890
 IR Inten    --      1.5600                 1.7727                 3.7377

                     82                     83                     84
                      A                      A                      A
 Frequencies --   1544.3367              1725.9973              1755.0324
 Red. masses --      1.0591                 4.7529                 6.6473
 Frc consts  --      1.4882                 8.3424                12.0633
 IR Inten    --      9.2080                 3.9946                 2.5770

                     85                     86                     87
                      A                      A                      A
 Frequencies --   3021.6186              3031.6819              3032.0039
 Red. masses --      1.0583                 1.0424                 1.0395
 Frc consts  --      5.6932                 5.6450                 5.6305
 IR Inten    --     22.0477                29.6527                31.3534

                     88                     89                     90
                      A                      A                      A
 Frequencies --   3034.0811              3040.8304              3040.9536
 Red. masses --      1.0623                 1.0582                 1.0616
 Frc consts  --      5.7616                 5.7650                 5.7842
 IR Inten    --     13.1625                37.7914                33.6922

                     91                     92                     93
                      A                      A                      A
 Frequencies --   3047.1206              3052.2533              3062.8505
 Red. masses --      1.0468                 1.0523                 1.1018
 Frc consts  --      5.7263                 5.7762                 6.0901
 IR Inten    --     22.6071                42.5238                26.3833

                     94                     95                     96
                      A                      A                      A
 Frequencies --   3074.9853              3076.6193              3091.8129
 Red. masses --      1.0997                 1.1005                 1.1008
 Frc consts  --      6.1264                 6.1373                 6.1996
 IR Inten    --     30.0827                14.0082                 8.4447

                     97                     98                     99
                      A                      A                      A
 Frequencies --   3099.5680              3100.5470              3104.7499
 Red. masses --      1.1008                 1.0995                 1.1019
 Frc consts  --      6.2311                 6.2274                 6.2583
 IR Inten    --     50.8487                51.2976                50.7591

                    100                    101                    102
                      A                      A                      A
 Frequencies --   3110.8992              3135.2831              3138.7252
 Red. masses --      1.1013                 1.0964                 1.0983
 Frc consts  --      6.2796                 6.3501                 6.3748
 IR Inten    --     28.3623                38.3446                15.7589

                    103                    104                    105
                      A                      A                      A
 Frequencies --   3143.7257              3150.9513              3153.1179
 Red. masses --      1.1000                 1.0819                 1.0884
 Frc consts  --      6.4049                 6.3291                 6.3758
 IR Inten    --     21.6849                21.8462                27.8352

                    106                    107                    108
                      A                      A                      A
 Frequencies --   3172.1166              3250.5035              3718.8854
 Red. masses --      1.0674                 1.1164                 1.0656
 Frc consts  --      6.3280                 6.9499                 8.6832
 IR Inten    --      7.9170                13.3260                 6.6052

 - Thermochemistry -
 -------------------
 Temperature   298.150 Kelvin.  Pressure   1.00000 Atm.
 Atom     1 has atomic number  6 and mass  12.00000

 Molecular mass:   196.18272 amu.
 Principal axes and moments of inertia in atomic units:
                           1         2         3
     Eigenvalues --  1959.205384603.788365340.65548
           X            0.99986   0.01617   0.00482
           Y           -0.01612   0.99982  -0.01039
           Z           -0.00499   0.01031   0.99993
 This molecule is an asymmetric top.
 Rotational symmetry number  1.
 Warning -- assumption of classical behavior for rotation
           may cause significant error
 Rotational temperatures (Kelvin)      0.04421     0.01881     0.01622
 Rotational constants (GHZ):           0.92116     0.39201     0.33793
 Zero-point vibrational energy     909703.8 (Joules/Mol)
                                  217.42443 (Kcal/Mol)
 Warning -- explicit consideration of  27 degrees of freedom as
           vibrations may cause significant error
 Vibrational temperatures:     42.59    48.57    71.99   103.78   123.19
          (Kelvin)            150.95   181.21   235.46   249.39   317.53
                              345.88   374.55   383.83   408.74   436.89
                              445.47   484.33   499.90   510.92   551.78
                              566.57   589.23   604.79   629.68   700.84
                              761.92   838.39   893.59   991.60  1055.17
                             1127.47  1175.13  1251.97  1270.32  1287.21
                             1317.23  1360.74  1365.15  1368.19  1394.36
                             1407.96  1420.18  1444.01  1477.14  1496.25
                             1508.55  1540.32  1566.41  1623.05  1639.31
                             1656.96  1679.09  1733.93  1737.71  1756.53
                             1823.84  1843.48  1879.61  1916.32  1923.89
                             1952.57  1987.30  1992.37  1998.88  2021.65
                             2047.11  2054.18  2061.09  2079.11  2081.65
                             2098.21  2155.24  2174.04  2175.32  2181.94
                             2189.35  2189.97  2194.17  2198.25  2207.98
                             2218.57  2221.96  2483.33  2525.10  4347.44
                             4361.91  4362.38  4365.37  4375.08  4375.25
                             4384.13  4391.51  4406.76  4424.22  4426.57
                             4448.43  4459.59  4461.00  4467.04  4475.89
                             4510.97  4515.93  4523.12  4533.52  4536.63
                             4563.97  4676.75  5350.65

 Zero-point correction=                           0.346488 (Hartree/Particle)
 Thermal correction to Energy=                    0.364032
 Thermal correction to Enthalpy=                  0.364976
 Thermal correction to Gibbs Free Energy=         0.301057
 Sum of electronic and zero-point Energies=           -584.740817
 Sum of electronic and thermal Energies=              -584.723273
 Sum of electronic and thermal Enthalpies=            -584.722329
 Sum of electronic and thermal Free Energies=         -584.786248

                     E (Thermal)             CV                S
                      KCal/Mol        Cal/Mol-Kelvin    Cal/Mol-Kelvin
 Total                  228.434             65.785            134.529
 Electronic               0.000              0.000              0.000
 Translational            0.889              2.981             41.727
 Rotational               0.889              2.981             32.244
 Vibrational            226.656             59.824             60.559
 Vibration     1          0.593              1.984              5.856
 Vibration     2          0.594              1.983              5.595
 Vibration     3          0.595              1.978              4.816
 Vibration     4          0.598              1.967              4.094
 Vibration     5          0.601              1.959              3.758
 Vibration     6          0.605              1.945              3.361
 Vibration     7          0.611              1.927              3.007
 Vibration     8          0.623              1.887              2.507
 Vibration     9          0.627              1.875              2.399
 Vibration    10          0.647              1.810              1.953
 Vibration    11          0.657              1.779              1.800
 Vibration    12          0.668              1.745              1.660
 Vibration    13          0.672              1.734              1.617
 Vibration    14          0.682              1.703              1.509
 Vibration    15          0.695              1.667              1.397
 Vibration    16          0.699              1.655              1.364
 Vibration    17          0.717              1.602              1.228
 Vibration    18          0.725              1.580              1.178
 Vibration    19          0.731              1.565              1.143
 Vibration    20          0.753              1.505              1.025
 Vibration    21          0.761              1.483              0.986
 Vibration    22          0.774              1.450              0.928
 Vibration    23          0.783              1.426              0.891
 Vibration    24          0.798              1.388              0.834
 Vibration    25          0.843              1.279              0.691
 Vibration    26          0.885              1.185              0.588
 Vibration    27          0.940              1.069              0.480

 Optimization completed.
    -- Stationary point found.
 Normal termination of Gaussian 16 at Thu Dec 10 10:56:24 2020.

 ----------------------------------------------------------------------
 # B3LYP/6-311++G(d,p) empiricaldispersion=gd3bj scf=xqc pop=npa geom=c
 heck
 ----------------------------------------------------------------------

 -------------------------------------
 CID_6434518_JID_4773_Energie_neutraal
 -------------------------------------
 Structure from the checkpoint file:  "JID_4773.chk"
 Charge =  0 Multiplicity = 1

 SCF Done:  E(RB3LYP) =  -585.260412152     A.U. after   14 cycles
 Normal termination of Gaussian 16 at Thu Dec 10 11:02:02 2020.

 ----------------------------------------------------------------------
 # B3LYP/6-311++G(d,p) empiricaldispersion=gd3bj scf=xqc pop=npa geom=c
 heck
 ----------------------------------------------------------------------

 -----------------------------------
 CID_6434518_JID_4773_Energie_kation
 -----------------------------------
 Structure from the checkpoint file:  "JID_4773.chk"
 Charge =  1 Multiplicity = 2

 SCF Done:  E(UB3LYP) =  -584.970007259     A.U. after   20 cycles
 Normal termination of Gaussian 16 at Thu Dec 10 11:11:50 2020.
 Gaussian 16:  ES64L-G16RevA.03 25-Dec-2016

 ----------------------------------------------------------------------
 # B3LYP/6-311++G(d,p) empiricaldispersion=gd3bj scf=xqc pop=npa geom=c
 heck
 ----------------------------------------------------------------------

 ----------------------------------
 CID_6434518_JID_4773_Energie_anion
 ----------------------------------
 Structure from the checkpoint file:  "JID_4773.chk"
 Charge = -1 Multiplicity = 2

                         Standard orientation:
 ---------------------------------------------------------------------
 Center     Atomic      Atomic             Coordinates (Angstroms)
 Number     Number       Type             X           Y           Z
 ---------------------------------------------------------------------
      1          6           0        2.077846    1.509567    1.005092
      2          6           0        2.531781    0.970588   -0.355274
      3          6           0        3.792211    1.690010   -0.847445
      4          6           0        2.762014   -0.557999   -0.329503
      5          6           0        1.552462   -1.349882    0.136835
      6          6           0        0.474419   -1.442266   -0.651708
      7          6           0       -0.849875   -2.070570   -0.306562
      8          6           0       -1.823841   -1.128040    0.433653
      9          6           0       -2.257632    0.157400   -0.301857
     10          6           0       -2.769783   -0.128683   -1.723112
     11          6           0       -3.359285    0.818107    0.506328
     12          6           0       -3.199634    1.907945    1.255088
     13          8           0       -1.102816    1.001956   -0.368581
     14          6           0        1.640754   -1.933097    1.523356
     15          1           0        2.813066    1.277496    1.787449
     16          1           0        1.112105    1.082154    1.288432
     17          1           0        1.963333    2.599854    0.972296
     18          1           0        1.717768    1.161527   -1.067678
     19          1           0        4.627166    1.535225   -0.151440
     20          1           0        4.107042    1.320700   -1.831088
     21          1           0        3.626103    2.770731   -0.929953
     22          1           0        3.051946   -0.877920   -1.339291
     23          1           0        3.622492   -0.772486    0.320125
     24          1           0        0.522081   -0.951260   -1.622737
     25          1           0       -1.328984   -2.446754   -1.218805
     26          1           0       -0.704450   -2.947916    0.334901
     27          1           0       -2.732383   -1.691914    0.683300
     28          1           0       -1.373695   -0.812606    1.381274
     29          1           0       -3.604011   -0.839398   -1.711371
     30          1           0       -3.126731    0.796445   -2.191655
     31          1           0       -1.969082   -0.540183   -2.342966
     32          1           0       -4.333891    0.332944    0.448544
     33          1           0       -4.023067    2.340063    1.816114
     34          1           0       -2.230748    2.391316    1.342440
     35          1           0       -1.387309    1.836502   -0.775965
     36          1           0        2.500055   -2.612921    1.605447
     37          1           0        1.800999   -1.140286    2.266008
     38          1           0        0.744109   -2.485438    1.815925
 ---------------------------------------------------------------------

 SCF Done:  E(UB3LYP) =  -585.246345856     A.U. after   33 cycles
 SCF Done:  E(UB3LYP) =  -585.246345856     a.u. after    1 cycles

 The electronic state is 2-A.
 Alpha  occ. eigenvalues --  -19.01644 -10.13177 -10.07313 -10.07287 -10.06971
 Alpha  occ. eigenvalues --  -10.06852 -10.06789 -10.06760 -10.06740 -10.06406
 Alpha  occ. eigenvalues --  -10.06364 -10.05922 -10.05598 -10.05285  -0.92351
 Alpha  occ. eigenvalues --   -0.72936  -0.70821  -0.68640  -0.65757  -0.62613
 Alpha  occ. eigenvalues --   -0.59308  -0.58540  -0.58082  -0.53699  -0.48744
 Alpha  occ. eigenvalues --   -0.46733  -0.45945  -0.41018  -0.39371  -0.38461
 Alpha  occ. eigenvalues --   -0.36885  -0.36376  -0.34556  -0.34185  -0.33623
 Alpha  occ. eigenvalues --   -0.32949  -0.31275  -0.30465  -0.29726  -0.28844
 Alpha  occ. eigenvalues --   -0.28712  -0.28167  -0.28061  -0.26889  -0.26140
 Alpha  occ. eigenvalues --   -0.25945  -0.24665  -0.23843  -0.23501  -0.22334
 Alpha  occ. eigenvalues --   -0.21979  -0.21047  -0.18349  -0.16347  -0.12946
 Alpha  occ. eigenvalues --    0.04357
 Alpha virt. eigenvalues --    0.06301   0.06918   0.07427   0.08150   0.08313
 Alpha virt. eigenvalues --    0.08822   0.09201   0.09639   0.10091   0.10248
 Alpha virt. eigenvalues --    0.10728   0.11111   0.11466   0.11872   0.12161

  Beta  occ. eigenvalues --  -19.01613 -10.13174 -10.07300 -10.07280 -10.06968
  Beta  occ. eigenvalues --  -10.06838 -10.06773 -10.06754 -10.06725 -10.06390
  Beta  occ. eigenvalues --  -10.06337 -10.05881 -10.05594 -10.05270  -0.92281
  Beta  occ. eigenvalues --   -0.72920  -0.70790  -0.68617  -0.65728  -0.62569
  Beta  occ. eigenvalues --   -0.59279  -0.58508  -0.58042  -0.53655  -0.48691
  Beta  occ. eigenvalues --   -0.46694  -0.45889  -0.40989  -0.39325  -0.38427
  Beta  occ. eigenvalues --   -0.36852  -0.36343  -0.34537  -0.34152  -0.33595
  Beta  occ. eigenvalues --   -0.32907  -0.31251  -0.30442  -0.29692  -0.28823
  Beta  occ. eigenvalues --   -0.28680  -0.28141  -0.28025  -0.26865  -0.26112
  Beta  occ. eigenvalues --   -0.25917  -0.24641  -0.23817  -0.23480  -0.22308
  Beta  occ. eigenvalues --   -0.21948  -0.21025  -0.18318  -0.16306  -0.12928
  Beta virt. eigenvalues --    0.06234   0.07085   0.07347   0.07839   0.08690
  Beta virt. eigenvalues --    0.08842   0.09085   0.09403   0.09822   0.10238
  Beta virt. eigenvalues --    0.10741   0.10998   0.11431   0.11682   0.12085

 Mulliken charges and spin densities:
               1          2
     1  C   -0.141799  -0.640706
     2  C   -0.338982   1.047043
     3  C    0.147312  -0.760672
     4  C   -0.521460  -0.581271
     5  C    0.953468  -0.270768
     6  C   -0.784396   0.783037
     7  C   -0.053713  -0.222290
     8  C    1.340280  -2.060647
     9  C   -0.690100   0.997731
    10  C    1.239101  -1.952817
    11  C   -1.987596   2.203202
    12  C    1.558673  -2.170529
    13  O   -0.145825   0.023949
    14  C    0.263188  -0.955996
    15  H    0.007603   0.122677
    16  H    0.201440  -0.031452
    17  H    0.001047   0.122773
    18  H    0.074133   0.079283
    19  H    0.037723   0.084014
    20  H   -0.062739   0.191452
    21  H   -0.137941   0.275317
    22  H    0.109284   0.047140
    23  H    0.077520   0.057497
    24  H    0.027895   0.183647
    25  H    0.035348   0.126827
    26  H   -0.061564   0.247230
    27  H   -0.451495   0.618127
    28  H    0.211063  -0.040980
    29  H   -0.353486   0.519930
    30  H   -0.204039   0.348042
    31  H   -0.177737   0.332999
    32  H   -0.708513   0.901339
    33  H   -0.354501   0.487247
    34  H   -0.049490   0.161995
    35  H   -0.135363   0.388139
    36  H    0.048879   0.096430
    37  H   -0.046370   0.214474
    38  H    0.073152   0.026589
 Sum of Mulliken charges =  -1.00000   1.00000

 Dipole moment (field-independent basis, Debye):
    X=              5.8084    Y=             -1.3290    Z=              0.8157  Tot=              6.0141
 Quadrupole moment (field-independent basis, Debye-Ang):
   XX=           -172.0286   YY=           -135.8370   ZZ=           -128.1218
   XY=             -4.1025   XZ=              0.9444   YZ=              1.2504

 Summary of Natural Population Analysis:

                                       Natural Population
                Natural  -----------------------------------------------
    Atom  No    Charge         Core      Valence    Rydberg      Total
 -----------------------------------------------------------------------
      C    1   -0.28825      0.99965     2.28171    0.00689     3.28825
      C    2   -0.11383      0.99961     2.10450    0.00972     3.11383
      C    3   -0.28172      0.99965     2.27744    0.00463     3.28172
      C    4   -0.19598      0.99958     2.18758    0.00882     3.19598
      C    5   -0.01077      0.99948     2.00188    0.00942     3.01077
      C    6   -0.08847      0.99944     2.07920    0.00983     3.08847
      C    7   -0.20700      0.99961     2.19774    0.00965     3.20700
      C    8   -0.18454      0.99957     2.17461    0.01036     3.18454
      C    9    0.11044      0.99950     1.87257    0.01749     2.88956
      C   10   -0.29525      0.99962     2.28815    0.00748     3.29525
      C   11   -0.09479      0.99952     2.08202    0.01325     3.09479
      C   12   -0.19152      0.99955     2.18507    0.00690     3.19152
      O   13   -0.37481      0.99989     3.36696    0.00797     4.37481
      C   14   -0.29817      0.99962     2.29379    0.00476     3.29817
      H   15    0.08978      0.00000     0.40939    0.00084     0.41022
      H   16    0.11067      0.00000     0.38791    0.00142     0.38933
      H   17    0.09819      0.00000     0.40096    0.00085     0.40181
      H   18    0.09995      0.00000     0.39783    0.00222     0.40005
      H   19    0.09249      0.00000     0.40652    0.00099     0.40751
      H   20    0.09655      0.00000     0.40247    0.00098     0.40345
      H   21    0.09894      0.00000     0.40009    0.00097     0.40106
      H   22    0.10161      0.00000     0.39740    0.00100     0.39839
      H   23    0.09287      0.00000     0.40595    0.00117     0.40713
      H   24    0.09456      0.00000     0.40393    0.00151     0.40544
      H   25    0.10062      0.00000     0.39819    0.00118     0.39938
      H   26    0.10111      0.00000     0.39779    0.00110     0.39889
      H   27    0.10193      0.00000     0.39639    0.00168     0.39807
      H   28    0.10261      0.00000     0.39573    0.00166     0.39739
      H   29    0.10387      0.00000     0.39421    0.00192     0.39613
      H   30    0.10208      0.00000     0.39635    0.00156     0.39792
      H   31    0.10296      0.00000     0.39574    0.00131     0.39704
      H   32    0.09895      0.00000     0.39898    0.00207     0.40105
      H   33    0.09454      0.00000     0.40425    0.00121     0.40546
      H   34    0.09682      0.00000     0.40146    0.00172     0.40318
      H   35    0.23025      0.00000     0.26571    0.00404     0.26975
      H   36    0.09799      0.00000     0.40092    0.00109     0.40201
      H   37    0.10352      0.00000     0.39535    0.00113     0.39648
      H   38    0.10179      0.00000     0.39731    0.00091     0.39821
 =======================================================================
   * Total *    0.00000     13.99426    40.84405    0.16169    55.00000

 Normal termination of Gaussian 16 at Thu Dec 10 11:27:44 2020.
