 Gaussian 16, Revision A.03,

 -----------------------------------------------------------
 # opt freq B3LYP/6-31G(d) empiricaldispersion=gd3bj scf=xqc
 -----------------------------------------------------------

 -------------------------------
 CID_128567082_JID_7411_neutraal
 -------------------------------
 Symbolic Z-matrix:
 Charge =  0 Multiplicity = 1

 SCF Done:  E(RB3LYP) =  -753.795799021     A.U. after   14 cycles
 SCF Done:  E(RB3LYP) =  -753.803425991     A.U. after   12 cycles
 SCF Done:  E(RB3LYP) =  -753.800829874     A.U. after   12 cycles
 SCF Done:  E(RB3LYP) =  -753.802164006     A.U. after   12 cycles
 SCF Done:  E(RB3LYP) =  -753.804285078     A.U. after    9 cycles
 SCF Done:  E(RB3LYP) =  -753.805475020     A.U. after   11 cycles
 SCF Done:  E(RB3LYP) =  -753.805967695     A.U. after   13 cycles
 SCF Done:  E(RB3LYP) =  -753.806881733     A.U. after   11 cycles
 SCF Done:  E(RB3LYP) =  -753.807206152     A.U. after   11 cycles
 SCF Done:  E(RB3LYP) =  -753.807450948     A.U. after   12 cycles
 SCF Done:  E(RB3LYP) =  -753.807966020     A.U. after    9 cycles
 SCF Done:  E(RB3LYP) =  -753.807964658     A.U. after    9 cycles
 SCF Done:  E(RB3LYP) =  -753.807966406     A.U. after    9 cycles
 SCF Done:  E(RB3LYP) =  -753.807969987     A.U. after    8 cycles
 SCF Done:  E(RB3LYP) =  -753.807970252     A.U. after    7 cycles
 SCF Done:  E(RB3LYP) =  -753.807970312     A.U. after    6 cycles
 Optimization completed.
    -- Stationary point found.
 Normal termination of Gaussian 16 at Sun Dec 13 12:47:41 2020.

 --------------------------------------------------------------------
 #N Geom=AllCheck Guess=TCheck SCRF=Check GenChk RB3LYP/6-31G(d) Freq
 --------------------------------------------------------------------

 Structure from the checkpoint file:  "JID_7411.chk"
 -------------------------------
 CID_128567082_JID_7411_neutraal
 -------------------------------
 Charge =  0 Multiplicity = 1

 SCF Done:  E(RB3LYP) =  -753.807970312     A.U. after    1 cycles

  Exact polarizability: 178.897  -1.054 150.997  -1.089  -2.853 131.376
 Approx polarizability: 218.934   1.480 232.886  -2.993  -5.154 198.849

                      1                      2                      3
                      A                      A                      A
 Frequencies --     35.1381                44.2891                56.1189
 Red. masses --      4.3136                 3.3849                 2.7850
 Frc consts  --      0.0031                 0.0039                 0.0052
 IR Inten    --      0.4662                 0.1488                 0.1142

                      4                      5                      6
                      A                      A                      A
 Frequencies --     63.7157                98.3886               116.4672
 Red. masses --      3.1678                 6.4056                 3.1805
 Frc consts  --      0.0076                 0.0365                 0.0254
 IR Inten    --      0.5119                 3.3998                 0.2322

                      7                      8                      9
                      A                      A                      A
 Frequencies --    176.1979               204.3744               219.0625
 Red. masses --      4.2296                 2.6157                 2.7015
 Frc consts  --      0.0774                 0.0644                 0.0764
 IR Inten    --      0.1316                 1.1672                 3.4398

                     10                     11                     12
                      A                      A                      A
 Frequencies --    238.4599               249.3631               255.1582
 Red. masses --      2.7216                 1.2834                 1.8688
 Frc consts  --      0.0912                 0.0470                 0.0717
 IR Inten    --      0.7432                 0.7385                 1.6260

                     13                     14                     15
                      A                      A                      A
 Frequencies --    280.0865               301.5722               314.7926
 Red. masses --      1.4824                 1.2165                 1.6768
 Frc consts  --      0.0685                 0.0652                 0.0979
 IR Inten    --      1.9913                 3.4568                 7.7647

                     16                     17                     18
                      A                      A                      A
 Frequencies --    327.5310               339.7320               349.9497
 Red. masses --      1.9235                 1.5314                 2.3778
 Frc consts  --      0.1216                 0.1041                 0.1716
 IR Inten    --     16.4493                58.4515                16.7439

                     19                     20                     21
                      A                      A                      A
 Frequencies --    369.9159               389.6236               407.2855
 Red. masses --      2.3333                 2.3649                 2.8819
 Frc consts  --      0.1881                 0.2115                 0.2817
 IR Inten    --      5.1399                 0.7815                 5.4187

                     22                     23                     24
                      A                      A                      A
 Frequencies --    439.8946               445.4226               455.9506
 Red. masses --      2.0056                 2.4360                 2.9795
 Frc consts  --      0.2287                 0.2848                 0.3649
 IR Inten    --      2.2183                 0.4187                22.6953

                     25                     26                     27
                      A                      A                      A
 Frequencies --    467.6329               482.7714               525.4353
 Red. masses --      2.7320                 3.2829                 2.0020
 Frc consts  --      0.3520                 0.4508                 0.3257
 IR Inten    --      6.4712                 6.5931                 2.7014

                     28                     29                     30
                      A                      A                      A
 Frequencies --    585.2972               646.6929               691.9118
 Red. masses --      2.6001                 4.3054                 3.5083
 Frc consts  --      0.5248                 1.0609                 0.9896
 IR Inten    --      2.3727                11.1165                 0.6986

                     31                     32                     33
                      A                      A                      A
 Frequencies --    700.5171               719.2722               752.8053
 Red. masses --      2.8103                 4.7090                 2.3697
 Frc consts  --      0.8125                 1.4354                 0.7912
 IR Inten    --      0.4307                 6.2952                 0.6078

                     34                     35                     36
                      A                      A                      A
 Frequencies --    822.6367               847.2485               853.3969
 Red. masses --      3.1244                 1.6894                 2.3624
 Frc consts  --      1.2458                 0.7145                 1.0137
 IR Inten    --      4.0073                 0.7228                 1.3795

                     37                     38                     39
                      A                      A                      A
 Frequencies --    873.0413               900.9717               914.5671
 Red. masses --      1.7847                 2.1992                 1.7544
 Frc consts  --      0.8015                 1.0518                 0.8646
 IR Inten    --      8.2390                 1.7462                 6.5510

                     40                     41                     42
                      A                      A                      A
 Frequencies --    916.2250               933.3152               942.1263
 Red. masses --      2.2550                 2.3275                 1.9014
 Frc consts  --      1.1153                 1.1945                 0.9944
 IR Inten    --      2.8618                29.6256                 4.5516

                     43                     44                     45
                      A                      A                      A
 Frequencies --    950.7211               973.5900               978.4898
 Red. masses --      1.3693                 1.8901                 1.6083
 Frc consts  --      0.7292                 1.0556                 0.9073
 IR Inten    --      1.6312                15.4037                 1.3571

                     46                     47                     48
                      A                      A                      A
 Frequencies --    988.4663              1007.5682              1019.6393
 Red. masses --      1.7362                 3.4565                 2.0141
 Frc consts  --      0.9995                 2.0675                 1.2338
 IR Inten    --      2.9313                 2.9527                10.7984

                     49                     50                     51
                      A                      A                      A
 Frequencies --   1034.6546              1074.0526              1076.8971
 Red. masses --      1.8989                 1.1592                 1.9893
 Frc consts  --      1.1977                 0.7879                 1.3593
 IR Inten    --     18.0943                 2.3371                 9.2024

                     52                     53                     54
                      A                      A                      A
 Frequencies --   1092.2089              1117.1312              1133.6103
 Red. masses --      1.9469                 1.7586                 1.6589
 Frc consts  --      1.3683                 1.2931                 1.2561
 IR Inten    --      1.0744                13.1467                 6.4216

                     55                     56                     57
                      A                      A                      A
 Frequencies --   1141.8541              1162.1453              1166.4966
 Red. masses --      1.8233                 1.8715                 1.4339
 Frc consts  --      1.4006                 1.4892                 1.1496
 IR Inten    --     74.8028                19.5467                 1.3336

                     58                     59                     60
                      A                      A                      A
 Frequencies --   1186.8486              1201.0745              1225.9129
 Red. masses --      1.9471                 2.1537                 1.8602
 Frc consts  --      1.6160                 1.8305                 1.6472
 IR Inten    --      1.1431                21.6319                 1.5328

                     61                     62                     63
                      A                      A                      A
 Frequencies --   1241.1960              1245.9348              1281.7685
 Red. masses --      1.4103                 1.3964                 2.0382
 Frc consts  --      1.2801                 1.2771                 1.9730
 IR Inten    --      1.1240                 2.2484                46.2332

                     64                     65                     66
                      A                      A                      A
 Frequencies --   1284.7076              1301.7292              1305.1759
 Red. masses --      2.0083                 1.7459                 1.8129
 Frc consts  --      1.9530                 1.7430                 1.8195
 IR Inten    --     20.4355                 7.2501               118.9542

                     67                     68                     69
                      A                      A                      A
 Frequencies --   1309.9049              1314.7559              1336.2830
 Red. masses --      1.3248                 1.2261                 1.2770
 Frc consts  --      1.3393                 1.2488                 1.3435
 IR Inten    --      1.3790                11.6714                 2.9293

                     70                     71                     72
                      A                      A                      A
 Frequencies --   1362.1771              1368.7703              1379.1000
 Red. masses --      1.4391                 1.4449                 1.3326
 Frc consts  --      1.5732                 1.5950                 1.4933
 IR Inten    --     14.9933                10.1494                 2.1539

                     73                     74                     75
                      A                      A                      A
 Frequencies --   1382.5208              1389.1692              1401.4774
 Red. masses --      1.4646                 1.7550                 1.3654
 Frc consts  --      1.6494                 1.9954                 1.5800
 IR Inten    --      7.2843                18.7545                 0.9858

                     76                     77                     78
                      A                      A                      A
 Frequencies --   1415.2670              1416.6741              1423.4045
 Red. masses --      1.4101                 1.3649                 1.3368
 Frc consts  --      1.6641                 1.6139                 1.5958
 IR Inten    --     11.9656                 1.0034                13.5043

                     79                     80                     81
                      A                      A                      A
 Frequencies --   1433.5015              1436.8014              1455.2900
 Red. masses --      1.2861                 1.3062                 1.2424
 Frc consts  --      1.5571                 1.5888                 1.5502
 IR Inten    --      4.0057                10.4493                10.6718

                     82                     83                     84
                      A                      A                      A
 Frequencies --   1484.0275              1499.3571              1507.0651
 Red. masses --      2.2005                 1.1016                 1.0913
 Frc consts  --      2.8554                 1.4592                 1.4604
 IR Inten    --    133.6370                 3.8410                 0.7687

                     85                     86                     87
                      A                      A                      A
 Frequencies --   1511.6748              1517.8131              1518.6109
 Red. masses --      1.1215                 1.0845                 1.0661
 Frc consts  --      1.5099                 1.4720                 1.4486
 IR Inten    --     22.4911                 2.3031                 0.7115

                     88                     89                     90
                      A                      A                      A
 Frequencies --   1521.3309              1522.6261              1526.2920
 Red. masses --      1.0726                 1.0959                 1.1034
 Frc consts  --      1.4626                 1.4969                 1.5145
 IR Inten    --      9.7005                 6.2720                 2.6599

                     91                     92                     93
                      A                      A                      A
 Frequencies --   1537.2469              1541.2649              1546.6317
 Red. masses --      1.0653                 1.1022                 1.0534
 Frc consts  --      1.4832                 1.5426                 1.4846
 IR Inten    --      0.1064                 8.7692                 9.5329

                     94                     95                     96
                      A                      A                      A
 Frequencies --   1556.3169              1721.1683              2994.4825
 Red. masses --      1.0591                 8.9590                 1.0832
 Frc consts  --      1.5114                15.6371                 5.7226
 IR Inten    --      2.7255               263.2584                24.4418

                     97                     98                     99
                      A                      A                      A
 Frequencies --   3006.5500              3010.0979              3017.2727
 Red. masses --      1.0780                 1.0773                 1.0733
 Frc consts  --      5.7413                 5.7509                 5.7570
 IR Inten    --      9.3847                43.7307                30.0563

                    100                    101                    102
                      A                      A                      A
 Frequencies --   3031.8307              3036.3689              3042.9306
 Red. masses --      1.0707                 1.0386                 1.0383
 Frc consts  --      5.7987                 5.6415                 5.6642
 IR Inten    --     93.9706                22.9434                51.4857

                    103                    104                    105
                      A                      A                      A
 Frequencies --   3053.4680              3059.2862              3071.3901
 Red. masses --      1.0631                 1.0455                 1.0975
 Frc consts  --      5.8398                 5.7652                 6.0999
 IR Inten    --     36.4883                20.2506                35.3679

                    106                    107                    108
                      A                      A                      A
 Frequencies --   3082.4643              3100.3412              3103.8473
 Red. masses --      1.0596                 1.0943                 1.0766
 Frc consts  --      5.9317                 6.1974                 6.1108
 IR Inten    --     29.9639                19.0583                13.7639

                    109                    110                    111
                      A                      A                      A
 Frequencies --   3104.2519              3107.0527              3120.7587
 Red. masses --      1.0859                 1.0996                 1.0929
 Frc consts  --      6.1651                 6.2544                 6.2712
 IR Inten    --     23.0340                96.7838                15.9534

                    112                    113                    114
                      A                      A                      A
 Frequencies --   3124.0325              3126.8452              3128.8452
 Red. masses --      1.1027                 1.1018                 1.1001
 Frc consts  --      6.3407                 6.3472                 6.3451
 IR Inten    --     15.3267                21.3945                27.1490

                    115                    116                    117
                      A                      A                      A
 Frequencies --   3142.8504              3157.3101              3158.5412
 Red. masses --      1.0968                 1.1005                 1.1044
 Frc consts  --      6.3829                 6.4638                 6.4916
 IR Inten    --     11.3315                15.3724                28.5459

                    118                    119                    120
                      A                      A                      A
 Frequencies --   3190.7188              3213.0904              3721.2438
 Red. masses --      1.0886                 1.0858                 1.0658
 Frc consts  --      6.5295                 6.6048                 8.6954
 IR Inten    --      2.7811                16.7224                 7.7243

 - Thermochemistry -
 -------------------
 Temperature   298.150 Kelvin.  Pressure   1.00000 Atm.
 Atom     1 has atomic number  6 and mass  12.00000

 Molecular mass:   239.18853 amu.
 Principal axes and moments of inertia in atomic units:
                           1         2         3
     Eigenvalues --  2081.951876447.017507104.01034
           X            0.99989  -0.01305   0.00713
           Y            0.01320   0.99968  -0.02150
           Z           -0.00685   0.02159   0.99974
 This molecule is an asymmetric top.
 Rotational symmetry number  1.
 Warning -- assumption of classical behavior for rotation
           may cause significant error
 Rotational temperatures (Kelvin)      0.04160     0.01343     0.01219
 Rotational constants (GHZ):           0.86685     0.27993     0.25405
 Zero-point vibrational energy    1000010.0 (Joules/Mol)
                                  239.00814 (Kcal/Mol)
 Warning -- explicit consideration of  28 degrees of freedom as
           vibrations may cause significant error
 Vibrational temperatures:     50.56    63.72    80.74    91.67   141.56
          (Kelvin)            167.57   253.51   294.05   315.18   343.09
                              358.78   367.12   402.98   433.90   452.92
                              471.24   488.80   503.50   532.23   560.58
                              585.99   632.91   640.86   656.01   672.82
                              694.60   755.98   842.11   930.45   995.51
                             1007.89  1034.87  1083.12  1183.59  1219.00
                             1227.85  1256.11  1296.30  1315.86  1318.24
                             1342.83  1355.51  1367.88  1400.78  1407.83
                             1422.18  1449.67  1467.03  1488.64  1545.32
                             1549.41  1571.45  1607.30  1631.01  1642.87
                             1672.07  1678.33  1707.61  1728.08  1763.82
                             1785.80  1792.62  1844.18  1848.41  1872.90
                             1877.86  1884.66  1891.64  1922.61  1959.87
                             1969.36  1984.22  1989.14  1998.70  2016.41
                             2036.25  2038.28  2047.96  2062.49  2067.24
                             2093.84  2135.18  2157.24  2168.33  2174.96
                             2183.79  2184.94  2188.86  2190.72  2195.99
                             2211.76  2217.54  2225.26  2239.19  2476.38
                             4308.39  4325.75  4330.86  4341.18  4362.13
                             4368.66  4378.10  4393.26  4401.63  4419.05
                             4434.98  4460.70  4465.74  4466.33  4470.36
                             4490.08  4494.79  4498.83  4501.71  4521.86
                             4542.66  4544.44  4590.73  4622.92  5354.04

 Zero-point correction=                           0.380884 (Hartree/Particle)
 Thermal correction to Energy=                    0.398490
 Thermal correction to Enthalpy=                  0.399434
 Thermal correction to Gibbs Free Energy=         0.335922
 Sum of electronic and zero-point Energies=           -753.427087
 Sum of electronic and thermal Energies=              -753.409481
 Sum of electronic and thermal Enthalpies=            -753.408536
 Sum of electronic and thermal Free Energies=         -753.472049

                     E (Thermal)             CV                S
                      KCal/Mol        Cal/Mol-Kelvin    Cal/Mol-Kelvin
 Total                  250.056             69.614            133.673
 Electronic               0.000              0.000              0.000
 Translational            0.889              2.981             42.318
 Rotational               0.889              2.981             32.922
 Vibrational            248.279             63.653             58.434
 Vibration     1          0.594              1.982              5.516
 Vibration     2          0.595              1.980              5.057
 Vibration     3          0.596              1.975              4.589
 Vibration     4          0.597              1.972              4.339
 Vibration     5          0.604              1.950              3.486
 Vibration     6          0.608              1.936              3.158
 Vibration     7          0.628              1.872              2.368
 Vibration     8          0.640              1.834              2.093
 Vibration     9          0.647              1.812              1.967
 Vibration    10          0.656              1.782              1.814
 Vibration    11          0.662              1.764              1.735
 Vibration    12          0.666              1.754              1.695
 Vibration    13          0.680              1.710              1.533
 Vibration    14          0.694              1.671              1.408
 Vibration    15          0.702              1.645              1.337
 Vibration    16          0.711              1.620              1.272
 Vibration    17          0.720              1.596              1.213
 Vibration    18          0.727              1.575              1.166
 Vibration    19          0.742              1.534              1.080
 Vibration    20          0.758              1.492              1.002
 Vibration    21          0.772              1.454              0.936
 Vibration    22          0.800              1.383              0.827
 Vibration    23          0.805              1.371              0.810
 Vibration    24          0.814              1.348              0.778
 Vibration    25          0.825              1.322              0.744
 Vibration    26          0.839              1.288              0.703
 Vibration    27          0.880              1.194              0.597
 Vibration    28          0.942              1.063              0.476

                           ! Non-Optimized Parameters !
 Normal termination of Gaussian 16 at Sun Dec 13 13:09:01 2020.

 ----------------------------------------------------------------------
 # B3LYP/6-311++G(d,p) empiricaldispersion=gd3bj scf=xqc pop=npa geom=c
 heck
 ----------------------------------------------------------------------

 ---------------------------------------
 CID_128567082_JID_7411_Energie_neutraal
 ---------------------------------------
 Structure from the checkpoint file:  "JID_7411.chk"
 Charge =  0 Multiplicity = 1

 SCF Done:  E(RB3LYP) =  -754.025701194     A.U. after   14 cycles
 Normal termination of Gaussian 16 at Sun Dec 13 13:19:02 2020.

 ----------------------------------------------------------------------
 # B3LYP/6-311++G(d,p) empiricaldispersion=gd3bj scf=xqc pop=npa geom=c
 heck
 ----------------------------------------------------------------------

 -------------------------------------
 CID_128567082_JID_7411_Energie_kation
 -------------------------------------
 Structure from the checkpoint file:  "JID_7411.chk"
 Charge =  1 Multiplicity = 2

 SCF Done:  E(UB3LYP) =  -753.720794089     A.U. after   25 cycles
 Normal termination of Gaussian 16 at Sun Dec 13 13:43:30 2020.
 Gaussian 16:  ES64L-G16RevA.03 25-Dec-2016

 ----------------------------------------------------------------------
 # B3LYP/6-311++G(d,p) empiricaldispersion=gd3bj scf=xqc pop=npa geom=c
 heck
 ----------------------------------------------------------------------

 ------------------------------------
 CID_128567082_JID_7411_Energie_anion
 ------------------------------------
 Structure from the checkpoint file:  "JID_7411.chk"
 Charge = -1 Multiplicity = 2

                         Standard orientation:
 ---------------------------------------------------------------------
 Center     Atomic      Atomic             Coordinates (Angstroms)
 Number     Number       Type             X           Y           Z
 ---------------------------------------------------------------------
      1          6           0        2.154190   -0.556964    1.866678
      2          6           0        3.251475   -0.250764    0.836685
      3          6           0        3.858891   -1.568424    0.331874
      4          6           0        2.865158    0.676103   -0.347957
      5          6           0        2.348193    2.075209    0.063987
      6          6           0        0.836317    2.146452    0.338665
      7          6           0        0.030459    1.464456   -0.772763
      8          7           0        0.511315    0.106315   -0.989844
      9          6           0        1.915386    0.068671   -1.398040
     10          6           0       -0.129771   -1.074475   -0.707599
     11          8           0        0.462240   -2.152295   -0.804275
     12          6           0       -1.585968   -1.088344   -0.264479
     13          6           0       -2.071787   -0.346238    1.018214
     14          6           0       -3.385187    0.021172    0.280006
     15          6           0       -2.721665   -0.391349   -1.071678
     16          6           0       -3.906361    1.443937    0.409455
     17          8           0       -4.372444   -0.921056    0.694967
     18          1           0        1.332513   -1.122564    1.420575
     19          1           0        1.752824    0.348585    2.330647
     20          1           0        2.572046   -1.173431    2.671525
     21          1           0        4.044416    0.297199    1.369251
     22          1           0        3.085104   -2.216620   -0.092396
     23          1           0        4.623949   -1.393920   -0.434931
     24          1           0        4.331507   -2.112852    1.157279
     25          1           0        3.812414    0.841572   -0.881849
     26          1           0        2.905198    2.438837    0.936506
     27          1           0        2.571073    2.772375   -0.756155
     28          1           0        0.589964    1.662799    1.288617
     29          1           0        0.522956    3.194972    0.421799
     30          1           0       -1.027912    1.466967   -0.532969
     31          1           0        0.148313    2.023367   -1.713893
     32          1           0        2.001411    0.657278   -2.323471
     33          1           0        2.165127   -0.964041   -1.628844
     34          1           0       -1.813975   -2.149344   -0.167051
     35          1           0       -2.212171   -0.970267    1.903452
     36          1           0       -1.475803    0.526696    1.292123
     37          1           0       -2.393255    0.458905   -1.674549
     38          1           0       -3.321834   -1.052907   -1.703719
     39          1           0       -4.768181    1.603871   -0.252560
     40          1           0       -4.225759    1.635660    1.439445
     41          1           0       -3.141600    2.180677    0.139161
     42          1           0       -5.131881   -0.827865    0.097088
 ---------------------------------------------------------------------

 SCF Done:  E(UB3LYP) =  -754.017970712     A.U. after   31 cycles

 The electronic state is 2-A.
 Alpha  occ. eigenvalues --  -19.03026 -18.98649 -14.24581 -10.17300 -10.13922
 Alpha  occ. eigenvalues --  -10.11290 -10.10232 -10.08872 -10.08479 -10.08349
 Alpha  occ. eigenvalues --  -10.07977 -10.07801 -10.07700 -10.07563 -10.06745
 Alpha  occ. eigenvalues --  -10.06579 -10.06508  -0.93979  -0.93536  -0.84492
 Alpha  occ. eigenvalues --   -0.75313  -0.72885  -0.69032  -0.65764  -0.64080
 Alpha  occ. eigenvalues --   -0.59985  -0.59081  -0.58255  -0.55844  -0.54235
 Alpha  occ. eigenvalues --   -0.50634  -0.47370  -0.47034  -0.43970  -0.40997
 Alpha  occ. eigenvalues --   -0.40453  -0.38629  -0.38280  -0.36886  -0.36302
 Alpha  occ. eigenvalues --   -0.35802  -0.33881  -0.33605  -0.33441  -0.32770
 Alpha  occ. eigenvalues --   -0.31922  -0.31165  -0.30618  -0.30384  -0.30011
 Alpha  occ. eigenvalues --   -0.29620  -0.28225  -0.27664  -0.27112  -0.26274
 Alpha  occ. eigenvalues --   -0.25314  -0.24716  -0.24196  -0.23504  -0.22435
 Alpha  occ. eigenvalues --   -0.22187  -0.21500  -0.21368  -0.18514  -0.15260
 Alpha  occ. eigenvalues --   -0.14565   0.03777
 Alpha virt. eigenvalues --    0.05496   0.06710   0.07088   0.08080   0.08455
 Alpha virt. eigenvalues --    0.08702   0.09292   0.09624   0.10219   0.10346
 Alpha virt. eigenvalues --    0.10502   0.10876   0.11380   0.11520   0.12523

  Beta  occ. eigenvalues --  -19.02991 -18.98633 -14.24588 -10.17287 -10.13921
  Beta  occ. eigenvalues --  -10.11267 -10.10221 -10.08869 -10.08474 -10.08343
  Beta  occ. eigenvalues --  -10.07970 -10.07779 -10.07681 -10.07542 -10.06700
  Beta  occ. eigenvalues --  -10.06572 -10.06502  -0.93952  -0.93465  -0.84483
  Beta  occ. eigenvalues --   -0.75290  -0.72865  -0.69000  -0.65740  -0.64030
  Beta  occ. eigenvalues --   -0.59949  -0.59058  -0.58221  -0.55806  -0.54196
  Beta  occ. eigenvalues --   -0.50594  -0.47316  -0.47007  -0.43924  -0.40953
  Beta  occ. eigenvalues --   -0.40411  -0.38599  -0.38253  -0.36854  -0.36271
  Beta  occ. eigenvalues --   -0.35776  -0.33844  -0.33565  -0.33415  -0.32735
  Beta  occ. eigenvalues --   -0.31895  -0.31142  -0.30580  -0.30352  -0.29983
  Beta  occ. eigenvalues --   -0.29603  -0.28208  -0.27636  -0.27081  -0.26245
  Beta  occ. eigenvalues --   -0.25283  -0.24694  -0.24168  -0.23482  -0.22399
  Beta  occ. eigenvalues --   -0.22154  -0.21473  -0.21334  -0.18482  -0.15233
  Beta  occ. eigenvalues --   -0.14544
  Beta virt. eigenvalues --    0.05914   0.06584   0.07210   0.07694   0.08545
  Beta virt. eigenvalues --    0.08682   0.08931   0.09627   0.09946   0.10417
  Beta virt. eigenvalues --    0.10526   0.10898   0.11018   0.11701   0.11743

 Mulliken charges and spin densities:
               1          2
     1  C   -0.430743  -0.174907
     2  C    0.037798   0.015475
     3  C   -0.467142  -0.250101
     4  C    0.587127   0.050769
     5  C    0.317255  -1.100319
     6  C    0.052894  -0.070718
     7  C   -0.209666  -0.177567
     8  N    0.102107  -0.004959
     9  C   -0.349524  -0.093902
    10  C   -0.520438   0.414099
    11  O   -0.290730   0.003938
    12  C   -0.064051   0.077267
    13  C    0.607429  -0.806699
    14  C   -1.591080   1.281597
    15  C    0.490942  -0.896504
    16  C    1.321277  -1.804846
    17  O   -0.170104  -0.019682
    18  H    0.161567   0.030233
    19  H    0.112511   0.030992
    20  H    0.162236  -0.023494
    21  H   -0.038065   0.206089
    22  H    0.174177   0.014074
    23  H    0.027343   0.092185
    24  H    0.092465   0.027564
    25  H   -0.143140   0.368380
    26  H   -0.150946   0.314275
    27  H   -0.066373   0.225990
    28  H    0.099286  -0.031697
    29  H   -0.590489   0.803487
    30  H    1.012043  -1.076609
    31  H   -0.505765   0.704288
    32  H   -0.087026   0.272145
    33  H    0.161521   0.023130
    34  H    0.258426   0.006392
    35  H    0.209225   0.004959
    36  H    0.049368   0.094594
    37  H   -0.150021   0.337305
    38  H   -0.137138   0.343174
    39  H   -0.479960   0.629306
    40  H    0.024734   0.136754
    41  H   -0.535285   0.693157
    42  H   -0.084041   0.330388
 Sum of Mulliken charges =  -1.00000   1.00000

 Dipole moment (field-independent basis, Debye):
    X=              4.0972    Y=             -3.4321    Z=              2.2933  Tot=              5.8159
 Quadrupole moment (field-independent basis, Debye-Ang):
   XX=           -195.3439   YY=           -165.1743   ZZ=           -139.5613
   XY=             -0.7675   XZ=              0.2313   YZ=              3.0805

 Summary of Natural Population Analysis:

                                       Natural Population
                Natural  -----------------------------------------------
    Atom  No    Charge         Core      Valence    Rydberg      Total
 -----------------------------------------------------------------------
      C    1   -0.28801      0.99964     2.28212    0.00626     3.28801
      C    2   -0.10727      0.99959     2.09810    0.00958     3.10727
      C    3   -0.28928      0.99965     2.28474    0.00489     3.28928
      C    4   -0.11092      0.99956     2.09905    0.01231     3.11092
      C    5   -0.18939      0.99961     2.18014    0.00964     3.18939
      C    6   -0.19402      0.99961     2.18609    0.00832     3.19402
      C    7   -0.08504      0.99959     2.07433    0.01112     3.08504
      N    8   -0.25658      0.99964     2.74551    0.01144     3.75658
      C    9   -0.08950      0.99958     2.07828    0.01164     3.08950
      C   10    0.34841      0.99959     1.62890    0.02311     2.65159
      O   11   -0.33322      0.99988     3.32858    0.00477     4.33322
      C   12   -0.14959      0.99956     2.13918    0.01085     3.14959
      C   13   -0.18513      0.99958     2.17752    0.00803     3.18513
      C   14    0.12857      0.99954     1.85643    0.01546     2.87143
      C   15   -0.19151      0.99958     2.18287    0.00906     3.19151
      C   16   -0.29563      0.99960     2.28963    0.00640     3.29563
      O   17   -0.37557      0.99989     3.36906    0.00663     4.37557
      H   18    0.10483      0.00000     0.39419    0.00097     0.39517
      H   19    0.09660      0.00000     0.40254    0.00086     0.40340
      H   20    0.09526      0.00000     0.40401    0.00073     0.40474
      H   21    0.09087      0.00000     0.40744    0.00169     0.40913
      H   22    0.10866      0.00000     0.39040    0.00094     0.39134
      H   23    0.09601      0.00000     0.40322    0.00077     0.40399
      H   24    0.09571      0.00000     0.40355    0.00075     0.40429
      H   25    0.10016      0.00000     0.39823    0.00161     0.39984
      H   26    0.10016      0.00000     0.39859    0.00125     0.39984
      H   27    0.10048      0.00000     0.39787    0.00165     0.39952
      H   28    0.09406      0.00000     0.40436    0.00159     0.40594
      H   29    0.10415      0.00000     0.39433    0.00152     0.39585
      H   30    0.10249      0.00000     0.39440    0.00311     0.39751
      H   31    0.09520      0.00000     0.40305    0.00174     0.40480
      H   32    0.09510      0.00000     0.40380    0.00110     0.40490
      H   33    0.11741      0.00000     0.38130    0.00128     0.38259
      H   34    0.11461      0.00000     0.38382    0.00157     0.38539
      H   35    0.10643      0.00000     0.39257    0.00101     0.39357
      H   36    0.10074      0.00000     0.39795    0.00131     0.39926
      H   37    0.10300      0.00000     0.39563    0.00137     0.39700
      H   38    0.10353      0.00000     0.39538    0.00110     0.39647
      H   39    0.10253      0.00000     0.39548    0.00199     0.39747
      H   40    0.10348      0.00000     0.39551    0.00102     0.39652
      H   41    0.10217      0.00000     0.39608    0.00175     0.39783
      H   42    0.23007      0.00000     0.26607    0.00386     0.26993
 =======================================================================
   * Total *    0.00000     16.99369    48.80026    0.20605    66.00000

 Normal termination of Gaussian 16 at Sun Dec 13 14:12:03 2020.
