 Gaussian 16, Revision A.03,

 -----------------------------------------------------------
 # opt freq B3LYP/6-31G(d) empiricaldispersion=gd3bj scf=xqc
 -----------------------------------------------------------

 ------------------------------
 CID_56622110_JID_7787_neutraal
 ------------------------------
 Symbolic Z-matrix:
 Charge =  0 Multiplicity = 1

 SCF Done:  E(RB3LYP) =  -694.623192556     A.U. after   15 cycles
 SCF Done:  E(RB3LYP) =  -694.622951434     A.U. after   13 cycles
 SCF Done:  E(RB3LYP) =  -694.624783934     A.U. after   13 cycles
 SCF Done:  E(RB3LYP) =  -694.626330443     A.U. after   12 cycles
 SCF Done:  E(RB3LYP) =  -694.626730017     A.U. after   13 cycles
 SCF Done:  E(RB3LYP) =  -694.626868019     A.U. after   15 cycles
 SCF Done:  E(RB3LYP) =  -694.627199874     A.U. after   13 cycles
 SCF Done:  E(RB3LYP) =  -694.627241011     A.U. after   12 cycles
 SCF Done:  E(RB3LYP) =  -694.627247178     A.U. after   12 cycles
 SCF Done:  E(RB3LYP) =  -694.627253924     A.U. after    9 cycles
 SCF Done:  E(RB3LYP) =  -694.627257038     A.U. after    9 cycles
 SCF Done:  E(RB3LYP) =  -694.627258641     A.U. after    9 cycles
 SCF Done:  E(RB3LYP) =  -694.627258687     A.U. after    7 cycles
 Optimization completed.
    -- Stationary point found.
 Normal termination of Gaussian 16 at Fri Dec 11 13:11:23 2020.

 --------------------------------------------------------------------
 #N Geom=AllCheck Guess=TCheck SCRF=Check GenChk RB3LYP/6-31G(d) Freq
 --------------------------------------------------------------------

 Structure from the checkpoint file:  "JID_7787.chk"
 ------------------------------
 CID_56622110_JID_7787_neutraal
 ------------------------------
 Charge =  0 Multiplicity = 1

 SCF Done:  E(RB3LYP) =  -694.627258687     A.U. after    1 cycles

  Exact polarizability: 184.575   8.285 165.629  20.826   4.194 120.702
 Approx polarizability: 249.441  19.705 291.885  39.857   8.782 199.492

                      1                      2                      3
                      A                      A                      A
 Frequencies --     18.3298                30.8331                41.1819
 Red. masses --      4.9454                 4.0724                 4.0108
 Frc consts  --      0.0010                 0.0023                 0.0040
 IR Inten    --      0.2103                 0.0128                 0.1012

                      4                      5                      6
                      A                      A                      A
 Frequencies --     48.4442                74.3049                98.5973
 Red. masses --      5.1097                 5.8929                 4.1528
 Frc consts  --      0.0071                 0.0192                 0.0238
 IR Inten    --      0.4981                 4.6462                 1.7020

                      7                      8                      9
                      A                      A                      A
 Frequencies --    148.6946               186.1801               216.4797
 Red. masses --      4.1788                 3.7065                 3.6965
 Frc consts  --      0.0544                 0.0757                 0.1021
 IR Inten    --      3.5599                 2.3076                 0.3460

                     10                     11                     12
                      A                      A                      A
 Frequencies --    257.7798               296.6133               351.9534
 Red. masses --      2.6814                 3.4469                 4.5951
 Frc consts  --      0.1050                 0.1787                 0.3354
 IR Inten    --      2.3836                 4.5541                 5.4260

                     13                     14                     15
                      A                      A                      A
 Frequencies --    367.0461               380.2663               417.8982
 Red. masses --      2.0975                 3.8966                 2.9914
 Frc consts  --      0.1665                 0.3320                 0.3078
 IR Inten    --      0.0575                 0.1906                 0.0125

                     16                     17                     18
                      A                      A                      A
 Frequencies --    418.1290               503.0830               535.7665
 Red. masses --      2.9990                 3.8675                 3.2402
 Frc consts  --      0.3089                 0.5767                 0.5480
 IR Inten    --      0.0034                 4.4166                11.6907

                     19                     20                     21
                      A                      A                      A
 Frequencies --    571.2144               603.9420               635.1596
 Red. masses --      3.4385                 3.1102                 6.3140
 Frc consts  --      0.6610                 0.6684                 1.5008
 IR Inten    --      5.3303                 0.3071                 0.2048

                     22                     23                     24
                      A                      A                      A
 Frequencies --    638.1719               685.7802               717.2643
 Red. masses --      6.2935                 3.6510                 1.8676
 Frc consts  --      1.5101                 1.0117                 0.5661
 IR Inten    --      0.0508                 7.8703                16.9382

                     25                     26                     27
                      A                      A                      A
 Frequencies --    718.6136               759.8453               773.8623
 Red. masses --      1.7687                 1.9557                 2.0672
 Frc consts  --      0.5382                 0.6653                 0.7294
 IR Inten    --     35.9730                24.6748                33.3233

                     28                     29                     30
                      A                      A                      A
 Frequencies --    783.3974               792.8174               863.0764
 Red. masses --      2.3999                 3.3280                 1.3107
 Frc consts  --      0.8678                 1.2325                 0.5752
 IR Inten    --      3.2887                 1.4897                 0.5104

                     31                     32                     33
                      A                      A                      A
 Frequencies --    863.2964               865.0849               906.9840
 Red. masses --      1.3633                 1.9945                 1.9070
 Frc consts  --      0.5986                 0.8794                 0.9243
 IR Inten    --      0.2006                 1.5390                 4.5599

                     34                     35                     36
                      A                      A                      A
 Frequencies --    927.9631               932.1046               968.2947
 Red. masses --      1.4113                 1.5194                 1.3476
 Frc consts  --      0.7161                 0.7778                 0.7444
 IR Inten    --      1.7036                 4.4981                 0.2034

                     37                     38                     39
                      A                      A                      A
 Frequencies --    971.1484               987.3276               994.8630
 Red. masses --      1.3549                 2.2246                 1.2561
 Frc consts  --      0.7529                 1.2777                 0.7325
 IR Inten    --      0.0224                 5.1532                 0.2348

                     40                     41                     42
                      A                      A                      A
 Frequencies --    998.5734              1008.6328              1022.0962
 Red. masses --      1.2758                 1.8935                 6.1795
 Frc consts  --      0.7496                 1.1350                 3.8035
 IR Inten    --      0.3714                 8.7540                 0.2327

                     43                     44                     45
                      A                      A                      A
 Frequencies --   1022.7217              1052.3070              1061.6901
 Red. masses --      6.2315                 2.1227                 2.1773
 Frc consts  --      3.8403                 1.3849                 1.4460
 IR Inten    --      1.2072                 3.1815                 2.1076

                     46                     47                     48
                      A                      A                      A
 Frequencies --   1062.2163              1113.6952              1119.0043
 Red. masses --      2.2045                 1.5770                 1.6207
 Frc consts  --      1.4655                 1.1524                 1.1957
 IR Inten    --      2.7874                 2.7639                 7.9808

                     49                     50                     51
                      A                      A                      A
 Frequencies --   1127.8882              1193.0411              1194.7484
 Red. masses --      2.7986                 1.1147                 1.0991
 Frc consts  --      2.0976                 0.9348                 0.9244
 IR Inten    --      5.6953                 0.3562                 0.0834

                     52                     53                     54
                      A                      A                      A
 Frequencies --   1196.6035              1215.2476              1217.6092
 Red. masses --      1.2403                 1.1404                 1.1395
 Frc consts  --      1.0464                 0.9923                 0.9953
 IR Inten    --      3.0681                 0.6200                 0.5933

                     55                     56                     57
                      A                      A                      A
 Frequencies --   1224.3423              1231.9739              1249.6300
 Red. masses --      1.5909                 2.6829                 1.7512
 Frc consts  --      1.4051                 2.3992                 1.6112
 IR Inten    --      2.8928                 1.5709                 4.2491

                     58                     59                     60
                      A                      A                      A
 Frequencies --   1284.5160              1352.9230              1363.1160
 Red. masses --      1.6619                 2.3264                 2.3172
 Frc consts  --      1.6156                 2.5088                 2.5368
 IR Inten    --      3.9719                 0.2469                 0.0656

                     61                     62                     63
                      A                      A                      A
 Frequencies --   1367.5005              1369.2920              1376.8628
 Red. masses --      2.2111                 1.7482                 1.3417
 Frc consts  --      2.4362                 1.9312                 1.4986
 IR Inten    --      0.1849                 0.6769                 1.9492

                     64                     65                     66
                      A                      A                      A
 Frequencies --   1389.3527              1399.6847              1438.7104
 Red. masses --      1.2998                 1.3969                 1.2350
 Frc consts  --      1.4782                 1.6124                 1.5061
 IR Inten    --      3.8275                20.5830                 3.2942

                     67                     68                     69
                      A                      A                      A
 Frequencies --   1502.4849              1504.2841              1507.7383
 Red. masses --      2.0410                 2.0935                 1.1396
 Frc consts  --      2.7146                 2.7911                 1.5263
 IR Inten    --      3.1910                 8.1357                 5.4436

                     70                     71                     72
                      A                      A                      A
 Frequencies --   1530.6443              1546.5582              1548.8128
 Red. masses --      1.1339                 2.1860                 2.2138
 Frc consts  --      1.5652                 3.0806                 3.1289
 IR Inten    --      9.3555                11.8589                10.3815

                     73                     74                     75
                      A                      A                      A
 Frequencies --   1646.0116              1646.1536              1664.9275
 Red. masses --      5.4931                 5.4939                 5.5181
 Frc consts  --      8.7686                 8.7715                 9.0122
 IR Inten    --      0.9707                 2.2884                 6.1845

                     76                     77                     78
                      A                      A                      A
 Frequencies --   1668.1821              1818.6675              2913.5657
 Red. masses --      5.5915                 9.8083                 1.0845
 Frc consts  --      9.1678                19.1140                 5.4242
 IR Inten    --      5.3698               147.5761               105.5813

                     79                     80                     81
                      A                      A                      A
 Frequencies --   3046.8454              3051.4428              3060.1081
 Red. masses --      1.0810                 1.0683                 1.0634
 Frc consts  --      5.9126                 5.8607                 5.8670
 IR Inten    --      9.0898                18.6474                30.8839

                     82                     83                     84
                      A                      A                      A
 Frequencies --   3102.1714              3128.0239              3172.7006
 Red. masses --      1.1011                 1.0960                 1.0864
 Frc consts  --      6.2432                 6.3184                 6.4432
 IR Inten    --     18.4546                12.0975                 9.2220

                     85                     86                     87
                      A                      A                      A
 Frequencies --   3178.1300              3179.6591              3184.6517
 Red. masses --      1.0866                 1.0859                 1.0870
 Frc consts  --      6.4665                 6.4685                 6.4956
 IR Inten    --      2.9566                 5.5739                 0.2735

                     88                     89                     90
                      A                      A                      A
 Frequencies --   3188.5797              3193.2685              3196.8927
 Red. masses --      1.0900                 1.0905                 1.0939
 Frc consts  --      6.5291                 6.5518                 6.5868
 IR Inten    --      8.6499                 9.8464                39.3986

                     91                     92                     93
                      A                      A                      A
 Frequencies --   3201.6008              3209.2489              3212.2295
 Red. masses --      1.0942                 1.0979                 1.0980
 Frc consts  --      6.6082                 6.6621                 6.6755
 IR Inten    --     31.7920                23.1990                21.7858

 - Thermochemistry -
 -------------------
 Temperature   298.150 Kelvin.  Pressure   1.00000 Atm.
 Atom     1 has atomic number  6 and mass  12.00000

 Molecular mass:   224.12012 amu.
 Principal axes and moments of inertia in atomic units:
                           1         2         3
     Eigenvalues --  2047.946706975.161207890.15258
           X            1.00000   0.00063   0.00273
           Y           -0.00068   0.99981   0.01957
           Z           -0.00272  -0.01957   0.99980
 This molecule is an asymmetric top.
 Rotational symmetry number  1.
 Warning -- assumption of classical behavior for rotation
           may cause significant error
 Rotational temperatures (Kelvin)      0.04229     0.01242     0.01098
 Rotational constants (GHZ):           0.88124     0.25874     0.22873
 Zero-point vibrational energy     728581.7 (Joules/Mol)
                                  174.13522 (Kcal/Mol)
 Warning -- explicit consideration of  20 degrees of freedom as
           vibrations may cause significant error
 Vibrational temperatures:     26.37    44.36    59.25    69.70   106.91
          (Kelvin)            141.86   213.94   267.87   311.47   370.89
                              426.76   506.38   528.10   547.12   601.26
                              601.59   723.82   770.85   821.85   868.94
                              913.85   918.19   986.68  1031.98  1033.92
                             1093.25  1113.42  1127.13  1140.69  1241.77
                             1242.09  1244.66  1304.95  1335.13  1341.09
                             1393.16  1397.27  1420.54  1431.39  1436.72
                             1451.20  1470.57  1471.47  1514.04  1527.54
                             1528.29  1602.36  1610.00  1622.78  1716.52
                             1718.98  1721.65  1748.47  1751.87  1761.56
                             1772.54  1797.94  1848.13  1946.55  1961.22
                             1967.53  1970.11  1981.00  1998.97  2013.83
                             2069.98  2161.74  2164.33  2169.30  2202.26
                             2225.15  2228.40  2368.24  2368.45  2395.46
                             2400.14  2616.66  4191.97  4383.73  4390.35
                             4402.81  4463.33  4500.53  4564.81  4572.62
                             4574.82  4582.00  4587.66  4594.40  4599.62
                             4606.39  4617.39  4621.68

 Zero-point correction=                           0.277502 (Hartree/Particle)
 Thermal correction to Energy=                    0.292346
 Thermal correction to Enthalpy=                  0.293290
 Thermal correction to Gibbs Free Energy=         0.232523
 Sum of electronic and zero-point Energies=           -694.349757
 Sum of electronic and thermal Energies=              -694.334913
 Sum of electronic and thermal Enthalpies=            -694.333968
 Sum of electronic and thermal Free Energies=         -694.394736

                     E (Thermal)             CV                S
                      KCal/Mol        Cal/Mol-Kelvin    Cal/Mol-Kelvin
 Total                  183.450             57.034            127.895
 Electronic               0.000              0.000              0.000
 Translational            0.889              2.981             42.124
 Rotational               0.889              2.981             33.088
 Vibrational            181.672             51.072             52.683
 Vibration     1          0.593              1.986              6.807
 Vibration     2          0.594              1.984              5.775
 Vibration     3          0.594              1.981              5.201
 Vibration     4          0.595              1.978              4.880
 Vibration     5          0.599              1.966              4.036
 Vibration     6          0.604              1.950              3.482
 Vibration     7          0.618              1.904              2.689
 Vibration     8          0.632              1.859              2.266
 Vibration     9          0.645              1.816              1.988
 Vibration    10          0.667              1.750              1.677
 Vibration    11          0.690              1.680              1.436
 Vibration    12          0.729              1.571              1.157
 Vibration    13          0.740              1.540              1.092
 Vibration    14          0.750              1.512              1.038
 Vibration    15          0.781              1.431              0.899
 Vibration    16          0.781              1.431              0.898
 Vibration    17          0.858              1.243              0.650
 Vibration    18          0.891              1.171              0.574
 Vibration    19          0.927              1.094              0.502
 Vibration    20          0.962              1.023              0.443

 Optimization completed.
    -- Stationary point found.
 Normal termination of Gaussian 16 at Fri Dec 11 13:23:47 2020.

 ----------------------------------------------------------------------
 # B3LYP/6-311++G(d,p) empiricaldispersion=gd3bj scf=xqc pop=npa geom=c
 heck
 ----------------------------------------------------------------------

 --------------------------------------
 CID_56622110_JID_7787_Energie_neutraal
 --------------------------------------
 Structure from the checkpoint file:  "JID_7787.chk"
 Charge =  0 Multiplicity = 1

 SCF Done:  E(RB3LYP) =  -694.811233129     A.U. after   16 cycles
 Normal termination of Gaussian 16 at Fri Dec 11 13:30:09 2020.

 ----------------------------------------------------------------------
 # B3LYP/6-311++G(d,p) empiricaldispersion=gd3bj scf=xqc pop=npa geom=c
 heck
 ----------------------------------------------------------------------

 ------------------------------------
 CID_56622110_JID_7787_Energie_kation
 ------------------------------------
 Structure from the checkpoint file:  "JID_7787.chk"
 Charge =  1 Multiplicity = 2

 SCF Done:  E(UB3LYP) =  -694.506332595     A.U. after   32 cycles
 Normal termination of Gaussian 16 at Fri Dec 11 13:47:57 2020.
 Gaussian 16:  ES64L-G16RevA.03 25-Dec-2016

 ----------------------------------------------------------------------
 # B3LYP/6-311++G(d,p) empiricaldispersion=gd3bj scf=xqc pop=npa geom=c
 heck
 ----------------------------------------------------------------------

 -----------------------------------
 CID_56622110_JID_7787_Energie_anion
 -----------------------------------
 Structure from the checkpoint file:  "JID_7787.chk"
 Charge = -1 Multiplicity = 2

                         Standard orientation:
 ---------------------------------------------------------------------
 Center     Atomic      Atomic             Coordinates (Angstroms)
 Number     Number       Type             X           Y           Z
 ---------------------------------------------------------------------
      1          6           0       -4.088201   -1.427356   -0.752390
      2          6           0       -3.741682   -0.199241   -1.315698
      3          6           0       -2.898829    0.674228   -0.626370
      4          6           0       -2.388545    0.337921    0.633438
      5          6           0       -2.745364   -0.898525    1.188044
      6          6           0       -3.587551   -1.774194    0.504372
      7          6           0       -1.427472    1.258510    1.348536
      8          6           0        0.033348    0.763432    1.290693
      9          6           0        0.538596    0.449183   -0.126351
     10          6           0        0.548436    1.656507   -1.047086
     11          8           0        0.379817    2.805229   -0.696374
     12          6           0        1.939629   -0.144261   -0.119938
     13          6           0        2.149121   -1.492674   -0.427427
     14          6           0        3.432545   -2.038223   -0.394973
     15          6           0        4.525109   -1.236863   -0.061144
     16          6           0        4.327048    0.111611    0.240453
     17          6           0        3.043075    0.653967    0.210190
     18          1           0       -4.746014   -2.108007   -1.285484
     19          1           0       -4.129304    0.081972   -2.291176
     20          1           0       -2.630966    1.631440   -1.067386
     21          1           0       -2.360259   -1.173828    2.167512
     22          1           0       -3.856793   -2.726472    0.953457
     23          1           0       -1.479238    2.259887    0.914123
     24          1           0       -1.712997    1.349783    2.404018
     25          1           0        0.683190    1.517664    1.747401
     26          1           0        0.136246   -0.150798    1.887322
     27          1           0       -0.131733   -0.284414   -0.593989
     28          1           0        0.765046    1.415410   -2.111281
     29          1           0        1.298805   -2.118707   -0.686496
     30          1           0        3.578775   -3.088319   -0.632320
     31          1           0        5.525305   -1.660012   -0.037988
     32          1           0        5.173246    0.742887    0.496765
     33          1           0        2.892578    1.705556    0.440424
 ---------------------------------------------------------------------

 SCF Done:  E(UB3LYP) =  -694.805174365     A.U. after   33 cycles
 SCF Done:  E(UB3LYP) =  -694.805174365     a.u. after    1 cycles

 The electronic state is 2-A.
 Alpha  occ. eigenvalues --  -18.97514 -10.10671 -10.07828 -10.07468 -10.07372
 Alpha  occ. eigenvalues --  -10.07230 -10.07033 -10.06933 -10.06865 -10.06733
 Alpha  occ. eigenvalues --  -10.06437 -10.06392 -10.06377 -10.06343 -10.06306
 Alpha  occ. eigenvalues --  -10.06150 -10.05843  -0.90985  -0.75860  -0.75089
 Alpha  occ. eigenvalues --   -0.70067  -0.66766  -0.64534  -0.63809  -0.62382
 Alpha  occ. eigenvalues --   -0.58389  -0.52326  -0.50563  -0.50000  -0.48592
 Alpha  occ. eigenvalues --   -0.47684  -0.42828  -0.41151  -0.40317  -0.37689
 Alpha  occ. eigenvalues --   -0.36078  -0.35637  -0.35242  -0.33259  -0.32944
 Alpha  occ. eigenvalues --   -0.32173  -0.31680  -0.31362  -0.29771  -0.29510
 Alpha  occ. eigenvalues --   -0.28529  -0.26412  -0.26023  -0.25453  -0.24846
 Alpha  occ. eigenvalues --   -0.24602  -0.23578  -0.22978  -0.22129  -0.21922
 Alpha  occ. eigenvalues --   -0.15592  -0.15061  -0.14921  -0.14071  -0.11995
 Alpha  occ. eigenvalues --    0.04597
 Alpha virt. eigenvalues --    0.06283   0.06885   0.07705   0.08037   0.08393
 Alpha virt. eigenvalues --    0.08490   0.08917   0.09126   0.09666   0.09885
 Alpha virt. eigenvalues --    0.10452   0.10610   0.11300   0.11730   0.12122

  Beta  occ. eigenvalues --  -18.97190 -10.10381 -10.07828 -10.07443 -10.07370
  Beta  occ. eigenvalues --  -10.07174 -10.07019 -10.06861 -10.06843 -10.06752
  Beta  occ. eigenvalues --  -10.06423 -10.06420 -10.06339 -10.06338 -10.06225
  Beta  occ. eigenvalues --  -10.06141 -10.05741  -0.90371  -0.75805  -0.74958
  Beta  occ. eigenvalues --   -0.69978  -0.66652  -0.64453  -0.63672  -0.62301
  Beta  occ. eigenvalues --   -0.58209  -0.52183  -0.50467  -0.49892  -0.48273
  Beta  occ. eigenvalues --   -0.47602  -0.42515  -0.41087  -0.40162  -0.37596
  Beta  occ. eigenvalues --   -0.35969  -0.35564  -0.35131  -0.33194  -0.32818
  Beta  occ. eigenvalues --   -0.32109  -0.31547  -0.31219  -0.29686  -0.29307
  Beta  occ. eigenvalues --   -0.28306  -0.26023  -0.25784  -0.25220  -0.24696
  Beta  occ. eigenvalues --   -0.24047  -0.23466  -0.22869  -0.21990  -0.21437
  Beta  occ. eigenvalues --   -0.15376  -0.14840  -0.14550  -0.13769  -0.11726
  Beta virt. eigenvalues --    0.06694   0.07033   0.07801   0.08219   0.08338
  Beta virt. eigenvalues --    0.08666   0.09065   0.09152   0.09297   0.09787
  Beta virt. eigenvalues --    0.10056   0.10658   0.11186   0.11534   0.12161

 Mulliken charges and spin densities:
               1          2
     1  C    0.512598  -0.913061
     2  C   -0.298087   0.102834
     3  C   -0.849855   0.478561
     4  C    0.767164   0.275129
     5  C   -0.480544   0.239270
     6  C    0.356073  -0.572638
     7  C    0.045258  -0.811780
     8  C   -0.709964   0.027534
     9  C    0.623687  -0.988540
    10  C   -0.586817   0.174262
    11  O   -0.267195   0.101105
    12  C    1.507755   0.156875
    13  C   -1.234202   0.770148
    14  C    0.188768  -0.605022
    15  C   -0.020104  -0.193098
    16  C   -0.259229  -0.129754
    17  C   -0.400149   0.518799
    18  H   -0.192083   0.334746
    19  H    0.076721   0.085409
    20  H    0.146923   0.019412
    21  H   -0.039999   0.196408
    22  H   -0.569577   0.741086
    23  H    0.162514   0.037359
    24  H    0.081851   0.069760
    25  H    0.168010  -0.020267
    26  H    0.067318   0.075572
    27  H    0.264307  -0.044684
    28  H    0.070988  -0.012224
    29  H   -0.039782   0.177664
    30  H   -0.179883   0.336714
    31  H   -0.111144   0.245578
    32  H    0.025811   0.101689
    33  H    0.172870   0.025153
 Sum of Mulliken charges =  -1.00000   1.00000

 Dipole moment (field-independent basis, Debye):
    X=              0.2433    Y=              1.5273    Z=              0.4622  Tot=              1.6141
 Quadrupole moment (field-independent basis, Debye-Ang):
   XX=           -171.7061   YY=           -145.4749   ZZ=           -119.7234
   XY=             -5.7499   XZ=              5.5507   YZ=              4.4344

 Summary of Natural Population Analysis:

                                       Natural Population
                Natural  -----------------------------------------------
    Atom  No    Charge         Core      Valence    Rydberg      Total
 -----------------------------------------------------------------------
      C    1   -0.11263      0.99956     2.10266    0.01040     3.11263
      C    2   -0.09806      0.99956     2.08817    0.01032     3.09806
      C    3   -0.10034      0.99951     2.09282    0.00801     3.10034
      C    4   -0.01256      0.99950     2.00195    0.01111     3.01256
      C    5   -0.10278      0.99951     2.09330    0.00998     3.10278
      C    6   -0.09182      0.99956     2.08188    0.01037     3.09182
      C    7   -0.20028      0.99960     2.19213    0.00855     3.20028
      C    8   -0.17829      0.99961     2.16849    0.01019     3.17829
      C    9   -0.17067      0.99954     2.15947    0.01166     3.17067
      C   10    0.26418      0.99972     1.71494    0.02116     2.73582
      O   11   -0.26560      0.99988     3.25920    0.00652     4.26560
      C   12    0.00167      0.99949     1.98711    0.01173     2.99833
      C   13   -0.08563      0.99950     2.07580    0.01033     3.08563
      C   14   -0.10607      0.99957     2.09693    0.00958     3.10607
      C   15   -0.09745      0.99957     2.08783    0.01005     3.09745
      C   16   -0.09315      0.99957     2.08344    0.01014     3.09315
      C   17   -0.10497      0.99951     2.09779    0.00767     3.10497
      H   18    0.09914      0.00000     0.39995    0.00091     0.40086
      H   19    0.09723      0.00000     0.40204    0.00074     0.40277
      H   20    0.10363      0.00000     0.39507    0.00130     0.39637
      H   21    0.09913      0.00000     0.39985    0.00102     0.40087
      H   22    0.09980      0.00000     0.39885    0.00135     0.40020
      H   23    0.11205      0.00000     0.38670    0.00125     0.38795
      H   24    0.09834      0.00000     0.40074    0.00093     0.40166
      H   25    0.10230      0.00000     0.39666    0.00103     0.39770
      H   26    0.09775      0.00000     0.40129    0.00097     0.40225
      H   27    0.11331      0.00000     0.38446    0.00223     0.38669
      H   28    0.04036      0.00000     0.45741    0.00223     0.45964
      H   29    0.09989      0.00000     0.39905    0.00107     0.40011
      H   30    0.09762      0.00000     0.40141    0.00097     0.40238
      H   31    0.09551      0.00000     0.40362    0.00087     0.40449
      H   32    0.09501      0.00000     0.40416    0.00084     0.40499
      H   33    0.10340      0.00000     0.39535    0.00125     0.39660
 =======================================================================
   * Total *    0.00000     16.99276    42.81050    0.19674    60.00000

 Normal termination of Gaussian 16 at Fri Dec 11 14:07:04 2020.
