 Gaussian 16, Revision A.03,

 -----------------------------------------------------------
 # opt freq B3LYP/6-31G(d) empiricaldispersion=gd3bj scf=xqc
 -----------------------------------------------------------

 ------------------------------
 CID_23273129_JID_3816_neutraal
 ------------------------------
 Symbolic Z-matrix:
 Charge =  0 Multiplicity = 1

 SCF Done:  E(RB3LYP) =  -584.118157766     A.U. after   13 cycles
 SCF Done:  E(RB3LYP) =  -584.120583391     A.U. after   11 cycles
 SCF Done:  E(RB3LYP) =  -584.120739528     A.U. after   10 cycles
 SCF Done:  E(RB3LYP) =  -584.120784542     A.U. after   10 cycles
 SCF Done:  E(RB3LYP) =  -584.120798299     A.U. after    9 cycles
 SCF Done:  E(RB3LYP) =  -584.120800170     A.U. after    8 cycles
 SCF Done:  E(RB3LYP) =  -584.120801623     A.U. after    7 cycles
 SCF Done:  E(RB3LYP) =  -584.120804412     A.U. after    9 cycles
 SCF Done:  E(RB3LYP) =  -584.120808989     A.U. after    9 cycles
 SCF Done:  E(RB3LYP) =  -584.120812774     A.U. after    9 cycles
 SCF Done:  E(RB3LYP) =  -584.120943817     A.U. after   10 cycles
 SCF Done:  E(RB3LYP) =  -584.120943742     A.U. after    6 cycles
 SCF Done:  E(RB3LYP) =  -584.120944559     A.U. after    9 cycles
 SCF Done:  E(RB3LYP) =  -584.120944839     A.U. after    8 cycles
 SCF Done:  E(RB3LYP) =  -584.120944838     A.U. after    5 cycles
 Optimization completed.
    -- Stationary point found.
 Normal termination of Gaussian 16 at Thu Dec 10 00:42:54 2020.

 --------------------------------------------------------------------
 #N Geom=AllCheck Guess=TCheck SCRF=Check GenChk RB3LYP/6-31G(d) Freq
 --------------------------------------------------------------------

 Structure from the checkpoint file:  "JID_3816.chk"
 ------------------------------
 CID_23273129_JID_3816_neutraal
 ------------------------------
 Charge =  0 Multiplicity = 1

 SCF Done:  E(RB3LYP) =  -584.120944838     A.U. after    1 cycles

  Exact polarizability: 153.707  -1.011 114.512  -0.643   0.410 104.705
 Approx polarizability: 170.478   0.276 162.316   0.456   0.089 161.060

                      1                      2                      3
                      A                      A                      A
 Frequencies --     19.0201                31.9732                52.3542
 Red. masses --      3.8516                 3.4859                 3.4360
 Frc consts  --      0.0008                 0.0021                 0.0055
 IR Inten    --      0.1726                 0.0310                 0.0524

                      4                      5                      6
                      A                      A                      A
 Frequencies --     59.9515                65.5563                84.4836
 Red. masses --      2.4078                 2.7062                 3.0111
 Frc consts  --      0.0051                 0.0069                 0.0127
 IR Inten    --      0.3492                 0.0889                 0.5333

                      7                      8                      9
                      A                      A                      A
 Frequencies --    116.8571               158.0974               173.5693
 Red. masses --      2.6087                 2.5059                 2.9537
 Frc consts  --      0.0210                 0.0369                 0.0524
 IR Inten    --      0.1019                 2.5395                 2.1984

                     10                     11                     12
                      A                      A                      A
 Frequencies --    197.4765               221.8876               259.6484
 Red. masses --      1.8120                 1.4911                 1.3315
 Frc consts  --      0.0416                 0.0433                 0.0529
 IR Inten    --      3.4961                 0.4093                 1.5301

                     13                     14                     15
                      A                      A                      A
 Frequencies --    261.9485               277.2460               310.5146
 Red. masses --      1.2636                 1.7648                 1.7699
 Frc consts  --      0.0511                 0.0799                 0.1005
 IR Inten    --      0.1135                 0.6686                 0.2464

                     16                     17                     18
                      A                      A                      A
 Frequencies --    349.7226               384.0955               397.0642
 Red. masses --      2.4269                 2.1330                 2.0347
 Frc consts  --      0.1749                 0.1854                 0.1890
 IR Inten    --      0.3385                 0.5542                 2.0979

                     19                     20                     21
                      A                      A                      A
 Frequencies --    413.0403               452.6350               465.5015
 Red. masses --      2.6945                 2.1973                 2.2668
 Frc consts  --      0.2708                 0.2652                 0.2894
 IR Inten    --      9.3869                 4.0342                 7.8807

                     22                     23                     24
                      A                      A                      A
 Frequencies --    505.4032               555.3131               637.5838
 Red. masses --      2.5375                 2.7140                 4.5507
 Frc consts  --      0.3819                 0.4931                 1.0899
 IR Inten    --      5.4665                 2.0012                 8.2718

                     25                     26                     27
                      A                      A                      A
 Frequencies --    719.2224               755.4891               802.8860
 Red. masses --      1.2857                 1.5367                 2.5133
 Frc consts  --      0.3918                 0.5168                 0.9546
 IR Inten    --     16.0971                 0.4953                 2.6278

                     28                     29                     30
                      A                      A                      A
 Frequencies --    815.6027               838.3638               857.4484
 Red. masses --      1.1461                 1.6412                 2.1966
 Frc consts  --      0.4492                 0.6796                 0.9515
 IR Inten    --      4.3876                 2.2909                 2.0093

                     31                     32                     33
                      A                      A                      A
 Frequencies --    863.9551               903.8398               930.2557
 Red. masses --      2.2370                 1.9344                 1.4420
 Frc consts  --      0.9838                 0.9311                 0.7352
 IR Inten    --      9.1884                 4.4845                 0.6602

                     34                     35                     36
                      A                      A                      A
 Frequencies --    935.7081               986.5266              1001.2729
 Red. masses --      1.8337                 1.8101                 1.5520
 Frc consts  --      0.9459                 1.0379                 0.9168
 IR Inten    --      1.5209                 1.1060                 4.9309

                     37                     38                     39
                      A                      A                      A
 Frequencies --   1004.4762              1048.8399              1059.8195
 Red. masses --      2.8839                 2.2476                 1.8843
 Frc consts  --      1.7144                 1.4568                 1.2470
 IR Inten    --     32.1755               112.5288                 1.9453

                     40                     41                     42
                      A                      A                      A
 Frequencies --   1069.4733              1084.9042              1101.5388
 Red. masses --      2.4334                 1.3412                 2.3663
 Frc consts  --      1.6399                 0.9301                 1.6917
 IR Inten    --    198.9319                26.0485                21.6246

                     43                     44                     45
                      A                      A                      A
 Frequencies --   1118.2016              1134.0224              1160.6340
 Red. masses --      2.1785                 2.2887                 2.2042
 Frc consts  --      1.6049                 1.7341                 1.7494
 IR Inten    --     15.9501                45.5243                 7.4534

                     46                     47                     48
                      A                      A                      A
 Frequencies --   1164.7074              1177.6903              1188.0611
 Red. masses --      2.3526                 2.2313                 2.0549
 Frc consts  --      1.8803                 1.8234                 1.7089
 IR Inten    --    151.7335                14.8199                65.2280

                     49                     50                     51
                      A                      A                      A
 Frequencies --   1227.9858              1230.8759              1248.3006
 Red. masses --      1.4509                 1.5898                 1.5365
 Frc consts  --      1.2891                 1.4191                 1.4106
 IR Inten    --     11.8762                 3.8242                 6.1516

                     52                     53                     54
                      A                      A                      A
 Frequencies --   1294.8733              1318.6573              1328.9598
 Red. masses --      1.2885                 1.2075                 1.1260
 Frc consts  --      1.2729                 1.2371                 1.1717
 IR Inten    --      0.0705                 4.2950                 3.4552

                     55                     56                     57
                      A                      A                      A
 Frequencies --   1345.5495              1359.2165              1367.6103
 Red. masses --      1.1453                 1.1152                 1.3058
 Frc consts  --      1.2217                 1.2139                 1.4390
 IR Inten    --      2.7699                 1.9853                 3.0397

                     58                     59                     60
                      A                      A                      A
 Frequencies --   1386.9067              1390.9304              1407.6551
 Red. masses --      1.4476                 1.3177                 1.3543
 Frc consts  --      1.6406                 1.5020                 1.5811
 IR Inten    --     10.9149                 4.9250                 1.2702

                     61                     62                     63
                      A                      A                      A
 Frequencies --   1408.2755              1418.1334              1423.4151
 Red. masses --      1.2254                 1.3456                 1.3510
 Frc consts  --      1.4319                 1.5945                 1.6127
 IR Inten    --      7.3294                 3.2191                 1.2102

                     64                     65                     66
                      A                      A                      A
 Frequencies --   1430.4851              1440.0072              1440.1173
 Red. masses --      1.3775                 1.2845                 1.2776
 Frc consts  --      1.6608                 1.5693                 1.5611
 IR Inten    --      9.5953                 9.8364                17.3718

                     67                     68                     69
                      A                      A                      A
 Frequencies --   1443.7758              1462.8516              1508.2602
 Red. masses --      1.2749                 1.1887                 1.0716
 Frc consts  --      1.5657                 1.4987                 1.4363
 IR Inten    --      4.4816                10.3200                 0.7061

                     70                     71                     72
                      A                      A                      A
 Frequencies --   1516.6223              1518.4479              1521.2391
 Red. masses --      1.0699                 1.0480                 1.0627
 Frc consts  --      1.4499                 1.4237                 1.4490
 IR Inten    --      3.8240                 3.3976                 1.6057

                     73                     74                     75
                      A                      A                      A
 Frequencies --   1523.9710              1525.6761              1530.3030
 Red. masses --      1.0620                 1.0531                 1.0768
 Frc consts  --      1.4532                 1.4443                 1.4857
 IR Inten    --      2.9142                 0.3587                 9.5524

                     76                     77                     78
                      A                      A                      A
 Frequencies --   1533.0475              1536.9610              1537.5085
 Red. masses --      1.0655                 1.0641                 1.0619
 Frc consts  --      1.4755                 1.4810                 1.4791
 IR Inten    --      5.2068                 1.7500                 6.9290

                     79                     80                     81
                      A                      A                      A
 Frequencies --   1544.6262              1545.8109              1547.9948
 Red. masses --      1.0716                 1.0841                 1.0914
 Frc consts  --      1.5064                 1.5263                 1.5409
 IR Inten    --      2.9926                 3.5138                 1.1532

                     82                     83                     84
                      A                      A                      A
 Frequencies --   3028.5811              3035.1095              3039.3509
 Red. masses --      1.0639                 1.0624                 1.0595
 Frc consts  --      5.7494                 5.7661                 5.7665
 IR Inten    --     17.7226                24.2871                11.3934

                     85                     86                     87
                      A                      A                      A
 Frequencies --   3039.7604              3043.5564              3045.1039
 Red. masses --      1.0588                 1.0604                 1.0417
 Frc consts  --      5.7640                 5.7872                 5.6911
 IR Inten    --     26.6552                48.5812                31.0898

                     88                     89                     90
                      A                      A                      A
 Frequencies --   3048.5025              3052.8205              3057.7033
 Red. masses --      1.0640                 1.0396                 1.0558
 Frc consts  --      5.8258                 5.7087                 5.8162
 IR Inten    --      1.0376                43.5732                 8.9459

                     91                     92                     93
                      A                      A                      A
 Frequencies --   3059.7307              3061.7003              3066.7862
 Red. masses --      1.0621                 1.0770                 1.0974
 Frc consts  --      5.8583                 5.9482                 6.0811
 IR Inten    --     15.5274                 1.4068                32.4906

                     94                     95                     96
                      A                      A                      A
 Frequencies --   3067.1866              3075.5552              3082.2458
 Red. masses --      1.0875                 1.0969                 1.1002
 Frc consts  --      6.0278                 6.1134                 6.1583
 IR Inten    --     15.3771               109.0166                86.1764

                     97                     98                     99
                      A                      A                      A
 Frequencies --   3090.3329              3099.0862              3107.2075
 Red. masses --      1.1012                 1.1050                 1.1030
 Frc consts  --      6.1963                 6.2527                 6.2741
 IR Inten    --     59.9597                 5.3526                44.8720

                    100                    101                    102
                      A                      A                      A
 Frequencies --   3109.2951              3115.9452              3119.6277
 Red. masses --      1.1016                 1.1019                 1.1014
 Frc consts  --      6.2748                 6.3036                 6.3154
 IR Inten    --     51.9438                49.4477                39.8657

                    103                    104                    105
                      A                      A                      A
 Frequencies --   3125.4022              3133.8620              3149.9792
 Red. masses --      1.1010                 1.1044                 1.1024
 Frc consts  --      6.3363                 6.3908                 6.4447
 IR Inten    --     40.9305                42.1629                22.3725

 - Thermochemistry -
 -------------------
 Temperature   298.150 Kelvin.  Pressure   1.00000 Atm.
 Atom     1 has atomic number  6 and mass  12.00000

 Molecular mass:   188.17763 amu.
 Principal axes and moments of inertia in atomic units:
                           1         2         3
     Eigenvalues --   877.771276877.615477157.29590
           X            0.99999  -0.00184  -0.00316
           Y            0.00187   0.99996   0.00899
           Z            0.00314  -0.00900   0.99995
 This molecule is an asymmetric top.
 Rotational symmetry number  1.
 Warning -- assumption of classical behavior for rotation
           may cause significant error
 Rotational temperatures (Kelvin)      0.09867     0.01259     0.01210
 Rotational constants (GHZ):           2.05605     0.26241     0.25215
 Zero-point vibrational energy     904935.3 (Joules/Mol)
                                  216.28472 (Kcal/Mol)
 Warning -- explicit consideration of  23 degrees of freedom as
           vibrations may cause significant error
 Vibrational temperatures:     27.37    46.00    75.33    86.26    94.32
          (Kelvin)            121.55   168.13   227.47   249.73   284.12
                              319.25   373.58   376.89   398.90   446.76
                              503.17   552.63   571.29   594.27   651.24
                              669.75   727.16   798.97   917.34  1034.80
                             1086.98  1155.17  1173.47  1206.22  1233.68
                             1243.04  1300.42  1338.43  1346.28  1419.39
                             1440.61  1445.22  1509.05  1524.84  1538.73
                             1560.94  1584.87  1608.84  1631.61  1669.89
                             1675.75  1694.43  1709.35  1766.80  1770.96
                             1796.03  1863.03  1897.25  1912.08  1935.95
                             1955.61  1967.69  1995.45  2001.24  2025.30
                             2026.19  2040.38  2047.98  2058.15  2071.85
                             2072.01  2077.27  2104.72  2170.05  2182.08
                             2184.71  2188.72  2192.65  2195.11  2201.76
                             2205.71  2211.34  2212.13  2222.37  2224.08
                             2227.22  4357.45  4366.85  4372.95  4373.54
                             4379.00  4381.23  4386.12  4392.33  4399.35
                             4402.27  4405.10  4412.42  4413.00  4425.04
                             4434.66  4446.30  4458.89  4470.58  4473.58
                             4483.15  4488.45  4496.76  4508.93  4532.12

 Zero-point correction=                           0.344672 (Hartree/Particle)
 Thermal correction to Energy=                    0.360967
 Thermal correction to Enthalpy=                  0.361911
 Thermal correction to Gibbs Free Energy=         0.299019
 Sum of electronic and zero-point Energies=           -583.776273
 Sum of electronic and thermal Energies=              -583.759978
 Sum of electronic and thermal Enthalpies=            -583.759034
 Sum of electronic and thermal Free Energies=         -583.821926

                     E (Thermal)             CV                S
                      KCal/Mol        Cal/Mol-Kelvin    Cal/Mol-Kelvin
 Total                  226.510             59.296            132.368
 Electronic               0.000              0.000              0.000
 Translational            0.889              2.981             41.603
 Rotational               0.889              2.981             32.136
 Vibrational            224.733             53.335             58.630
 Vibration     1          0.593              1.986              6.734
 Vibration     2          0.594              1.983              5.703
 Vibration     3          0.596              1.977              4.726
 Vibration     4          0.597              1.973              4.459
 Vibration     5          0.597              1.971              4.283
 Vibration     6          0.601              1.960              3.784
 Vibration     7          0.608              1.935              3.152
 Vibration     8          0.621              1.894              2.572
 Vibration     9          0.627              1.875              2.396
 Vibration    10          0.637              1.843              2.156
 Vibration    11          0.648              1.808              1.944
 Vibration    12          0.668              1.746              1.664
 Vibration    13          0.669              1.742              1.649
 Vibration    14          0.678              1.716              1.551
 Vibration    15          0.699              1.654              1.360
 Vibration    16          0.727              1.576              1.167
 Vibration    17          0.753              1.504              1.023
 Vibration    18          0.764              1.476              0.974
 Vibration    19          0.777              1.442              0.916
 Vibration    20          0.811              1.355              0.788
 Vibration    21          0.823              1.327              0.750
 Vibration    22          0.861              1.238              0.645
 Vibration    23          0.911              1.128              0.533

 Optimization completed.
    -- Stationary point found.
 Normal termination of Gaussian 16 at Thu Dec 10 00:51:33 2020.

 ----------------------------------------------------------------------
 # B3LYP/6-311++G(d,p) empiricaldispersion=gd3bj scf=xqc pop=npa geom=c
 heck
 ----------------------------------------------------------------------

 --------------------------------------
 CID_23273129_JID_3816_Energie_neutraal
 --------------------------------------
 Structure from the checkpoint file:  "JID_3816.chk"
 Charge =  0 Multiplicity = 1

 SCF Done:  E(RB3LYP) =  -584.291144037     A.U. after   13 cycles
 Normal termination of Gaussian 16 at Thu Dec 10 00:55:18 2020.

 ----------------------------------------------------------------------
 # B3LYP/6-311++G(d,p) empiricaldispersion=gd3bj scf=xqc pop=npa geom=c
 heck
 ----------------------------------------------------------------------

 ------------------------------------
 CID_23273129_JID_3816_Energie_kation
 ------------------------------------
 Structure from the checkpoint file:  "JID_3816.chk"
 Charge =  1 Multiplicity = 2

 SCF Done:  E(UB3LYP) =  -583.950744917     A.U. after   33 cycles
 SCF Done:  E(UB3LYP) =  -583.950744922     a.u. after    2 cycles
 Normal termination of Gaussian 16 at Thu Dec 10 01:16:18 2020.
 Gaussian 16:  ES64L-G16RevA.03 25-Dec-2016

 ----------------------------------------------------------------------
 # B3LYP/6-311++G(d,p) empiricaldispersion=gd3bj scf=xqc pop=npa geom=c
 heck
 ----------------------------------------------------------------------

 -----------------------------------
 CID_23273129_JID_3816_Energie_anion
 -----------------------------------
 Structure from the checkpoint file:  "JID_3816.chk"
 Charge = -1 Multiplicity = 2

                         Standard orientation:
 ---------------------------------------------------------------------
 Center     Atomic      Atomic             Coordinates (Angstroms)
 Number     Number       Type             X           Y           Z
 ---------------------------------------------------------------------
      1          6           0        5.183932   -0.642393   -0.551134
      2          6           0        3.931240   -1.197196    0.133402
      3          6           0        3.193919   -0.172711    1.009245
      4          6           0        2.697297    1.079584    0.269045
      5          6           0        1.763648    0.801882   -0.920236
      6          6           0        0.518425   -0.043008   -0.601075
      7          6           0       -0.375386    0.540891    0.498544
      8          6           0       -0.998664    1.884308    0.116578
      9          8           0       -1.372632   -0.396316    0.961420
     10          6           0       -2.123615   -1.099668    0.009110
     11          8           0       -2.981560   -0.300884   -0.770104
     12          6           0       -4.081936    0.250822   -0.039129
     13          6           0       -5.275943   -0.696724   -0.019047
     14          1           0        4.938284    0.152444   -1.264190
     15          1           0        5.713659   -1.427032   -1.102697
     16          1           0        5.880788   -0.222222    0.184782
     17          1           0        3.247353   -1.596500   -0.627195
     18          1           0        4.212663   -2.052113    0.762009
     19          1           0        2.344963   -0.669842    1.496594
     20          1           0        3.862886    0.146405    1.820569
     21          1           0        2.192120    1.734179    0.991192
     22          1           0        3.557605    1.654637   -0.096135
     23          1           0        1.453331    1.759898   -1.355577
     24          1           0        2.325950    0.286926   -1.709447
     25          1           0       -0.063700   -0.154207   -1.524153
     26          1           0        0.824613   -1.051038   -0.293887
     27          1           0        0.231709    0.687547    1.398178
     28          1           0       -1.552625    1.806291   -0.822534
     29          1           0       -1.688200    2.211072    0.901105
     30          1           0       -0.223324    2.650692    0.006701
     31          1           0       -1.490207   -1.622066   -0.714256
     32          1           0       -2.686714   -1.834071    0.599490
     33          1           0       -3.759644    0.507589    0.977233
     34          1           0       -4.341367    1.183705   -0.549858
     35          1           0       -5.033517   -1.633986    0.494065
     36          1           0       -6.121864   -0.237244    0.505615
     37          1           0       -5.588716   -0.938184   -1.039949
 ---------------------------------------------------------------------

 SCF Done:  E(UB3LYP) =  -584.275257736     A.U. after   27 cycles

 The electronic state is 2-A.
 Alpha  occ. eigenvalues --  -19.03493 -19.03370 -10.16897 -10.12917 -10.12295
 Alpha  occ. eigenvalues --  -10.07512 -10.07450 -10.07093 -10.07046 -10.07000
 Alpha  occ. eigenvalues --  -10.06960 -10.06422 -10.06240  -0.97467  -0.91700
 Alpha  occ. eigenvalues --   -0.72518  -0.69388  -0.66856  -0.65146  -0.61256
 Alpha  occ. eigenvalues --   -0.58716  -0.56996  -0.53568  -0.51138  -0.47316
 Alpha  occ. eigenvalues --   -0.44913  -0.42779  -0.40974  -0.39880  -0.38327
 Alpha  occ. eigenvalues --   -0.37183  -0.35406  -0.34373  -0.33499  -0.32796
 Alpha  occ. eigenvalues --   -0.32017  -0.31375  -0.30720  -0.30219  -0.29158
 Alpha  occ. eigenvalues --   -0.28481  -0.27810  -0.26869  -0.26289  -0.25699
 Alpha  occ. eigenvalues --   -0.24955  -0.24249  -0.22808  -0.22261  -0.22049
 Alpha  occ. eigenvalues --   -0.20294  -0.18465  -0.17829   0.04233
 Alpha virt. eigenvalues --    0.05483   0.06754   0.07212   0.07613   0.07902
 Alpha virt. eigenvalues --    0.08667   0.09409   0.09537   0.09824   0.10358
 Alpha virt. eigenvalues --    0.10516   0.11329   0.11643   0.11789   0.12656

  Beta  occ. eigenvalues --  -19.03488 -19.03368 -10.16885 -10.12911 -10.12280
  Beta  occ. eigenvalues --  -10.07498 -10.07441 -10.07079 -10.07029 -10.06963
  Beta  occ. eigenvalues --  -10.06947 -10.06407 -10.06202  -0.97458  -0.91690
  Beta  occ. eigenvalues --   -0.72495  -0.69362  -0.66820  -0.65113  -0.61219
  Beta  occ. eigenvalues --   -0.58678  -0.56948  -0.53514  -0.51077  -0.47266
  Beta  occ. eigenvalues --   -0.44867  -0.42757  -0.40954  -0.39857  -0.38297
  Beta  occ. eigenvalues --   -0.37152  -0.35376  -0.34349  -0.33475  -0.32757
  Beta  occ. eigenvalues --   -0.31980  -0.31340  -0.30692  -0.30184  -0.29122
  Beta  occ. eigenvalues --   -0.28450  -0.27782  -0.26845  -0.26257  -0.25662
  Beta  occ. eigenvalues --   -0.24932  -0.24221  -0.22784  -0.22227  -0.22017
  Beta  occ. eigenvalues --   -0.20276  -0.18448  -0.17812
  Beta virt. eigenvalues --    0.06148   0.06560   0.07216   0.07580   0.08005
  Beta virt. eigenvalues --    0.08423   0.09001   0.09881   0.09929   0.10154
  Beta virt. eigenvalues --    0.10554   0.10831   0.11651   0.11957   0.12019

 Mulliken charges and spin densities:
               1          2
     1  C    1.177561  -1.812730
     2  C   -0.730419   0.533100
     3  C    0.198190  -0.371508
     4  C   -0.031461  -0.243918
     5  C    0.190773  -0.621343
     6  C    0.219529  -0.322326
     7  C   -0.830572   0.545925
     8  C    0.067082  -0.725500
     9  O   -0.077616   0.020362
    10  C    0.221174  -0.400276
    11  O   -0.095207   0.035037
    12  C   -0.719791   0.604284
    13  C    1.314474  -1.852764
    14  H   -0.175640   0.308595
    15  H   -0.311162   0.448152
    16  H   -0.202700   0.340691
    17  H    0.076314   0.044554
    18  H   -0.263527   0.410757
    19  H   -0.002493   0.166879
    20  H   -0.222428   0.382107
    21  H    0.009388   0.138625
    22  H   -0.144725   0.311126
    23  H    0.131241   0.030963
    24  H   -0.069425   0.254663
    25  H    0.064120   0.086488
    26  H    0.101439   0.105319
    27  H    0.064678   0.135743
    28  H    0.092974   0.096894
    29  H    0.000558   0.129954
    30  H   -0.192970   0.326024
    31  H    0.082507   0.105237
    32  H   -0.067835   0.194646
    33  H    0.193827  -0.034549
    34  H   -0.309141   0.454519
    35  H   -0.185568   0.311196
    36  H   -0.524560   0.660929
    37  H   -0.048584   0.202141
 Sum of Mulliken charges =  -1.00000   1.00000

 Dipole moment (field-independent basis, Debye):
    X=             -0.4920    Y=              0.4146    Z=             -0.2574  Tot=              0.6930
 Quadrupole moment (field-independent basis, Debye-Ang):
   XX=           -225.2804   YY=           -121.2067   ZZ=           -118.2606
   XY=              5.2503   XZ=              2.5318   YZ=              0.7356

 Summary of Natural Population Analysis:

                                       Natural Population
                Natural  -----------------------------------------------
    Atom  No    Charge         Core      Valence    Rydberg      Total
 -----------------------------------------------------------------------
      C    1   -0.28749      0.99967     2.28273    0.00509     3.28749
      C    2   -0.19300      0.99964     2.18460    0.00876     3.19300
      C    3   -0.19157      0.99963     2.18335    0.00860     3.19157
      C    4   -0.19358      0.99963     2.18534    0.00861     3.19358
      C    5   -0.19062      0.99962     2.18250    0.00851     3.19062
      C    6   -0.20778      0.99960     2.20079    0.00739     3.20778
      C    7    0.06553      0.99953     1.92203    0.01291     2.93447
      C    8   -0.30152      0.99964     2.29595    0.00593     3.30152
      O    9   -0.30680      0.99988     3.29768    0.00925     4.30680
      C   10    0.14345      0.99960     1.84030    0.01665     2.85655
      O   11   -0.30722      0.99989     3.29781    0.00951     4.30722
      C   12   -0.01666      0.99959     2.00411    0.01296     3.01666
      C   13   -0.29909      0.99967     2.29427    0.00516     3.29909
      H   14    0.09592      0.00000     0.40292    0.00116     0.40408
      H   15    0.09952      0.00000     0.39932    0.00115     0.40048
      H   16    0.09637      0.00000     0.40233    0.00130     0.40363
      H   17    0.09260      0.00000     0.40611    0.00130     0.40740
      H   18    0.09628      0.00000     0.40265    0.00107     0.40372
      H   19    0.09577      0.00000     0.40284    0.00138     0.40423
      H   20    0.09670      0.00000     0.40221    0.00108     0.40330
      H   21    0.09548      0.00000     0.40333    0.00119     0.40452
      H   22    0.09911      0.00000     0.39977    0.00113     0.40089
      H   23    0.09792      0.00000     0.40096    0.00111     0.40208
      H   24    0.09860      0.00000     0.40032    0.00108     0.40140
      H   25    0.10058      0.00000     0.39800    0.00142     0.39942
      H   26    0.10055      0.00000     0.39792    0.00153     0.39945
      H   27    0.08927      0.00000     0.40880    0.00193     0.41073
      H   28    0.10464      0.00000     0.39407    0.00129     0.39536
      H   29    0.10252      0.00000     0.39647    0.00101     0.39748
      H   30    0.09959      0.00000     0.39952    0.00089     0.40041
      H   31    0.07655      0.00000     0.42184    0.00161     0.42345
      H   32    0.07535      0.00000     0.42316    0.00149     0.42465
      H   33    0.08646      0.00000     0.41199    0.00156     0.41354
      H   34    0.08828      0.00000     0.41033    0.00139     0.41172
      H   35    0.09657      0.00000     0.40209    0.00133     0.40343
      H   36    0.10232      0.00000     0.39591    0.00177     0.39768
      H   37    0.09940      0.00000     0.39933    0.00128     0.40060
 =======================================================================
   * Total *   -0.00000     12.99558    39.85364    0.15078    53.00000

 Normal termination of Gaussian 16 at Thu Dec 10 01:26:24 2020.
