 Gaussian 16, Revision A.03,

 -----------------------------------------------------------
 # opt freq B3LYP/6-31G(d) empiricaldispersion=gd3bj scf=xqc
 -----------------------------------------------------------

 -------------------------------
 CID_147462622_JID_8348_neutraal
 -------------------------------
 Symbolic Z-matrix:
 Charge =  0 Multiplicity = 1

 SCF Done:  E(RB3LYP) =  -839.047643899     A.U. after   16 cycles
 SCF Done:  E(RB3LYP) =  -839.053939982     A.U. after   13 cycles
 SCF Done:  E(RB3LYP) =  -839.054406594     A.U. after   12 cycles
 SCF Done:  E(RB3LYP) =  -839.054073115     A.U. after   13 cycles
 SCF Done:  E(RB3LYP) =  -839.054693869     A.U. after   12 cycles
 SCF Done:  E(RB3LYP) =  -839.054719048     A.U. after   11 cycles
 SCF Done:  E(RB3LYP) =  -839.054743904     A.U. after   10 cycles
 SCF Done:  E(RB3LYP) =  -839.054747834     A.U. after   10 cycles
 SCF Done:  E(RB3LYP) =  -839.054749352     A.U. after    9 cycles
 SCF Done:  E(RB3LYP) =  -839.054750565     A.U. after    9 cycles
 SCF Done:  E(RB3LYP) =  -839.054751306     A.U. after    9 cycles
 SCF Done:  E(RB3LYP) =  -839.054751748     A.U. after    9 cycles
 SCF Done:  E(RB3LYP) =  -839.054752039     A.U. after    8 cycles
 SCF Done:  E(RB3LYP) =  -839.054752122     A.U. after    7 cycles
 Optimization completed.
    -- Stationary point found.
 Normal termination of Gaussian 16 at Fri Dec 11 20:10:28 2020.

 --------------------------------------------------------------------
 #N Geom=AllCheck Guess=TCheck SCRF=Check GenChk RB3LYP/6-31G(d) Freq
 --------------------------------------------------------------------

 Structure from the checkpoint file:  "JID_8348.chk"
 -------------------------------
 CID_147462622_JID_8348_neutraal
 -------------------------------
 Charge =  0 Multiplicity = 1

 SCF Done:  E(RB3LYP) =  -839.054752122     A.U. after    1 cycles

  Exact polarizability: 216.057  -5.807 141.683  16.064  25.220 112.696
 Approx polarizability: 315.425   7.412 232.818  45.715  79.749 204.931

                      1                      2                      3
                      A                      A                      A
 Frequencies --     27.2583                38.9143                50.7305
 Red. masses --      5.2862                 5.0091                 5.3698
 Frc consts  --      0.0023                 0.0045                 0.0081
 IR Inten    --      0.8166                 0.7252                 2.9379

                      4                      5                      6
                      A                      A                      A
 Frequencies --     88.1830               104.8717               127.9316
 Red. masses --      4.0489                 2.6437                 2.5941
 Frc consts  --      0.0186                 0.0171                 0.0250
 IR Inten    --      1.3449                 0.3612                 0.5802

                      7                      8                      9
                      A                      A                      A
 Frequencies --    138.5436               151.8248               157.8209
 Red. masses --      1.4642                 3.8852                 1.9846
 Frc consts  --      0.0166                 0.0528                 0.0291
 IR Inten    --      0.0795                 0.4066                 0.7574

                     10                     11                     12
                      A                      A                      A
 Frequencies --    195.3203               234.0031               249.9195
 Red. masses --      3.0230                 5.1619                 1.6014
 Frc consts  --      0.0679                 0.1665                 0.0589
 IR Inten    --      1.0544                 0.0931                 1.2277

                     13                     14                     15
                      A                      A                      A
 Frequencies --    268.5747               297.5961               317.5289
 Red. masses --      3.9813                 5.3476                 4.5541
 Frc consts  --      0.1692                 0.2790                 0.2705
 IR Inten    --      3.7146                 6.0901                10.2758

                     16                     17                     18
                      A                      A                      A
 Frequencies --    360.5173               364.3455               391.5141
 Red. masses --      6.2303                 5.4522                 3.8009
 Frc consts  --      0.4771                 0.4264                 0.3433
 IR Inten    --      5.4957                 6.3424                10.6972

                     19                     20                     21
                      A                      A                      A
 Frequencies --    403.8752               468.4212               491.2765
 Red. masses --      3.5967                 2.5997                 8.6394
 Frc consts  --      0.3457                 0.3361                 1.2285
 IR Inten    --      6.1133                11.4152                 6.4846

                     22                     23                     24
                      A                      A                      A
 Frequencies --    513.1900               528.3443               591.0509
 Red. masses --      3.8083                 4.6941                 4.3110
 Frc consts  --      0.5909                 0.7720                 0.8873
 IR Inten    --      6.2776                 4.4782                14.6233

                     25                     26                     27
                      A                      A                      A
 Frequencies --    599.5118               642.2340               672.6751
 Red. masses --      2.1144                 5.5065                 4.4897
 Frc consts  --      0.4477                 1.3382                 1.1969
 IR Inten    --     74.1153                12.0185                 3.3809

                     28                     29                     30
                      A                      A                      A
 Frequencies --    717.4760               731.3140               751.8302
 Red. masses --      4.0284                 3.1516                 3.8378
 Frc consts  --      1.2218                 0.9931                 1.2781
 IR Inten    --     11.0526                 1.5889                 3.0924

                     31                     32                     33
                      A                      A                      A
 Frequencies --    766.3771               774.3609               816.0767
 Red. masses --      2.8029                 1.9658                 2.5943
 Frc consts  --      0.9699                 0.6945                 1.0180
 IR Inten    --     17.9645                31.3593                 7.0033

                     34                     35                     36
                      A                      A                      A
 Frequencies --    845.4935               868.6077               870.5726
 Red. masses --      2.4187                 2.7461                 1.9633
 Frc consts  --      1.0187                 1.2207                 0.8767
 IR Inten    --     30.0343                 5.1331                 1.1402

                     37                     38                     39
                      A                      A                      A
 Frequencies --    905.9177               925.1297               968.6787
 Red. masses --      3.9076                 2.8594                 1.3319
 Frc consts  --      1.8894                 1.4419                 0.7363
 IR Inten    --      6.5241                 4.1714                 0.5726

                     40                     41                     42
                      A                      A                      A
 Frequencies --    976.6611               998.1690              1046.4079
 Red. masses --      2.7218                 1.2877                 3.7592
 Frc consts  --      1.5297                 0.7559                 2.4252
 IR Inten    --      3.8879                 0.0588                21.6896

                     43                     44                     45
                      A                      A                      A
 Frequencies --   1056.6741              1075.7382              1118.2118
 Red. masses --      2.2349                 2.8354                 2.1594
 Frc consts  --      1.4702                 1.9332                 1.5909
 IR Inten    --      3.0318                21.9594                 1.9462

                     46                     47                     48
                      A                      A                      A
 Frequencies --   1122.5283              1148.6993              1186.5207
 Red. masses --      2.0156                 1.7785                 1.2810
 Frc consts  --      1.4964                 1.3827                 1.0626
 IR Inten    --     41.8666                12.6266                 0.7408

                     49                     50                     51
                      A                      A                      A
 Frequencies --   1191.8375              1214.8129              1217.7992
 Red. masses --      1.1541                 2.1923                 2.1661
 Frc consts  --      0.9659                 1.9062                 1.8927
 IR Inten    --      5.5401                12.2678                30.5169

                     52                     53                     54
                      A                      A                      A
 Frequencies --   1223.2913              1267.9937              1281.1619
 Red. masses --      2.1358                 3.7320                 1.6924
 Frc consts  --      1.8831                 3.5353                 1.6367
 IR Inten    --     33.8998               238.5607                52.6635

                     55                     56                     57
                      A                      A                      A
 Frequencies --   1296.2859              1303.4662              1321.7413
 Red. masses --      2.1654                 1.5896                 1.5745
 Frc consts  --      2.1438                 1.5912                 1.6206
 IR Inten    --      7.6378                48.5992                41.9149

                     58                     59                     60
                      A                      A                      A
 Frequencies --   1362.4448              1392.4211              1398.6719
 Red. masses --      2.1599                 1.5053                 3.2638
 Frc consts  --      2.3622                 1.7195                 3.7619
 IR Inten    --      5.5737                 3.0266                29.5713

                     61                     62                     63
                      A                      A                      A
 Frequencies --   1410.8721              1437.0215              1478.0530
 Red. masses --      2.9295                 1.2481                 1.8085
 Frc consts  --      3.4357                 1.5185                 2.3278
 IR Inten    --      2.3498                 4.3843                 7.2657

                     64                     65                     66
                      A                      A                      A
 Frequencies --   1490.8975              1512.5343              1518.5584
 Red. masses --      1.2035                 1.0479                 1.0809
 Frc consts  --      1.5762                 1.4125                 1.4685
 IR Inten    --      6.6954                 5.4860                 7.5379

                     67                     68                     69
                      A                      A                      A
 Frequencies --   1523.8757              1525.9656              1526.5487
 Red. masses --      1.0719                 2.4259                 1.0591
 Frc consts  --      1.4666                 3.3282                 1.4542
 IR Inten    --      6.0656                62.9709                 7.2305

                     70                     71                     72
                      A                      A                      A
 Frequencies --   1540.9058              1554.6936              1637.4630
 Red. masses --      1.0523                 2.8671                 6.0392
 Frc consts  --      1.4721                 4.0831                 9.5405
 IR Inten    --      3.9992                58.5239                18.5290

                     73                     74                     75
                      A                      A                      A
 Frequencies --   1638.9528              1674.5285              1725.9212
 Red. masses --      4.5805                 5.4546                12.4745
 Frc consts  --      7.2494                 9.0115                21.8935
 IR Inten    --      0.0729                88.9217               234.6859

                     76                     77                     78
                      A                      A                      A
 Frequencies --   1830.3508              3051.6773              3063.7935
 Red. masses --     11.4536                 1.0380                 1.0651
 Frc consts  --     22.6079                 5.6952                 5.8905
 IR Inten    --    286.5261                30.8972                11.0471

                     79                     80                     81
                      A                      A                      A
 Frequencies --   3071.7372              3076.3229              3102.9981
 Red. masses --      1.0772                 1.0292                 1.1019
 Frc consts  --      5.9887                 5.7387                 6.2510
 IR Inten    --      7.3646                34.3189                10.0402

                     82                     83                     84
                      A                      A                      A
 Frequencies --   3116.4116              3140.4544              3152.5860
 Red. masses --      1.1025                 1.1011                 1.1075
 Frc consts  --      6.3089                 6.3981                 6.4854
 IR Inten    --     36.5918                37.1665                18.5523

                     85                     86                     87
                      A                      A                      A
 Frequencies --   3181.1718              3185.7387              3201.1337
 Red. masses --      1.1074                 1.0875                 1.0902
 Frc consts  --      6.6027                 6.5027                 6.5820
 IR Inten    --     16.2193                 4.3948                13.0604

                     88                     89                     90
                      A                      A                      A
 Frequencies --   3213.8563              3228.4539              3631.0814
 Red. masses --      1.0932                 1.0947                 1.0785
 Frc consts  --      6.6529                 6.7226                 8.3784
 IR Inten    --     14.5126                 8.6278                63.3157

 - Thermochemistry -
 -------------------
 Temperature   298.150 Kelvin.  Pressure   1.00000 Atm.
 Atom     1 has atomic number  6 and mass  12.00000

 Molecular mass:   246.10044 amu.
 Principal axes and moments of inertia in atomic units:
                           1         2         3
     Eigenvalues --  2461.522556291.866957482.20940
           X            0.99987  -0.01593  -0.00052
           Y            0.01591   0.99947  -0.02837
           Z            0.00097   0.02836   0.99960
 This molecule is an asymmetric top.
 Rotational symmetry number  1.
 Warning -- assumption of classical behavior for rotation
           may cause significant error
 Rotational temperatures (Kelvin)      0.03519     0.01377     0.01158
 Rotational constants (GHZ):           0.73318     0.28684     0.24120
 Zero-point vibrational energy     676272.4 (Joules/Mol)
                                  161.63297 (Kcal/Mol)
 Warning -- explicit consideration of  25 degrees of freedom as
           vibrations may cause significant error
 Vibrational temperatures:     39.22    55.99    72.99   126.88   150.89
          (Kelvin)            184.07   199.33   218.44   227.07   281.02
                              336.68   359.58   386.42   428.17   456.85
                              518.70   524.21   563.30   581.09   673.95
                              706.84   738.37   760.17   850.39   862.56
                              924.03   967.83  1032.29  1052.20  1081.72
                             1102.65  1114.13  1174.15  1216.48  1249.73
                             1252.56  1303.41  1331.06  1393.71  1405.20
                             1436.14  1505.55  1520.32  1547.75  1608.86
                             1615.07  1652.72  1707.14  1714.79  1747.84
                             1752.14  1760.04  1824.36  1843.31  1865.07
                             1875.40  1901.69  1960.25  2003.38  2012.38
                             2029.93  2067.55  2126.59  2145.07  2176.20
                             2184.87  2192.52  2195.52  2196.36  2217.02
                             2236.86  2355.94  2358.09  2409.27  2483.22
                             2633.47  4390.68  4408.12  4419.54  4426.14
                             4464.52  4483.82  4518.41  4535.87  4577.00
                             4583.57  4605.72  4624.02  4645.03  5224.32

 Zero-point correction=                           0.257579 (Hartree/Particle)
 Thermal correction to Energy=                    0.274076
 Thermal correction to Enthalpy=                  0.275020
 Thermal correction to Gibbs Free Energy=         0.212421
 Sum of electronic and zero-point Energies=           -838.797174
 Sum of electronic and thermal Energies=              -838.780677
 Sum of electronic and thermal Enthalpies=            -838.779732
 Sum of electronic and thermal Free Energies=         -838.842331

                     E (Thermal)             CV                S
                      KCal/Mol        Cal/Mol-Kelvin    Cal/Mol-Kelvin
 Total                  171.985             61.818            131.750
 Electronic               0.000              0.000              0.000
 Translational            0.889              2.981             42.402
 Rotational               0.889              2.981             33.116
 Vibrational            170.208             55.857             56.232
 Vibration     1          0.593              1.984              6.020
 Vibration     2          0.594              1.981              5.314
 Vibration     3          0.595              1.977              4.789
 Vibration     4          0.601              1.957              3.700
 Vibration     5          0.605              1.945              3.362
 Vibration     6          0.611              1.925              2.977
 Vibration     7          0.614              1.915              2.824
 Vibration     8          0.619              1.901              2.649
 Vibration     9          0.621              1.894              2.576
 Vibration    10          0.636              1.846              2.177
 Vibration    11          0.654              1.789              1.848
 Vibration    12          0.663              1.763              1.731
 Vibration    13          0.673              1.731              1.605
 Vibration    14          0.691              1.678              1.430
 Vibration    15          0.704              1.640              1.323
 Vibration    16          0.735              1.554              1.120
 Vibration    17          0.738              1.546              1.104
 Vibration    18          0.759              1.488              0.994
 Vibration    19          0.769              1.462              0.949
 Vibration    20          0.826              1.320              0.742
 Vibration    21          0.847              1.269              0.680
 Vibration    22          0.868              1.221              0.626
 Vibration    23          0.883              1.187              0.591
 Vibration    24          0.948              1.051              0.465
 Vibration    25          0.958              1.033              0.450

 Optimization completed.
    -- Stationary point found.
 Normal termination of Gaussian 16 at Fri Dec 11 20:23:08 2020.

 ----------------------------------------------------------------------
 # B3LYP/6-311++G(d,p) empiricaldispersion=gd3bj scf=xqc pop=npa geom=c
 heck
 ----------------------------------------------------------------------

 ---------------------------------------
 CID_147462622_JID_8348_Energie_neutraal
 ---------------------------------------
 Structure from the checkpoint file:  "JID_8348.chk"
 Charge =  0 Multiplicity = 1

 SCF Done:  E(RB3LYP) =  -839.287257327     A.U. after   16 cycles
 Normal termination of Gaussian 16 at Fri Dec 11 20:29:33 2020.

 ----------------------------------------------------------------------
 # B3LYP/6-311++G(d,p) empiricaldispersion=gd3bj scf=xqc pop=npa geom=c
 heck
 ----------------------------------------------------------------------

 -------------------------------------
 CID_147462622_JID_8348_Energie_kation
 -------------------------------------
 Structure from the checkpoint file:  "JID_8348.chk"
 Charge =  1 Multiplicity = 2

 SCF Done:  E(UB3LYP) =  -838.989464715     A.U. after   27 cycles
 Normal termination of Gaussian 16 at Fri Dec 11 20:45:07 2020.
 Gaussian 16:  ES64L-G16RevA.03 25-Dec-2016

 ----------------------------------------------------------------------
 # B3LYP/6-311++G(d,p) empiricaldispersion=gd3bj scf=xqc pop=npa geom=c
 heck
 ----------------------------------------------------------------------

 ------------------------------------
 CID_147462622_JID_8348_Energie_anion
 ------------------------------------
 Structure from the checkpoint file:  "JID_8348.chk"
 Charge = -1 Multiplicity = 2

                         Standard orientation:
 ---------------------------------------------------------------------
 Center     Atomic      Atomic             Coordinates (Angstroms)
 Number     Number       Type             X           Y           Z
 ---------------------------------------------------------------------
      1          6           0       -2.512271    2.986528   -0.705987
      2          6           0       -2.799106    1.666544    0.012719
      3          6           0       -1.938810    0.495046   -0.502252
      4          6           0       -0.473661    0.576364   -0.157342
      5          7           0       -0.065136    1.487497    0.678030
      6          7           0        1.240958    1.538286    0.981129
      7          6           0        2.211520    0.701988    0.484124
      8          6           0        3.560546    0.838264    0.866375
      9          6           0        4.500030   -0.028118    0.337375
     10          6           0        4.126149   -1.037813   -0.572223
     11          6           0        2.801341   -1.170225   -0.945704
     12          6           0        1.825180   -0.303084   -0.425084
     13          6           0        0.413468   -0.418374   -0.795157
     14          8           0       -0.027827   -1.270209   -1.570591
     15          6           0       -2.551035   -0.825058   -0.034949
     16          8           0       -3.560559   -1.303561   -0.499551
     17          8           0       -1.875863   -1.364673    1.002663
     18          6           0       -2.392162   -2.617284    1.475753
     19          1           0       -1.483247    3.315542   -0.537470
     20          1           0       -3.182661    3.774685   -0.345796
     21          1           0       -2.666702    2.884578   -1.786885
     22          1           0       -2.640771    1.781670    1.090545
     23          1           0       -3.847719    1.387625   -0.136711
     24          1           0       -2.021334    0.449890   -1.594616
     25          1           0        1.482004    2.270802    1.633121
     26          1           0        3.850353    1.616037    1.568025
     27          1           0        5.541039    0.074121    0.629860
     28          1           0        4.880070   -1.706814   -0.974829
     29          1           0        2.472539   -1.934736   -1.641792
     30          1           0       -3.423135   -2.501942    1.820199
     31          1           0       -2.363869   -3.362619    0.676972
     32          1           0       -1.740469   -2.910444    2.299211
 ---------------------------------------------------------------------

 SCF Done:  E(UB3LYP) =  -839.308095805     A.U. after   26 cycles

 The electronic state is 2-A.
 Alpha  occ. eigenvalues --  -19.05366 -18.99413 -18.91271 -14.23834 -14.19035
 Alpha  occ. eigenvalues --  -10.18180 -10.12101 -10.08605 -10.06401 -10.06344
 Alpha  occ. eigenvalues --  -10.05943 -10.05368 -10.05258 -10.03812 -10.03218
 Alpha  occ. eigenvalues --  -10.03208 -10.03153 -10.01982  -0.99331  -0.90555
 Alpha  occ. eigenvalues --   -0.89442  -0.85126  -0.73703  -0.70650  -0.67252
 Alpha  occ. eigenvalues --   -0.63368  -0.62544  -0.60876  -0.58236  -0.51597
 Alpha  occ. eigenvalues --   -0.49977  -0.49125  -0.47146  -0.44955  -0.41430
 Alpha  occ. eigenvalues --   -0.40857  -0.38686  -0.37570  -0.37050  -0.35965
 Alpha  occ. eigenvalues --   -0.34142  -0.32457  -0.31977  -0.31190  -0.30784
 Alpha  occ. eigenvalues --   -0.29978  -0.29257  -0.28465  -0.27096  -0.25923
 Alpha  occ. eigenvalues --   -0.25755  -0.23910  -0.23755  -0.23414  -0.22803
 Alpha  occ. eigenvalues --   -0.22205  -0.21456  -0.21005  -0.19429  -0.16747
 Alpha  occ. eigenvalues --   -0.15869  -0.14471  -0.12097  -0.07967  -0.07941
 Alpha  occ. eigenvalues --    0.03871
 Alpha virt. eigenvalues --    0.07921   0.08293   0.08492   0.09550   0.10508
 Alpha virt. eigenvalues --    0.10885   0.11181   0.11408   0.11893   0.12136
 Alpha virt. eigenvalues --    0.12611   0.13072   0.13242   0.13476   0.14465

  Beta  occ. eigenvalues --  -19.05365 -18.99414 -18.90836 -14.23689 -14.18446
  Beta  occ. eigenvalues --  -10.18183 -10.12100 -10.08651 -10.06343 -10.06114
  Beta  occ. eigenvalues --  -10.05944 -10.05439 -10.05255 -10.03668 -10.03304
  Beta  occ. eigenvalues --  -10.03167 -10.02995 -10.01692  -0.99331  -0.90555
  Beta  occ. eigenvalues --   -0.88861  -0.84338  -0.73368  -0.70455  -0.66976
  Beta  occ. eigenvalues --   -0.63331  -0.62246  -0.60550  -0.58123  -0.51245
  Beta  occ. eigenvalues --   -0.49498  -0.49027  -0.46929  -0.44863  -0.41237
  Beta  occ. eigenvalues --   -0.40559  -0.38621  -0.37474  -0.36959  -0.35876
  Beta  occ. eigenvalues --   -0.34117  -0.32359  -0.31891  -0.30974  -0.29974
  Beta  occ. eigenvalues --   -0.29740  -0.29121  -0.28393  -0.27013  -0.25830
  Beta  occ. eigenvalues --   -0.25376  -0.23867  -0.23651  -0.22843  -0.22132
  Beta  occ. eigenvalues --   -0.21663  -0.20858  -0.20140  -0.19317  -0.16572
  Beta  occ. eigenvalues --   -0.15238  -0.13229  -0.10664  -0.07531  -0.06670
  Beta virt. eigenvalues --    0.07891   0.08238   0.08462   0.09518   0.10016
  Beta virt. eigenvalues --    0.10517   0.10849   0.11292   0.11658   0.12001
  Beta virt. eigenvalues --    0.12131   0.12619   0.13073   0.13405   0.14162

 Mulliken charges and spin densities:
               1          2
     1  C   -0.611984  -0.003098
     2  C   -0.024234  -0.008307
     3  C    0.457228  -0.038192
     4  C   -0.873203  -0.077286
     5  N   -0.000349   0.299389
     6  N   -0.060061   0.022956
     7  C   -2.070647  -0.085165
     8  C   -0.701367   0.135069
     9  C   -0.289350   0.129385
    10  C   -0.410094   0.009326
    11  C    0.464497   0.272800
    12  C    2.021260  -0.029657
    13  C    0.220526   0.215267
    14  O   -0.392603   0.171748
    15  C   -0.478012   0.018106
    16  O   -0.250527  -0.000281
    17  O    0.059198  -0.004165
    18  C   -0.212104  -0.005112
    19  H    0.166761   0.004444
    20  H    0.114086   0.002819
    21  H    0.109351  -0.000301
    22  H    0.157626   0.002180
    23  H    0.160624   0.000217
    24  H    0.260256   0.000422
    25  H    0.281875  -0.003242
    26  H    0.082771  -0.014608
    27  H    0.105296  -0.009273
    28  H    0.104121   0.000548
    29  H    0.155113  -0.020528
    30  H    0.141887   0.005756
    31  H    0.176452   0.007378
    32  H    0.135606   0.001405
 Sum of Mulliken charges =  -1.00000   1.00000

 Dipole moment (field-independent basis, Debye):
    X=             -1.6877    Y=              2.3752    Z=              4.2938  Tot=              5.1891
 Quadrupole moment (field-independent basis, Debye-Ang):
   XX=           -149.1054   YY=           -116.8830   ZZ=           -117.7273
   XY=              1.1670   XZ=             -2.7774   YZ=             -5.8184

 Summary of Natural Population Analysis:

                                       Natural Population
                Natural  -----------------------------------------------
    Atom  No    Charge         Core      Valence    Rydberg      Total
 -----------------------------------------------------------------------
      C    1   -0.28504      0.99967     2.28101    0.00436     3.28504
      C    2   -0.18362      0.99963     2.17684    0.00715     3.18362
      C    3   -0.16551      0.99951     2.15042    0.01558     3.16551
      C    4    0.04179      0.99955     1.93996    0.01870     2.95821
      N    5   -0.05310      0.99964     2.53974    0.01372     3.55310
      N    6   -0.16244      0.99965     2.65077    0.01202     3.66244
      C    7    0.08051      0.99947     1.91060    0.00942     2.91949
      C    8   -0.09616      0.99954     2.08765    0.00897     3.09616
      C    9   -0.06972      0.99958     2.06077    0.00937     3.06972
      C   10   -0.12728      0.99958     2.11813    0.00958     3.12728
      C   11   -0.02630      0.99954     2.01729    0.00946     3.02630
      C   12   -0.08510      0.99946     2.07628    0.00937     3.08510
      C   13    0.26394      0.99952     1.71719    0.01935     2.73606
      O   14   -0.28377      0.99989     3.27824    0.00565     4.28377
      C   15    0.42928      0.99967     1.54523    0.02582     2.57072
      O   16   -0.31969      0.99987     3.31347    0.00636     4.31969
      O   17   -0.27222      0.99985     3.26303    0.00934     4.27222
      C   18   -0.10558      0.99961     2.09759    0.00838     3.10558
      H   19    0.10750      0.00000     0.39132    0.00118     0.39250
      H   20    0.09009      0.00000     0.40903    0.00088     0.40991
      H   21    0.09198      0.00000     0.40706    0.00096     0.40802
      H   22    0.10119      0.00000     0.39750    0.00131     0.39881
      H   23    0.09516      0.00000     0.40357    0.00127     0.40484
      H   24    0.11840      0.00000     0.38015    0.00145     0.38160
      H   25    0.18097      0.00000     0.31708    0.00196     0.31903
      H   26    0.08688      0.00000     0.41131    0.00181     0.41312
      H   27    0.08778      0.00000     0.41118    0.00105     0.41222
      H   28    0.09014      0.00000     0.40880    0.00105     0.40986
      H   29    0.10326      0.00000     0.39499    0.00175     0.39674
      H   30    0.08527      0.00000     0.41358    0.00115     0.41473
      H   31    0.09304      0.00000     0.40589    0.00107     0.40696
      H   32    0.08837      0.00000     0.41085    0.00079     0.41163
 =======================================================================
   * Total *    0.00000     17.99323    46.78648    0.22029    65.00000

 Normal termination of Gaussian 16 at Fri Dec 11 21:00:25 2020.
