 Gaussian 16, Revision A.03,

 -----------------------------------------------------------
 # opt freq B3LYP/6-31G(d) empiricaldispersion=gd3bj scf=xqc
 -----------------------------------------------------------

 -------------------------------
 CID_120242929_JID_5309_neutraal
 -------------------------------
 Symbolic Z-matrix:
 Charge =  0 Multiplicity = 1

 SCF Done:  E(RB3LYP) =  -709.849459732     A.U. after   15 cycles
 SCF Done:  E(RB3LYP) =  -709.852901821     A.U. after   13 cycles
 SCF Done:  E(RB3LYP) =  -709.852914363     A.U. after   13 cycles
 SCF Done:  E(RB3LYP) =  -709.853966971     A.U. after   12 cycles
 SCF Done:  E(RB3LYP) =  -709.854080439     A.U. after   12 cycles
 SCF Done:  E(RB3LYP) =  -709.854298309     A.U. after   12 cycles
 SCF Done:  E(RB3LYP) =  -709.854518225     A.U. after   11 cycles
 SCF Done:  E(RB3LYP) =  -709.854657996     A.U. after   12 cycles
 SCF Done:  E(RB3LYP) =  -709.854714550     A.U. after   10 cycles
 SCF Done:  E(RB3LYP) =  -709.854731166     A.U. after   11 cycles
 SCF Done:  E(RB3LYP) =  -709.854743984     A.U. after    9 cycles
 SCF Done:  E(RB3LYP) =  -709.854745122     A.U. after   10 cycles
 SCF Done:  E(RB3LYP) =  -709.854745477     A.U. after    9 cycles
 SCF Done:  E(RB3LYP) =  -709.854745626     A.U. after    8 cycles
 SCF Done:  E(RB3LYP) =  -709.854745650     A.U. after    7 cycles
 Optimization completed.
    -- Stationary point found.
 Normal termination of Gaussian 16 at Thu Dec 10 15:36:09 2020.

 --------------------------------------------------------------------
 #N Geom=AllCheck Guess=TCheck SCRF=Check GenChk RB3LYP/6-31G(d) Freq
 --------------------------------------------------------------------

 Structure from the checkpoint file:  "JID_5309.chk"
 -------------------------------
 CID_120242929_JID_5309_neutraal
 -------------------------------
 Charge =  0 Multiplicity = 1

 SCF Done:  E(RB3LYP) =  -709.854745650     A.U. after    1 cycles

  Exact polarizability: 134.166  -6.071 127.211   2.686  10.304 112.018
 Approx polarizability: 163.634 -13.204 189.676  -4.931  29.909 181.002

                      1                      2                      3
                      A                      A                      A
 Frequencies --     15.4584                34.8331                47.2428
 Red. masses --      4.4013                 4.9233                 4.3031
 Frc consts  --      0.0006                 0.0035                 0.0057
 IR Inten    --      1.4276                 1.0846                 0.7070

                      4                      5                      6
                      A                      A                      A
 Frequencies --     54.5502                67.7586                70.3298
 Red. masses --      4.6476                 2.8330                 9.1666
 Frc consts  --      0.0081                 0.0077                 0.0267
 IR Inten    --      0.6274                 0.0278                 1.2977

                      7                      8                      9
                      A                      A                      A
 Frequencies --    101.6965               106.6715               131.7995
 Red. masses --      3.7041                 4.0388                 3.3572
 Frc consts  --      0.0226                 0.0271                 0.0344
 IR Inten    --      0.2070                 0.8521                 1.0924

                     10                     11                     12
                      A                      A                      A
 Frequencies --    197.8960               207.0862               256.9604
 Red. masses --      2.8167                 3.2319                 3.4592
 Frc consts  --      0.0650                 0.0817                 0.1346
 IR Inten    --      3.2259                 0.4602                 1.5281

                     13                     14                     15
                      A                      A                      A
 Frequencies --    283.5255               312.1297               344.4045
 Red. masses --      2.8613                 4.9685                 2.2991
 Frc consts  --      0.1355                 0.2852                 0.1607
 IR Inten    --      0.6500                 0.2994                 3.6692

                     16                     17                     18
                      A                      A                      A
 Frequencies --    398.3446               423.9317               431.4732
 Red. masses --      1.8792                 2.3780                 3.9781
 Frc consts  --      0.1757                 0.2518                 0.4363
 IR Inten    --      0.5449                 0.2836                 4.4692

                     19                     20                     21
                      A                      A                      A
 Frequencies --    474.9915               527.9278               581.1602
 Red. masses --      2.8101                 2.1570                 3.5394
 Frc consts  --      0.3735                 0.3542                 0.7043
 IR Inten    --      2.5124                 6.9603                36.6282

                     22                     23                     24
                      A                      A                      A
 Frequencies --    603.3115               618.0798               664.9006
 Red. masses --      1.7661                 2.9194                 1.7832
 Frc consts  --      0.3788                 0.6571                 0.4645
 IR Inten    --     97.7789                 9.2932                52.4489

                     25                     26                     27
                      A                      A                      A
 Frequencies --    678.2753               739.6113               759.5565
 Red. masses --      1.5042                 2.7890                 2.7921
 Frc consts  --      0.4077                 0.8989                 0.9491
 IR Inten    --     60.3692                31.0888                15.0916

                     28                     29                     30
                      A                      A                      A
 Frequencies --    770.4484               797.4271               808.7564
 Red. masses --      2.1500                 1.2977                 1.9517
 Frc consts  --      0.7519                 0.4862                 0.7521
 IR Inten    --     11.9797                 4.2859                15.2074

                     31                     32                     33
                      A                      A                      A
 Frequencies --    846.3170               852.1943               873.4880
 Red. masses --      1.3182                 2.4621                 2.8694
 Frc consts  --      0.5563                 1.0535                 1.2899
 IR Inten    --      7.5796                 5.7973                 2.1594

                     34                     35                     36
                      A                      A                      A
 Frequencies --    911.2305               944.2409               946.7396
 Red. masses --      2.0094                 1.4168                 1.6064
 Frc consts  --      0.9830                 0.7443                 0.8483
 IR Inten    --      6.2189                32.0898                11.7593

                     37                     38                     39
                      A                      A                      A
 Frequencies --    958.4001              1014.5887              1019.3132
 Red. masses --      3.1950                 2.0974                 2.4286
 Frc consts  --      1.7291                 1.2721                 1.4867
 IR Inten    --     11.7018                 5.2699                 8.6334

                     40                     41                     42
                      A                      A                      A
 Frequencies --   1033.0913              1046.3215              1054.7529
 Red. masses --      1.6795                 1.3844                 1.8482
 Frc consts  --      1.0561                 0.8930                 1.2114
 IR Inten    --     11.8863                 8.1254                 5.8735

                     43                     44                     45
                      A                      A                      A
 Frequencies --   1069.5508              1093.5156              1123.8498
 Red. masses --      1.3182                 1.3692                 1.7066
 Frc consts  --      0.8884                 0.9647                 1.2700
 IR Inten    --     11.1149                 5.3493                26.8100

                     46                     47                     48
                      A                      A                      A
 Frequencies --   1138.6466              1154.9888              1197.0549
 Red. masses --      1.7172                 1.2339                 1.4332
 Frc consts  --      1.3117                 0.9698                 1.2100
 IR Inten    --      1.9068                 9.3496                88.3183

                     49                     50                     51
                      A                      A                      A
 Frequencies --   1197.8774              1214.4325              1217.7693
 Red. masses --      2.3149                 1.4213                 2.0540
 Frc consts  --      1.9570                 1.2350                 1.7947
 IR Inten    --    118.0134                 1.2372                17.1182

                     52                     53                     54
                      A                      A                      A
 Frequencies --   1246.4494              1270.7252              1284.6123
 Red. masses --      2.0040                 1.3448                 1.3418
 Frc consts  --      1.8344                 1.2794                 1.3046
 IR Inten    --      2.9862                16.4784                 2.0550

                     55                     56                     57
                      A                      A                      A
 Frequencies --   1310.1841              1331.0199              1338.2226
 Red. masses --      1.3752                 1.4352                 1.2377
 Frc consts  --      1.3909                 1.4981                 1.3060
 IR Inten    --     24.1458                38.9997                 3.4909

                     58                     59                     60
                      A                      A                      A
 Frequencies --   1364.2566              1370.8835              1373.1358
 Red. masses --      1.2890                 1.4079                 1.3637
 Frc consts  --      1.4135                 1.5589                 1.5150
 IR Inten    --      4.6765                17.5191                 1.7875

                     61                     62                     63
                      A                      A                      A
 Frequencies --   1397.2982              1415.4419              1446.5767
 Red. masses --      2.2670                 2.4015                 1.5394
 Frc consts  --      2.6079                 2.8347                 1.8980
 IR Inten    --     28.9938               134.9315                 0.0960

                     64                     65                     66
                      A                      A                      A
 Frequencies --   1476.9636              1495.2667              1497.9935
 Red. masses --      1.1803                 1.5184                 1.0951
 Frc consts  --      1.5170                 2.0002                 1.4479
 IR Inten    --      3.0025                68.3092                 2.0994

                     67                     68                     69
                      A                      A                      A
 Frequencies --   1507.5733              1515.1145              1525.5749
 Red. masses --      1.1314                 1.1112                 1.1347
 Frc consts  --      1.5150                 1.5030                 1.5559
 IR Inten    --      3.2231                 4.9017                26.3673

                     70                     71                     72
                      A                      A                      A
 Frequencies --   1539.1337              1731.7244              1792.8266
 Red. masses --      1.3555                 4.4175                 8.2443
 Frc consts  --      1.8919                 7.8052                15.6127
 IR Inten    --      2.2533                 5.1050               381.4543

                     73                     74                     75
                      A                      A                      A
 Frequencies --   1834.9372              3048.7690              3062.3497
 Red. masses --      9.9935                 1.0598                 1.0626
 Frc consts  --     19.8248                 5.8041                 5.8714
 IR Inten    --    205.7816                23.2775                21.7308

                     76                     77                     78
                      A                      A                      A
 Frequencies --   3080.9775              3095.4152              3100.2044
 Red. masses --      1.0703                 1.0947                 1.0814
 Frc consts  --      5.9861                 6.1800                 6.1239
 IR Inten    --      8.3179                 7.1596                17.9652

                     79                     80                     81
                      A                      A                      A
 Frequencies --   3111.5178              3135.2808              3140.1734
 Red. masses --      1.1002                 1.1049                 1.0880
 Frc consts  --      6.2760                 6.3991                 6.3210
 IR Inten    --      5.7311                21.8586                30.5797

                     82                     83                     84
                      A                      A                      A
 Frequencies --   3148.4108              3152.3583              3157.5926
 Red. masses --      1.0536                 1.0636                 1.0577
 Frc consts  --      6.1531                 6.2272                 6.2134
 IR Inten    --     17.3663                17.5057                 7.2829

                     85                     86                     87
                      A                      A                      A
 Frequencies --   3160.5404              3225.4938              3236.0340
 Red. masses --      1.0864                 1.1192                 1.1156
 Frc consts  --      6.3941                 6.8607                 6.8831
 IR Inten    --      4.2680                 4.1593                17.4064

                     88                     89                     90
                      A                      A                      A
 Frequencies --   3242.0535              3594.7554              3681.9432
 Red. masses --      1.1165                 1.0750                 1.0640
 Frc consts  --      6.9142                 8.1844                 8.4985
 IR Inten    --     14.0864                22.3771                56.1045

 - Thermochemistry -
 -------------------
 Temperature   298.150 Kelvin.  Pressure   1.00000 Atm.
 Atom     1 has atomic number  6 and mass  12.00000

 Molecular mass:   211.12084 amu.
 Principal axes and moments of inertia in atomic units:
                           1         2         3
     Eigenvalues --  2147.543304997.939705322.74232
           X            0.99975   0.00505   0.02182
           Y           -0.00419   0.99921  -0.03943
           Z           -0.02200   0.03933   0.99898
 This molecule is an asymmetric top.
 Rotational symmetry number  1.
 Warning -- assumption of classical behavior for rotation
           may cause significant error
 Rotational temperatures (Kelvin)      0.04033     0.01733     0.01627
 Rotational constants (GHZ):           0.84037     0.36110     0.33906
 Zero-point vibrational energy     716914.2 (Joules/Mol)
                                  171.34659 (Kcal/Mol)
 Warning -- explicit consideration of  23 degrees of freedom as
           vibrations may cause significant error
 Vibrational temperatures:     22.24    50.12    67.97    78.49    97.49
          (Kelvin)            101.19   146.32   153.48   189.63   284.73
                              297.95   369.71   407.93   449.08   495.52
                              573.13   609.94   620.79   683.41   759.57
                              836.16   868.03   889.28   956.64   975.89
                             1064.14  1092.83  1108.50  1147.32  1163.62
                             1217.66  1226.12  1256.75  1311.06  1358.55
                             1362.15  1378.92  1459.77  1466.56  1486.39
                             1505.42  1517.55  1538.85  1573.32  1616.97
                             1638.26  1661.77  1722.30  1723.48  1747.30
                             1752.10  1793.36  1828.29  1848.27  1885.06
                             1915.04  1925.40  1962.86  1972.40  1975.64
                             2010.40  2036.51  2081.30  2125.02  2151.36
                             2155.28  2169.06  2179.91  2194.96  2214.47
                             2491.57  2579.48  2640.07  4386.50  4406.04
                             4432.84  4453.61  4460.50  4476.78  4510.97
                             4518.01  4529.86  4535.54  4543.07  4547.31
                             4640.77  4655.93  4664.59  5172.05  5297.50

 Zero-point correction=                           0.273058 (Hartree/Particle)
 Thermal correction to Energy=                    0.289216
 Thermal correction to Enthalpy=                  0.290160
 Thermal correction to Gibbs Free Energy=         0.226490
 Sum of electronic and zero-point Energies=           -709.581687
 Sum of electronic and thermal Energies=              -709.565530
 Sum of electronic and thermal Enthalpies=            -709.564586
 Sum of electronic and thermal Free Energies=         -709.628255

                     E (Thermal)             CV                S
                      KCal/Mol        Cal/Mol-Kelvin    Cal/Mol-Kelvin
 Total                  181.486             58.585            134.004
 Electronic               0.000              0.000              0.000
 Translational            0.889              2.981             41.945
 Rotational               0.889              2.981             32.413
 Vibrational            179.708             52.624             59.646
 Vibration     1          0.593              1.986              7.146
 Vibration     2          0.594              1.983              5.533
 Vibration     3          0.595              1.979              4.930
 Vibration     4          0.596              1.976              4.645
 Vibration     5          0.598              1.970              4.217
 Vibration     6          0.598              1.968              4.144
 Vibration     7          0.604              1.948              3.422
 Vibration     8          0.606              1.944              3.329
 Vibration     9          0.612              1.922              2.920
 Vibration    10          0.637              1.843              2.153
 Vibration    11          0.641              1.830              2.069
 Vibration    12          0.667              1.751              1.682
 Vibration    13          0.682              1.704              1.512
 Vibration    14          0.700              1.651              1.351
 Vibration    15          0.723              1.587              1.192
 Vibration    16          0.765              1.474              0.969
 Vibration    17          0.786              1.418              0.879
 Vibration    18          0.793              1.402              0.854
 Vibration    19          0.832              1.306              0.724
 Vibration    20          0.883              1.188              0.592
 Vibration    21          0.938              1.072              0.483
 Vibration    22          0.962              1.025              0.444
 Vibration    23          0.978              0.994              0.420

                           ! Non-Optimized Parameters !
 Normal termination of Gaussian 16 at Thu Dec 10 15:46:19 2020.

 ----------------------------------------------------------------------
 # B3LYP/6-311++G(d,p) empiricaldispersion=gd3bj scf=xqc pop=npa geom=c
 heck
 ----------------------------------------------------------------------

 ---------------------------------------
 CID_120242929_JID_5309_Energie_neutraal
 ---------------------------------------
 Structure from the checkpoint file:  "JID_5309.chk"
 Charge =  0 Multiplicity = 1

 SCF Done:  E(RB3LYP) =  -710.073692663     A.U. after   15 cycles
 Normal termination of Gaussian 16 at Thu Dec 10 15:51:18 2020.

 ----------------------------------------------------------------------
 # B3LYP/6-311++G(d,p) empiricaldispersion=gd3bj scf=xqc pop=npa geom=c
 heck
 ----------------------------------------------------------------------

 -------------------------------------
 CID_120242929_JID_5309_Energie_kation
 -------------------------------------
 Structure from the checkpoint file:  "JID_5309.chk"
 Charge =  1 Multiplicity = 2

 SCF Done:  E(UB3LYP) =  -709.747238064     A.U. after   30 cycles
 Normal termination of Gaussian 16 at Thu Dec 10 16:05:43 2020.
 Gaussian 16:  ES64L-G16RevA.03 25-Dec-2016

 ----------------------------------------------------------------------
 # B3LYP/6-311++G(d,p) empiricaldispersion=gd3bj scf=xqc pop=npa geom=c
 heck
 ----------------------------------------------------------------------

 ------------------------------------
 CID_120242929_JID_5309_Energie_anion
 ------------------------------------
 Structure from the checkpoint file:  "JID_5309.chk"
 Charge = -1 Multiplicity = 2

                         Standard orientation:
 ---------------------------------------------------------------------
 Center     Atomic      Atomic             Coordinates (Angstroms)
 Number     Number       Type             X           Y           Z
 ---------------------------------------------------------------------
      1          6           0        2.977312    2.533314    0.632038
      2          6           0        2.846748    1.504874   -0.207458
      3          6           0        3.467135    0.149199   -0.006886
      4          6           0        2.430043   -0.958774    0.299627
      5          6           0        1.472000   -1.158899   -0.866578
      6          8           0        1.775898   -1.857327   -1.824313
      7          7           0        0.283395   -0.464893   -0.855502
      8          6           0       -0.320299    0.235068    0.258921
      9          6           0       -1.396202    1.228341   -0.229230
     10          6           0       -2.536373    0.588987   -0.994472
     11          6           0       -3.659521   -0.106215   -0.257773
     12          6           0       -3.910636    1.209226   -0.951570
     13          6           0       -0.917218   -0.670191    1.339771
     14          8           0       -1.402282   -0.249607    2.367971
     15          8           0       -0.843090   -1.984634    1.043720
     16          1           0        3.576853    2.457661    1.537177
     17          1           0        2.500425    3.491445    0.444151
     18          1           0        2.237025    1.622804   -1.103369
     19          1           0        4.013527   -0.147410   -0.911329
     20          1           0        4.189930    0.189300    0.816040
     21          1           0        2.951758   -1.910758    0.427438
     22          1           0        1.912752   -0.730443    1.235844
     23          1           0       -0.332787   -0.751755   -1.606464
     24          1           0        0.450662    0.826775    0.761117
     25          1           0       -1.788429    1.739170    0.655808
     26          1           0       -0.897568    1.981021   -0.851370
     27          1           0       -2.262757    0.154616   -1.955182
     28          1           0       -4.077642   -1.008864   -0.693489
     29          1           0       -3.626927   -0.105319    0.827387
     30          1           0       -4.045966    2.091009   -0.330616
     31          1           0       -4.502558    1.211412   -1.862050
     32          1           0       -1.244207   -2.453455    1.800067
 ---------------------------------------------------------------------

 SCF Done:  E(UB3LYP) =  -710.061403000     A.U. after   33 cycles
 SCF Done:  E(UB3LYP) =  -710.061403000     a.u. after    1 cycles

 The electronic state is 2-A.
 Alpha  occ. eigenvalues --  -19.08017 -19.02508 -18.99616 -14.24522 -10.21545
 Alpha  occ. eigenvalues --  -10.18173 -10.14038 -10.09629 -10.09592 -10.09170
 Alpha  occ. eigenvalues --  -10.09030 -10.08900 -10.08606 -10.08211 -10.07834
 Alpha  occ. eigenvalues --   -1.02180  -0.94741  -0.93205  -0.84084  -0.77722
 Alpha  occ. eigenvalues --   -0.72338  -0.68886  -0.65761  -0.60033  -0.56959
 Alpha  occ. eigenvalues --   -0.52859  -0.51579  -0.50402  -0.48220  -0.46258
 Alpha  occ. eigenvalues --   -0.43722  -0.41487  -0.41072  -0.40023  -0.38939
 Alpha  occ. eigenvalues --   -0.37534  -0.36642  -0.35986  -0.35161  -0.32872
 Alpha  occ. eigenvalues --   -0.32434  -0.32291  -0.30803  -0.30270  -0.29677
 Alpha  occ. eigenvalues --   -0.27964  -0.27660  -0.27421  -0.26403  -0.25186
 Alpha  occ. eigenvalues --   -0.23537  -0.21114  -0.20983  -0.20325  -0.17914
 Alpha  occ. eigenvalues --   -0.16588  -0.16136   0.04214
 Alpha virt. eigenvalues --    0.05922   0.06128   0.07078   0.07600   0.07966
 Alpha virt. eigenvalues --    0.08158   0.08640   0.09211   0.09788   0.09996
 Alpha virt. eigenvalues --    0.10782   0.10971   0.11463   0.11739   0.12554

  Beta  occ. eigenvalues --  -19.07961 -19.02485 -18.99612 -14.24510 -10.21520
  Beta  occ. eigenvalues --  -10.18170 -10.14030 -10.09619 -10.09580 -10.09154
  Beta  occ. eigenvalues --  -10.09023 -10.08884 -10.08589 -10.08190 -10.07794
  Beta  occ. eigenvalues --   -1.02095  -0.94733  -0.93138  -0.84065  -0.77698
  Beta  occ. eigenvalues --   -0.72308  -0.68853  -0.65721  -0.59962  -0.56911
  Beta  occ. eigenvalues --   -0.52764  -0.51517  -0.50362  -0.48169  -0.46195
  Beta  occ. eigenvalues --   -0.43670  -0.41445  -0.41036  -0.39974  -0.38893
  Beta  occ. eigenvalues --   -0.37498  -0.36566  -0.35939  -0.35131  -0.32828
  Beta  occ. eigenvalues --   -0.32402  -0.32261  -0.30767  -0.30239  -0.29635
  Beta  occ. eigenvalues --   -0.27936  -0.27634  -0.27388  -0.26368  -0.25154
  Beta  occ. eigenvalues --   -0.23462  -0.21061  -0.20955  -0.20299  -0.17839
  Beta  occ. eigenvalues --   -0.16570  -0.16103
  Beta virt. eigenvalues --    0.06322   0.06736   0.07171   0.07585   0.08038
  Beta virt. eigenvalues --    0.08172   0.08382   0.08947   0.09606   0.09941
  Beta virt. eigenvalues --    0.10400   0.11088   0.11277   0.11775   0.11814

 Mulliken charges and spin densities:
               1          2
     1  C    0.603446  -1.151760
     2  C   -1.251906   1.678190
     3  C    1.183952  -1.910563
     4  C   -0.183378   0.142419
     5  C   -0.174862   0.066662
     6  O   -0.298359   0.000836
     7  N    0.015370   0.042799
     8  C   -0.894334   0.796410
     9  C    2.208922  -2.916887
    10  C   -1.801960   2.085853
    11  C    0.325252  -0.788395
    12  C    0.502610  -0.906551
    13  C   -0.115906  -0.390392
    14  O   -0.186867   0.017060
    15  O   -0.133832   0.079057
    16  H   -0.248363   0.384172
    17  H   -0.127672   0.242696
    18  H   -0.195238   0.387617
    19  H    0.226566  -0.055891
    20  H   -0.367823   0.543392
    21  H   -0.205002   0.435404
    22  H    0.068283   0.123178
    23  H    0.443634  -0.110287
    24  H    0.561271  -0.236849
    25  H   -0.057616   0.254031
    26  H    0.204456  -0.043366
    27  H   -0.432419   0.626102
    28  H   -0.196561   0.363734
    29  H    0.139248   0.034315
    30  H   -0.025637   0.151284
    31  H   -0.207616   0.362443
    32  H   -0.377662   0.693289
 Sum of Mulliken charges =  -1.00000   1.00000

 Dipole moment (field-independent basis, Debye):
    X=             -0.0670    Y=              3.0067    Z=             -0.8593  Tot=              3.1278
 Quadrupole moment (field-independent basis, Debye-Ang):
   XX=           -162.0228   YY=           -140.5671   ZZ=           -135.4089
   XY=             -5.4352   XZ=             -4.2327   YZ=             -0.0580

 Summary of Natural Population Analysis:

                                       Natural Population
                Natural  -----------------------------------------------
    Atom  No    Charge         Core      Valence    Rydberg      Total
 -----------------------------------------------------------------------
      C    1   -0.18528      0.99955     2.17902    0.00670     3.18528
      C    2   -0.09244      0.99956     2.08179    0.01109     3.09244
      C    3   -0.20458      0.99960     2.19507    0.00992     3.20458
      C    4   -0.22862      0.99958     2.22020    0.00884     3.22862
      C    5    0.35274      0.99967     1.62508    0.02251     2.64726
      O    6   -0.32051      0.99988     3.31496    0.00567     4.32051
      N    7   -0.32256      0.99966     2.81270    0.01021     3.82256
      C    8   -0.06079      0.99952     2.04728    0.01399     3.06079
      C    9   -0.18508      0.99959     2.17652    0.00897     3.18508
      C   10   -0.12399      0.99959     2.11375    0.01065     3.12399
      C   11   -0.19996      0.99961     2.19097    0.00938     3.19996
      C   12   -0.19434      0.99962     2.18710    0.00761     3.19434
      C   13    0.40748      0.99969     1.56632    0.02651     2.59252
      O   14   -0.30938      0.99987     3.30312    0.00639     4.30938
      O   15   -0.33717      0.99987     3.33018    0.00712     4.33717
      H   16    0.09114      0.00000     0.40736    0.00150     0.40886
      H   17    0.09452      0.00000     0.40420    0.00127     0.40548
      H   18    0.09607      0.00000     0.40261    0.00133     0.40393
      H   19    0.10588      0.00000     0.39292    0.00121     0.39412
      H   20    0.10251      0.00000     0.39609    0.00140     0.39749
      H   21    0.11543      0.00000     0.38336    0.00121     0.38457
      H   22    0.10179      0.00000     0.39624    0.00198     0.39821
      H   23    0.19543      0.00000     0.30150    0.00307     0.30457
      H   24    0.12244      0.00000     0.37507    0.00249     0.37756
      H   25    0.11001      0.00000     0.38861    0.00139     0.38999
      H   26    0.10495      0.00000     0.39363    0.00142     0.39505
      H   27    0.10134      0.00000     0.39694    0.00172     0.39866
      H   28    0.10602      0.00000     0.39272    0.00126     0.39398
      H   29    0.10764      0.00000     0.39122    0.00114     0.39236
      H   30    0.09974      0.00000     0.39937    0.00089     0.40026
      H   31    0.10356      0.00000     0.39531    0.00113     0.39644
      H   32    0.24605      0.00000     0.23934    0.01462     0.25395
 =======================================================================
   * Total *    0.00000     14.99487    41.80055    0.20458    57.00000

 Normal termination of Gaussian 16 at Thu Dec 10 16:20:50 2020.
