 Gaussian 16, Revision A.03,

 -----------------------------------------------------------
 # opt freq B3LYP/6-31G(d) empiricaldispersion=gd3bj scf=xqc
 -----------------------------------------------------------

 ------------------------------
 CID_86812004_JID_6194_neutraal
 ------------------------------
 Symbolic Z-matrix:
 Charge =  0 Multiplicity = 1

 SCF Done:  E(RB3LYP) =  -730.537156334     A.U. after   14 cycles
 SCF Done:  E(RB3LYP) =  -730.543081950     A.U. after   12 cycles
 SCF Done:  E(RB3LYP) =  -730.541812409     A.U. after   12 cycles
 SCF Done:  E(RB3LYP) =  -730.544467947     A.U. after   11 cycles
 SCF Done:  E(RB3LYP) =  -730.545151081     A.U. after   11 cycles
 SCF Done:  E(RB3LYP) =  -730.545447787     A.U. after   12 cycles
 SCF Done:  E(RB3LYP) =  -730.545609387     A.U. after   11 cycles
 SCF Done:  E(RB3LYP) =  -730.545704755     A.U. after   10 cycles
 SCF Done:  E(RB3LYP) =  -730.545740570     A.U. after   10 cycles
 SCF Done:  E(RB3LYP) =  -730.545751016     A.U. after    9 cycles
 SCF Done:  E(RB3LYP) =  -730.545779437     A.U. after    7 cycles
 SCF Done:  E(RB3LYP) =  -730.545779517     A.U. after    7 cycles
 SCF Done:  E(RB3LYP) =  -730.545779591     A.U. after    7 cycles
 SCF Done:  E(RB3LYP) =  -730.545779657     A.U. after    7 cycles
 SCF Done:  E(RB3LYP) =  -730.545779690     A.U. after    6 cycles
 Optimization completed.
    -- Stationary point found.
 Normal termination of Gaussian 16 at Thu Dec 10 21:41:56 2020.

 --------------------------------------------------------------------
 #N Geom=AllCheck Guess=TCheck SCRF=Check GenChk RB3LYP/6-31G(d) Freq
 --------------------------------------------------------------------

 Structure from the checkpoint file:  "JID_6194.chk"
 ------------------------------
 CID_86812004_JID_6194_neutraal
 ------------------------------
 Charge =  0 Multiplicity = 1

 SCF Done:  E(RB3LYP) =  -730.545779690     A.U. after    1 cycles

  Exact polarizability: 153.863  -3.257 139.970  -5.694  -1.148 123.136
 Approx polarizability: 184.797  -2.004 202.741 -11.942 -10.298 187.831

                      1                      2                      3
                      A                      A                      A
 Frequencies --     18.2093                31.6395                37.6920
 Red. masses --      4.0471                 3.4317                 1.8812
 Frc consts  --      0.0008                 0.0020                 0.0016
 IR Inten    --      0.5056                 1.6788                 0.1180

                      4                      5                      6
                      A                      A                      A
 Frequencies --     43.3961                69.5946                82.5752
 Red. masses --      2.4831                 3.0427                 3.1081
 Frc consts  --      0.0028                 0.0087                 0.0125
 IR Inten    --      0.6680                 1.4302                 1.4820

                      7                      8                      9
                      A                      A                      A
 Frequencies --     87.2808               116.7179               132.5300
 Red. masses --      4.8467                 3.2918                 1.7229
 Frc consts  --      0.0218                 0.0264                 0.0178
 IR Inten    --      0.9566                 0.2280                 0.2422

                     10                     11                     12
                      A                      A                      A
 Frequencies --    156.9899               205.5094               222.4141
 Red. masses --      1.8435                 2.2669                 2.4198
 Frc consts  --      0.0268                 0.0564                 0.0705
 IR Inten    --      0.2929                 1.3768                 1.9614

                     13                     14                     15
                      A                      A                      A
 Frequencies --    241.6302               289.0912               312.5397
 Red. masses --      3.3854                 2.9985                 3.9091
 Frc consts  --      0.1165                 0.1476                 0.2250
 IR Inten    --      7.3123                 0.5569                 2.8473

                     16                     17                     18
                      A                      A                      A
 Frequencies --    389.1842               419.8825               451.0283
 Red. masses --      4.4732                 3.3966                 3.1611
 Frc consts  --      0.3992                 0.3528                 0.3789
 IR Inten    --      2.0664                 9.6936                 2.6035

                     19                     20                     21
                      A                      A                      A
 Frequencies --    469.9353               483.4214               564.9054
 Red. masses --      2.0765                 2.1541                 2.0118
 Frc consts  --      0.2702                 0.2966                 0.3783
 IR Inten    --      2.5358                 6.0547                44.7240

                     22                     23                     24
                      A                      A                      A
 Frequencies --    593.3297               626.9156               656.4227
 Red. masses --      2.1227                 2.7219                 3.7792
 Frc consts  --      0.4403                 0.6303                 0.9594
 IR Inten    --      3.8179                 2.0515                11.9960

                     25                     26                     27
                      A                      A                      A
 Frequencies --    675.7257               722.6186               772.0136
 Red. masses --      3.9984                 1.8667                 1.7247
 Frc consts  --      1.0757                 0.5743                 0.6056
 IR Inten    --      6.9232                23.8166                23.2222

                     28                     29                     30
                      A                      A                      A
 Frequencies --    789.2084               808.2457               832.8582
 Red. masses --      3.2503                 4.0401                 1.5672
 Frc consts  --      1.1928                 1.5550                 0.6405
 IR Inten    --     13.4955                12.2415                 0.8314

                     31                     32                     33
                      A                      A                      A
 Frequencies --    835.8567               886.1982               891.3870
 Red. masses --      2.2913                 1.5512                 3.2689
 Frc consts  --      0.9432                 0.7178                 1.5303
 IR Inten    --      1.2898                 0.9312                 0.8675

                     34                     35                     36
                      A                      A                      A
 Frequencies --    899.4180               908.2721               933.9777
 Red. masses --      2.1818                 2.3467                 2.2735
 Frc consts  --      1.0399                 1.1406                 1.1685
 IR Inten    --      8.7531                 3.1433                10.1736

                     37                     38                     39
                      A                      A                      A
 Frequencies --    958.9430               973.0440               981.3948
 Red. masses --      2.4886                 2.0840                 1.5569
 Frc consts  --      1.3483                 1.1626                 0.8835
 IR Inten    --      9.6798                 3.7807                20.2629

                     40                     41                     42
                      A                      A                      A
 Frequencies --    989.8280              1006.9160              1030.5197
 Red. masses --      1.4943                 1.3622                 2.0467
 Frc consts  --      0.8626                 0.8137                 1.2806
 IR Inten    --      2.2116                 0.0618                 5.2747

                     43                     44                     45
                      A                      A                      A
 Frequencies --   1041.8959              1064.1950              1100.0872
 Red. masses --      2.2128                 2.1832                 2.3427
 Frc consts  --      1.4153                 1.4568                 1.6704
 IR Inten    --     12.1942                 4.2205               104.0096

                     46                     47                     48
                      A                      A                      A
 Frequencies --   1115.2061              1122.7715              1143.1679
 Red. masses --      3.6543                 2.9973                 2.0892
 Frc consts  --      2.6777                 2.2262                 1.6086
 IR Inten    --     41.1351                56.5120                 4.1641

                     49                     50                     51
                      A                      A                      A
 Frequencies --   1162.6265              1164.1799              1199.2817
 Red. masses --      1.3328                 2.2384                 1.6294
 Frc consts  --      1.0614                 1.7875                 1.3808
 IR Inten    --     14.6569                 8.1679                 4.3364

                     52                     53                     54
                      A                      A                      A
 Frequencies --   1211.0139              1215.4159              1227.1897
 Red. masses --      1.5036                 1.4525                 1.6116
 Frc consts  --      1.2992                 1.2642                 1.4300
 IR Inten    --     10.7915                 3.0991                 7.9643

                     55                     56                     57
                      A                      A                      A
 Frequencies --   1233.1941              1250.0190              1271.4748
 Red. masses --      1.7494                 1.4405                 1.3120
 Frc consts  --      1.5675                 1.3261                 1.2497
 IR Inten    --     11.2613                 4.2403                29.7570

                     58                     59                     60
                      A                      A                      A
 Frequencies --   1276.0003              1295.0624              1303.5368
 Red. masses --      1.2383                 2.9846                 1.7861
 Frc consts  --      1.1879                 2.9493                 1.7882
 IR Inten    --      3.3787                56.6261                68.6997

                     61                     62                     63
                      A                      A                      A
 Frequencies --   1320.3725              1329.2780              1335.7196
 Red. masses --      1.3133                 1.3665                 1.2240
 Frc consts  --      1.3490                 1.4226                 1.2867
 IR Inten    --      1.3209                 9.6796                 2.3537

                     64                     65                     66
                      A                      A                      A
 Frequencies --   1352.3378              1354.2102              1356.5252
 Red. masses --      1.2665                 1.2376                 1.3588
 Frc consts  --      1.3646                 1.3372                 1.4732
 IR Inten    --      6.4964                 4.4561                 0.2547

                     67                     68                     69
                      A                      A                      A
 Frequencies --   1360.2397              1377.1922              1392.9369
 Red. masses --      1.2940                 1.2966                 1.3565
 Frc consts  --      1.4107                 1.4489                 1.5507
 IR Inten    --      7.8613                 3.5535                12.8771

                     70                     71                     72
                      A                      A                      A
 Frequencies --   1410.2295              1418.8006              1432.2089
 Red. masses --      1.4434                 1.3657                 1.4625
 Frc consts  --      1.6913                 1.6198                 1.7675
 IR Inten    --     52.6568                17.9696                 2.6910

                     73                     74                     75
                      A                      A                      A
 Frequencies --   1437.3781              1483.7716              1490.7154
 Red. masses --      2.1013                 1.2148                 1.4478
 Frc consts  --      2.5579                 1.5758                 1.8956
 IR Inten    --    199.8030                37.8852                25.8367

                     76                     77                     78
                      A                      A                      A
 Frequencies --   1513.3415              1515.7009              1519.0394
 Red. masses --      1.0860                 1.0788                 1.0980
 Frc consts  --      1.4655                 1.4602                 1.4927
 IR Inten    --      1.8890                 0.1411                 8.1985

                     79                     80                     81
                      A                      A                      A
 Frequencies --   1525.6981              1528.5408              1528.8965
 Red. masses --      1.0924                 1.0985                 1.1010
 Frc consts  --      1.4982                 1.5122                 1.5164
 IR Inten    --      1.8452                 3.6981                 1.6047

                     82                     83                     84
                      A                      A                      A
 Frequencies --   1538.4708              1545.7623              1550.9031
 Red. masses --      1.0763                 1.1191                 1.1061
 Frc consts  --      1.5010                 1.5755                 1.5675
 IR Inten    --     13.1650                44.9955                 2.3694

                     85                     86                     87
                      A                      A                      A
 Frequencies --   1561.3684              1764.6108              3012.7588
 Red. masses --      1.0972                 6.7647                 1.0701
 Frc consts  --      1.5760                12.4107                 5.7229
 IR Inten    --      2.8778               373.4661                86.7114

                     88                     89                     90
                      A                      A                      A
 Frequencies --   3029.7541              3035.7085              3040.2038
 Red. masses --      1.0740                 1.0807                 1.0610
 Frc consts  --      5.8085                 5.8680                 5.7781
 IR Inten    --      9.7768                16.2607                33.1376

                     91                     92                     93
                      A                      A                      A
 Frequencies --   3040.4255              3055.3959              3056.8024
 Red. masses --      1.0649                 1.0679                 1.0713
 Frc consts  --      5.8002                 5.8738                 5.8980
 IR Inten    --     22.2320                33.0848                32.7833

                     94                     95                     96
                      A                      A                      A
 Frequencies --   3062.5935              3065.3272              3075.2654
 Red. masses --      1.0635                 1.0662                 1.0636
 Frc consts  --      5.8769                 5.9027                 5.9264
 IR Inten    --     20.6535                16.6732                49.7624

                     97                     98                     99
                      A                      A                      A
 Frequencies --   3084.6059              3090.2256              3098.0215
 Red. masses --      1.0911                 1.0624                 1.0996
 Frc consts  --      6.1169                 5.9773                 6.2180
 IR Inten    --     66.3545                24.9256                17.9003

                    100                    101                    102
                      A                      A                      A
 Frequencies --   3109.4067              3113.3313              3119.1204
 Red. masses --      1.0972                 1.0925                 1.1000
 Frc consts  --      6.2503                 6.2393                 6.3050
 IR Inten    --     12.0835                35.2709                25.8154

                    103                    104                    105
                      A                      A                      A
 Frequencies --   3120.3031              3126.6214              3128.1262
 Red. masses --      1.1002                 1.1027                 1.1021
 Frc consts  --      6.3112                 6.3512                 6.3537
 IR Inten    --     26.9563                59.6865                28.0954

                    106                    107                    108
                      A                      A                      A
 Frequencies --   3132.4216              3179.4158              3576.0649
 Red. masses --      1.1028                 1.0998                 1.0749
 Frc consts  --      6.3754                 6.5501                 8.0989
 IR Inten    --     38.5722                 9.0369                19.7590

 - Thermochemistry -
 -------------------
 Temperature   298.150 Kelvin.  Pressure   1.00000 Atm.
 Atom     1 has atomic number  6 and mass  12.00000

 Molecular mass:   226.16813 amu.
 Principal axes and moments of inertia in atomic units:
                           1         2         3
     Eigenvalues --  2412.168055650.788696848.62369
           X            0.99988  -0.01554   0.00232
           Y            0.01545   0.99932   0.03353
           Z           -0.00284  -0.03349   0.99944
 This molecule is an asymmetric top.
 Rotational symmetry number  1.
 Warning -- assumption of classical behavior for rotation
           may cause significant error
 Rotational temperatures (Kelvin)      0.03591     0.01533     0.01265
 Rotational constants (GHZ):           0.74818     0.31938     0.26352
 Zero-point vibrational energy     898944.2 (Joules/Mol)
                                  214.85281 (Kcal/Mol)
 Warning -- explicit consideration of  22 degrees of freedom as
           vibrations may cause significant error
 Vibrational temperatures:     26.20    45.52    54.23    62.44   100.13
          (Kelvin)            118.81   125.58   167.93   190.68   225.87
                              295.68   320.00   347.65   415.94   449.67
                              559.95   604.12   648.93   676.13   695.54
                              812.77   853.67   901.99   944.45   972.22
                             1039.69  1110.76  1135.49  1162.89  1198.30
                             1202.61  1275.04  1282.51  1294.06  1306.80
                             1343.79  1379.71  1399.99  1412.01  1424.14
                             1448.73  1482.69  1499.06  1531.14  1582.78
                             1604.53  1615.42  1644.76  1672.76  1675.00
                             1725.50  1742.38  1748.71  1765.65  1774.29
                             1798.50  1829.37  1835.88  1863.31  1875.50
                             1899.72  1912.53  1921.80  1945.71  1948.41
                             1951.74  1957.08  1981.47  2004.13  2029.01
                             2041.34  2060.63  2068.07  2134.82  2144.81
                             2177.36  2180.76  2185.56  2195.14  2199.23
                             2199.74  2213.52  2224.01  2231.40  2246.46
                             2538.88  4334.69  4359.14  4367.71  4374.18
                             4374.49  4396.03  4398.06  4406.39  4410.32
                             4424.62  4438.06  4446.15  4457.36  4473.74
                             4479.39  4487.72  4489.42  4498.51  4500.68
                             4506.86  4574.47  5145.16

 Zero-point correction=                           0.342390 (Hartree/Particle)
 Thermal correction to Energy=                    0.359034
 Thermal correction to Enthalpy=                  0.359979
 Thermal correction to Gibbs Free Energy=         0.294857
 Sum of electronic and zero-point Energies=           -730.203390
 Sum of electronic and thermal Energies=              -730.186745
 Sum of electronic and thermal Enthalpies=            -730.185801
 Sum of electronic and thermal Free Energies=         -730.250923

                     E (Thermal)             CV                S
                      KCal/Mol        Cal/Mol-Kelvin    Cal/Mol-Kelvin
 Total                  225.297             61.172            137.060
 Electronic               0.000              0.000              0.000
 Translational            0.889              2.981             42.151
 Rotational               0.889              2.981             32.901
 Vibrational            223.520             55.211             62.009
 Vibration     1          0.593              1.986              6.820
 Vibration     2          0.594              1.983              5.724
 Vibration     3          0.594              1.982              5.377
 Vibration     4          0.595              1.980              5.098
 Vibration     5          0.598              1.969              4.165
 Vibration     6          0.600              1.961              3.829
 Vibration     7          0.601              1.958              3.720
 Vibration     8          0.608              1.935              3.154
 Vibration     9          0.613              1.921              2.909
 Vibration    10          0.621              1.895              2.586
 Vibration    11          0.640              1.832              2.083
 Vibration    12          0.648              1.807              1.939
 Vibration    13          0.658              1.777              1.791
 Vibration    14          0.686              1.694              1.479
 Vibration    15          0.701              1.650              1.349
 Vibration    16          0.757              1.493              1.003
 Vibration    17          0.783              1.427              0.892
 Vibration    18          0.810              1.359              0.793
 Vibration    19          0.827              1.317              0.738
 Vibration    20          0.840              1.287              0.701
 Vibration    21          0.921              1.107              0.514
 Vibration    22          0.951              1.046              0.461

                           ! Non-Optimized Parameters !
 Normal termination of Gaussian 16 at Thu Dec 10 21:57:09 2020.

 ----------------------------------------------------------------------
 # B3LYP/6-311++G(d,p) empiricaldispersion=gd3bj scf=xqc pop=npa geom=c
 heck
 ----------------------------------------------------------------------

 --------------------------------------
 CID_86812004_JID_6194_Energie_neutraal
 --------------------------------------
 Structure from the checkpoint file:  "JID_6194.chk"
 Charge =  0 Multiplicity = 1

 SCF Done:  E(RB3LYP) =  -730.755306447     A.U. after   14 cycles
 Normal termination of Gaussian 16 at Thu Dec 10 22:04:39 2020.

 ----------------------------------------------------------------------
 # B3LYP/6-311++G(d,p) empiricaldispersion=gd3bj scf=xqc pop=npa geom=c
 heck
 ----------------------------------------------------------------------

 ------------------------------------
 CID_86812004_JID_6194_Energie_kation
 ------------------------------------
 Structure from the checkpoint file:  "JID_6194.chk"
 Charge =  1 Multiplicity = 2

 SCF Done:  E(UB3LYP) =  -730.455197676     A.U. after   23 cycles
 Normal termination of Gaussian 16 at Thu Dec 10 22:22:20 2020.
 Gaussian 16:  ES64L-G16RevA.03 25-Dec-2016

 ----------------------------------------------------------------------
 # B3LYP/6-311++G(d,p) empiricaldispersion=gd3bj scf=xqc pop=npa geom=c
 heck
 ----------------------------------------------------------------------

 -----------------------------------
 CID_86812004_JID_6194_Energie_anion
 -----------------------------------
 Structure from the checkpoint file:  "JID_6194.chk"
 Charge = -1 Multiplicity = 2

                         Standard orientation:
 ---------------------------------------------------------------------
 Center     Atomic      Atomic             Coordinates (Angstroms)
 Number     Number       Type             X           Y           Z
 ---------------------------------------------------------------------
      1          6           0       -1.057352    2.606999    1.116132
      2          7           0       -0.345817    1.432592    0.616554
      3          6           0       -0.874890    0.125449    1.009798
      4          6           0       -1.763463   -0.532190   -0.047166
      5          6           0       -3.068779    0.206575   -0.360756
      6          6           0       -3.990413   -0.951232   -0.764407
      7          6           0       -3.542211   -2.049963    0.205591
      8          8           0       -2.150295   -1.822461    0.454385
      9          6           0        0.358719    1.640842   -0.559281
     10          8           0        0.331159    2.721125   -1.147084
     11          7           0        1.092801    0.579460   -1.085687
     12          6           0        1.895992   -0.384248   -0.333630
     13          6           0        3.007593   -0.986110   -1.205910
     14          6           0        3.960368   -1.660616   -0.194688
     15          6           0        3.710067   -0.942079    1.167615
     16          6           0        2.679888    0.165345    0.870528
     17          1           0       -1.279412    2.457534    2.176398
     18          1           0       -1.995114    2.793809    0.576289
     19          1           0       -0.424217    3.485437    0.995846
     20          1           0       -0.069672   -0.562800    1.276393
     21          1           0       -1.465349    0.270189    1.918784
     22          1           0       -1.181564   -0.670285   -0.968534
     23          1           0       -3.452673    0.698120    0.542086
     24          1           0       -2.945104    0.966689   -1.136857
     25          1           0       -5.054964   -0.714668   -0.676446
     26          1           0       -3.792450   -1.251055   -1.799946
     27          1           0       -4.097573   -1.991514    1.153719
     28          1           0       -3.665837   -3.060841   -0.198776
     29          1           0        1.556247    0.922055   -1.919482
     30          1           0        1.256867   -1.211233    0.001729
     31          1           0        2.623565   -1.672653   -1.966752
     32          1           0        3.524286   -0.168170   -1.727426
     33          1           0        5.002522   -1.581651   -0.518007
     34          1           0        3.736982   -2.729168   -0.110493
     35          1           0        4.629514   -0.536756    1.600309
     36          1           0        3.303803   -1.650516    1.897898
     37          1           0        3.178287    1.092874    0.560465
     38          1           0        2.042935    0.408286    1.725368
 ---------------------------------------------------------------------

 SCF Done:  E(UB3LYP) =  -730.741582755     A.U. after   33 cycles
 SCF Done:  E(UB3LYP) =  -730.741582755     a.u. after    1 cycles

 The electronic state is 2-A.
 Alpha  occ. eigenvalues --  -19.02721 -18.98777 -14.24735 -14.23424 -10.19870
 Alpha  occ. eigenvalues --  -10.12733 -10.12106 -10.11980 -10.11343 -10.10432
 Alpha  occ. eigenvalues --  -10.08249 -10.08076 -10.08006 -10.07717 -10.07608
 Alpha  occ. eigenvalues --  -10.07525  -0.95523  -0.94347  -0.84495  -0.82451
 Alpha  occ. eigenvalues --   -0.73891  -0.69706  -0.67661  -0.62995  -0.62169
 Alpha  occ. eigenvalues --   -0.60952  -0.58810  -0.51112  -0.50387  -0.49727
 Alpha  occ. eigenvalues --   -0.48760  -0.46092  -0.43375  -0.41804  -0.40665
 Alpha  occ. eigenvalues --   -0.39799  -0.38843  -0.37483  -0.37119  -0.35018
 Alpha  occ. eigenvalues --   -0.34078  -0.33495  -0.33297  -0.32279  -0.31558
 Alpha  occ. eigenvalues --   -0.31011  -0.29391  -0.29136  -0.28807  -0.26646
 Alpha  occ. eigenvalues --   -0.26241  -0.25835  -0.25381  -0.25044  -0.24655
 Alpha  occ. eigenvalues --   -0.24356  -0.23207  -0.22954  -0.18199  -0.17130
 Alpha  occ. eigenvalues --   -0.15537  -0.14553   0.04136
 Alpha virt. eigenvalues --    0.05508   0.06592   0.07359   0.07566   0.08024
 Alpha virt. eigenvalues --    0.08289   0.09015   0.09709   0.09879   0.10372
 Alpha virt. eigenvalues --    0.10846   0.11039   0.11299   0.11830   0.12260

  Beta  occ. eigenvalues --  -19.02721 -18.98775 -14.24734 -14.23419 -10.19869
  Beta  occ. eigenvalues --  -10.12730 -10.12083 -10.11975 -10.11331 -10.10416
  Beta  occ. eigenvalues --  -10.08233 -10.08051 -10.07988 -10.07691 -10.07586
  Beta  occ. eigenvalues --  -10.07513  -0.95520  -0.94341  -0.84488  -0.82440
  Beta  occ. eigenvalues --   -0.73866  -0.69677  -0.67634  -0.62961  -0.62131
  Beta  occ. eigenvalues --   -0.60917  -0.58778  -0.51056  -0.50349  -0.49685
  Beta  occ. eigenvalues --   -0.48705  -0.46056  -0.43356  -0.41776  -0.40626
  Beta  occ. eigenvalues --   -0.39769  -0.38811  -0.37456  -0.37098  -0.34993
  Beta  occ. eigenvalues --   -0.34052  -0.33476  -0.33274  -0.32247  -0.31531
  Beta  occ. eigenvalues --   -0.30986  -0.29371  -0.29109  -0.28780  -0.26613
  Beta  occ. eigenvalues --   -0.26210  -0.25798  -0.25351  -0.25006  -0.24620
  Beta  occ. eigenvalues --   -0.24324  -0.23176  -0.22937  -0.18193  -0.17119
  Beta  occ. eigenvalues --   -0.15530  -0.14544
  Beta virt. eigenvalues --    0.06166   0.06657   0.07118   0.07736   0.08124
  Beta virt. eigenvalues --    0.08484   0.08652   0.09349   0.10082   0.10253
  Beta virt. eigenvalues --    0.10722   0.10950   0.11225   0.11589   0.11982

 Mulliken charges and spin densities:
               1          2
     1  C    0.315989  -0.581376
     2  N    0.129777   0.061275
     3  C    0.705831  -0.934957
     4  C   -0.861407   0.228508
     5  C   -0.240858   0.119022
     6  C   -0.358465  -0.147114
     7  C    0.940766  -1.128248
     8  O   -0.113367   0.024620
     9  C   -0.216663   0.205935
    10  O   -0.325652   0.000454
    11  N   -0.123933   0.041767
    12  C   -0.750070   0.639709
    13  C    0.428494  -0.925378
    14  C    0.255211  -0.583932
    15  C    0.468408  -1.067493
    16  C   -0.362782   0.339977
    17  H   -0.134148   0.279885
    18  H    0.014612   0.163377
    19  H    0.108895   0.071760
    20  H   -0.119086   0.306823
    21  H   -0.132504   0.293153
    22  H    0.052963   0.174504
    23  H   -0.081738   0.248572
    24  H    0.101511   0.084772
    25  H   -0.605119   0.787320
    26  H    0.105142   0.031611
    27  H   -0.227025   0.359810
    28  H   -0.123944   0.284888
    29  H    0.228168   0.074307
    30  H    0.623218  -0.417864
    31  H   -0.160735   0.341533
    32  H    0.034496   0.087904
    33  H   -0.258801   0.414634
    34  H   -0.144001   0.293527
    35  H   -0.231517   0.390111
    36  H   -0.089434   0.237066
    37  H    0.018469   0.152293
    38  H    0.129299   0.047245
 Sum of Mulliken charges =  -1.00000   1.00000

 Dipole moment (field-independent basis, Debye):
    X=              1.1118    Y=              1.2293    Z=             -1.0255  Tot=              1.9491
 Quadrupole moment (field-independent basis, Debye-Ang):
   XX=           -201.7740   YY=           -149.3607   ZZ=           -134.1222
   XY=              1.8057   XZ=              3.2101   YZ=              3.8374

 Summary of Natural Population Analysis:

                                       Natural Population
                Natural  -----------------------------------------------
    Atom  No    Charge         Core      Valence    Rydberg      Total
 -----------------------------------------------------------------------
      C    1   -0.17297      0.99964     2.16532    0.00802     3.17297
      N    2   -0.27001      0.99966     2.76017    0.01018     3.77001
      C    3   -0.08915      0.99957     2.07668    0.01290     3.08915
      C    4    0.05921      0.99954     1.92786    0.01339     2.94079
      C    5   -0.20398      0.99962     2.19600    0.00836     3.20398
      C    6   -0.20353      0.99964     2.19617    0.00772     3.20353
      C    7   -0.00734      0.99960     1.99553    0.01221     3.00734
      O    8   -0.30752      0.99989     3.29924    0.00839     4.30752
      C    9    0.41332      0.99967     1.56393    0.02308     2.58668
      O   10   -0.34173      0.99988     3.33702    0.00483     4.34173
      N   11   -0.33483      0.99967     2.82546    0.00971     3.83483
      C   12   -0.01481      0.99956     2.00329    0.01196     3.01481
      C   13   -0.18871      0.99962     2.18013    0.00896     3.18871
      C   14   -0.19239      0.99965     2.18489    0.00785     3.19239
      C   15   -0.19332      0.99965     2.18561    0.00806     3.19332
      C   16   -0.19730      0.99961     2.18939    0.00829     3.19730
      H   17    0.09374      0.00000     0.40529    0.00097     0.40626
      H   18    0.09224      0.00000     0.40676    0.00100     0.40776
      H   19    0.10764      0.00000     0.39154    0.00082     0.39236
      H   20    0.10110      0.00000     0.39685    0.00205     0.39890
      H   21    0.10176      0.00000     0.39659    0.00166     0.39824
      H   22    0.08846      0.00000     0.40956    0.00197     0.41154
      H   23    0.09876      0.00000     0.39968    0.00156     0.40124
      H   24    0.10737      0.00000     0.39162    0.00102     0.39263
      H   25    0.10683      0.00000     0.39121    0.00196     0.39317
      H   26    0.09597      0.00000     0.40289    0.00114     0.40403
      H   27    0.08141      0.00000     0.41667    0.00192     0.41859
      H   28    0.08641      0.00000     0.41232    0.00127     0.41359
      H   29    0.19169      0.00000     0.30588    0.00242     0.30831
      H   30    0.09308      0.00000     0.40483    0.00209     0.40692
      H   31    0.10374      0.00000     0.39531    0.00095     0.39626
      H   32    0.09347      0.00000     0.40506    0.00147     0.40653
      H   33    0.10121      0.00000     0.39735    0.00145     0.39879
      H   34    0.09858      0.00000     0.40016    0.00125     0.40142
      H   35    0.10151      0.00000     0.39732    0.00118     0.39849
      H   36    0.09763      0.00000     0.40114    0.00122     0.40237
      H   37    0.09732      0.00000     0.40133    0.00135     0.40268
      H   38    0.10510      0.00000     0.39365    0.00125     0.39490
 =======================================================================
   * Total *   -0.00000     15.99445    45.80967    0.19588    62.00000

 Normal termination of Gaussian 16 at Thu Dec 10 22:47:42 2020.
