 Gaussian 16, Revision A.03,

 -----------------------------------------------------------
 # opt freq B3LYP/6-31G(d) empiricaldispersion=gd3bj scf=xqc
 -----------------------------------------------------------

 ------------------------------
 CID_59755651_JID_7292_neutraal
 ------------------------------
 Symbolic Z-matrix:
 Charge =  0 Multiplicity = 1

 SCF Done:  E(RB3LYP) =  -737.776047471     A.U. after   13 cycles
 SCF Done:  E(RB3LYP) =  -737.780210883     A.U. after   11 cycles
 SCF Done:  E(RB3LYP) =  -737.780644795     A.U. after   10 cycles
 SCF Done:  E(RB3LYP) =  -737.780701294     A.U. after   10 cycles
 SCF Done:  E(RB3LYP) =  -737.780945592     A.U. after    9 cycles
 SCF Done:  E(RB3LYP) =  -737.780962125     A.U. after   10 cycles
 SCF Done:  E(RB3LYP) =  -737.780986002     A.U. after    9 cycles
 SCF Done:  E(RB3LYP) =  -737.780992130     A.U. after    9 cycles
 SCF Done:  E(RB3LYP) =  -737.780996154     A.U. after    8 cycles
 SCF Done:  E(RB3LYP) =  -737.780996865     A.U. after    7 cycles
 Optimization completed.
    -- Stationary point found.
 Normal termination of Gaussian 16 at Fri Dec 11 12:01:06 2020.

 --------------------------------------------------------------------
 #N Geom=AllCheck Guess=TCheck SCRF=Check GenChk RB3LYP/6-31G(d) Freq
 --------------------------------------------------------------------

 Structure from the checkpoint file:  "JID_7292.chk"
 ------------------------------
 CID_59755651_JID_7292_neutraal
 ------------------------------
 Charge =  0 Multiplicity = 1

 SCF Done:  E(RB3LYP) =  -737.780996865     A.U. after    1 cycles

  Exact polarizability: 171.693   0.890 153.753   0.073   1.506 135.959
 Approx polarizability: 220.622   2.909 217.043   1.310   1.081 211.538

                      1                      2                      3
                      A                      A                      A
 Frequencies --     76.8020                78.9380                94.5856
 Red. masses --      3.0083                 3.6668                 3.0349
 Frc consts  --      0.0105                 0.0135                 0.0160
 IR Inten    --      0.0301                 1.8264                 0.9468

                      4                      5                      6
                      A                      A                      A
 Frequencies --    104.4693               190.3676               206.3704
 Red. masses --      3.0769                 1.1753                 2.2555
 Frc consts  --      0.0198                 0.0251                 0.0566
 IR Inten    --      0.3691                 0.0253                 0.1032

                      7                      8                      9
                      A                      A                      A
 Frequencies --    221.3573               228.5211               238.7146
 Red. masses --      2.5380                 1.2520                 1.5128
 Frc consts  --      0.0733                 0.0385                 0.0508
 IR Inten    --      0.2550                 0.5026                 0.0296

                     10                     11                     12
                      A                      A                      A
 Frequencies --    241.9673               247.4662               255.6195
 Red. masses --      1.1647                 1.6222                 1.9585
 Frc consts  --      0.0402                 0.0585                 0.0754
 IR Inten    --      0.0829                 0.5591                 0.4818

                     13                     14                     15
                      A                      A                      A
 Frequencies --    261.1652               282.8328               315.7894
 Red. masses --      1.3961                 2.2478                 2.2465
 Frc consts  --      0.0561                 0.1059                 0.1320
 IR Inten    --      0.1012                 0.0908                 0.2386

                     16                     17                     18
                      A                      A                      A
 Frequencies --    323.8388               349.9941               385.9895
 Red. masses --      1.9630                 2.6048                 2.3604
 Frc consts  --      0.1213                 0.1880                 0.2072
 IR Inten    --      0.5678                 0.3610                 0.4611

                     19                     20                     21
                      A                      A                      A
 Frequencies --    393.8075               418.9700               433.7223
 Red. masses --      2.7599                 2.6285                 2.3677
 Frc consts  --      0.2522                 0.2718                 0.2624
 IR Inten    --      0.6124                 0.4962                 1.7313

                     22                     23                     24
                      A                      A                      A
 Frequencies --    442.2635               462.1647               479.2561
 Red. masses --      2.4486                 2.5658                 3.1865
 Frc consts  --      0.2822                 0.3229                 0.4312
 IR Inten    --      0.2975                 3.3741                 0.1029

                     25                     26                     27
                      A                      A                      A
 Frequencies --    510.4717               533.0137               549.9379
 Red. masses --      2.7378                 2.4221                 3.1647
 Frc consts  --      0.4203                 0.4054                 0.5639
 IR Inten    --      1.5104                 0.4437                 0.7903

                     28                     29                     30
                      A                      A                      A
 Frequencies --    595.0954               625.6464               656.6482
 Red. masses --      3.9501                 3.8278                 3.4102
 Frc consts  --      0.8242                 0.8828                 0.8663
 IR Inten    --      1.0069                 1.4845                 0.6877

                     31                     32                     33
                      A                      A                      A
 Frequencies --    667.9410               750.6453               766.0326
 Red. masses --      3.6814                 3.2848                 2.3090
 Frc consts  --      0.9677                 1.0905                 0.7983
 IR Inten    --      1.6416                 0.4624                 4.7214

                     34                     35                     36
                      A                      A                      A
 Frequencies --    827.0214               842.5367               853.1437
 Red. masses --      2.1072                 2.0610                 2.1426
 Frc consts  --      0.8492                 0.8620                 0.9188
 IR Inten    --     12.8388                 8.1914                 1.0770

                     37                     38                     39
                      A                      A                      A
 Frequencies --    871.0839               903.9290               919.3761
 Red. masses --      2.2214                 1.9698                 2.1259
 Frc consts  --      0.9931                 0.9483                 1.0587
 IR Inten    --      1.2601                 1.3269                 8.6354

                     40                     41                     42
                      A                      A                      A
 Frequencies --    931.6355               937.7078               953.9878
 Red. masses --      2.4730                 1.9080                 1.9718
 Frc consts  --      1.2646                 0.9885                 1.0573
 IR Inten    --      5.8305                 4.0709                12.2280

                     43                     44                     45
                      A                      A                      A
 Frequencies --    964.8232               969.6782               975.7659
 Red. masses --      1.8864                 1.5268                 1.8181
 Frc consts  --      1.0346                 0.8458                 1.0199
 IR Inten    --      2.2970                 0.6866                 1.1677

                     46                     47                     48
                      A                      A                      A
 Frequencies --    991.0604              1009.9149              1015.7439
 Red. masses --      1.9919                 1.7825                 2.2265
 Frc consts  --      1.1527                 1.0711                 1.3535
 IR Inten    --     35.7310                 2.8827                29.7985

                     49                     50                     51
                      A                      A                      A
 Frequencies --   1025.0874              1047.1180              1055.3586
 Red. masses --      1.6673                 1.8589                 2.0525
 Frc consts  --      1.0323                 1.2009                 1.3469
 IR Inten    --      5.8751                25.6648                30.0032

                     52                     53                     54
                      A                      A                      A
 Frequencies --   1105.9232              1121.6002              1123.9367
 Red. masses --      1.6997                 1.5520                 1.7462
 Frc consts  --      1.2248                 1.1503                 1.2997
 IR Inten    --      3.6433                 5.3023                 6.7944

                     55                     56                     57
                      A                      A                      A
 Frequencies --   1138.7262              1148.3702              1155.7968
 Red. masses --      2.1811                 2.4025                 2.3553
 Frc consts  --      1.6664                 1.8667                 1.8538
 IR Inten    --     53.1965                38.9280                63.2780

                     58                     59                     60
                      A                      A                      A
 Frequencies --   1165.8725              1184.4156              1189.1761
 Red. masses --      2.2025                 2.1141                 2.3842
 Frc consts  --      1.7639                 1.7473                 1.9865
 IR Inten    --      9.4893                27.9089                 5.7392

                     61                     62                     63
                      A                      A                      A
 Frequencies --   1202.1226              1205.8849              1217.1182
 Red. masses --      2.2926                 2.3340                 2.2153
 Frc consts  --      1.9520                 1.9997                 1.9335
 IR Inten    --     22.4037               108.8082                41.8162

                     64                     65                     66
                      A                      A                      A
 Frequencies --   1243.7336              1257.2968              1260.5127
 Red. masses --      2.0221                 1.9213                 1.9052
 Frc consts  --      1.8429                 1.7894                 1.7835
 IR Inten    --      4.2494                 5.4280                10.0745

                     67                     68                     69
                      A                      A                      A
 Frequencies --   1273.6378              1290.3360              1314.2915
 Red. masses --      1.5573                 1.5006                 1.7878
 Frc consts  --      1.4884                 1.4721                 1.8196
 IR Inten    --      9.2862                 4.3598                 8.2480

                     70                     71                     72
                      A                      A                      A
 Frequencies --   1327.4791              1338.2564              1348.4722
 Red. masses --      1.8083                 1.4091                 1.4926
 Frc consts  --      1.8775                 1.4868                 1.5991
 IR Inten    --      2.3768                 5.5033                 0.6690

                     73                     74                     75
                      A                      A                      A
 Frequencies --   1360.2490              1366.3268              1382.2275
 Red. masses --      1.7540                 1.6483                 1.1857
 Frc consts  --      1.9121                 1.8130                 1.3347
 IR Inten    --      2.5639                 3.3659                28.4721

                     76                     77                     78
                      A                      A                      A
 Frequencies --   1416.8066              1421.4307              1426.2758
 Red. masses --      1.2427                 1.3232                 1.2727
 Frc consts  --      1.4697                 1.5752                 1.5254
 IR Inten    --      1.0116                 0.7796                22.0767

                     79                     80                     81
                      A                      A                      A
 Frequencies --   1433.7155              1436.6227              1438.4637
 Red. masses --      1.2355                 1.3021                 1.2990
 Frc consts  --      1.4964                 1.5834                 1.5836
 IR Inten    --      2.2905                13.8301                 8.7950

                     82                     83                     84
                      A                      A                      A
 Frequencies --   1455.0494              1457.8287              1508.4627
 Red. masses --      1.2195                 1.5638                 1.0722
 Frc consts  --      1.5211                 1.9582                 1.4374
 IR Inten    --     18.4260                45.8634                 1.0207

                     85                     86                     87
                      A                      A                      A
 Frequencies --   1511.6043              1513.6319              1515.1246
 Red. masses --      1.0668                 1.0537                 1.0580
 Frc consts  --      1.4362                 1.4223                 1.4310
 IR Inten    --      0.9152                 3.1734                 2.3958

                     88                     89                     90
                      A                      A                      A
 Frequencies --   1516.4810              1518.9941              1527.5936
 Red. masses --      1.0570                 1.0519                 1.0660
 Frc consts  --      1.4321                 1.4300                 1.4656
 IR Inten    --      2.6295                 0.2292                12.3534

                     91                     92                     93
                      A                      A                      A
 Frequencies --   1529.6935              1532.2471              1536.6648
 Red. masses --      1.0515                 1.0563                 1.0553
 Frc consts  --      1.4496                 1.4611                 1.4682
 IR Inten    --      1.1842                 3.1895                 1.6042

                     94                     95                     96
                      A                      A                      A
 Frequencies --   1540.1761              1542.1623              1556.0983
 Red. masses --      1.0607                 1.0674                 1.0735
 Frc consts  --      1.4824                 1.4957                 1.5315
 IR Inten    --      6.5224                 6.2544                 4.6984

                     97                     98                     99
                      A                      A                      A
 Frequencies --   1557.1128              2962.3425              3026.3005
 Red. masses --      1.0652                 1.0828                 1.0811
 Frc consts  --      1.5217                 5.5985                 5.8337
 IR Inten    --     10.9956                57.0553                13.4734

                    100                    101                    102
                      A                      A                      A
 Frequencies --   3047.2874              3048.3467              3050.2348
 Red. masses --      1.0453                 1.0653                 1.0373
 Frc consts  --      5.7189                 5.8323                 5.6862
 IR Inten    --     16.6170                11.7640                20.7325

                    103                    104                    105
                      A                      A                      A
 Frequencies --   3054.0272              3055.2824              3067.4901
 Red. masses --      1.0394                 1.0409                 1.0627
 Frc consts  --      5.7121                 5.7247                 5.8915
 IR Inten    --     29.8840                53.6692                22.7380

                    106                    107                    108
                      A                      A                      A
 Frequencies --   3069.1096              3070.5536              3083.4957
 Red. masses --      1.0346                 1.0617                 1.0751
 Frc consts  --      5.7417                 5.8978                 6.0229
 IR Inten    --     12.7838                27.5729                39.1006

                    109                    110                    111
                      A                      A                      A
 Frequencies --   3090.0588              3097.5988              3104.7965
 Red. masses --      1.0830                 1.1016                 1.1036
 Frc consts  --      6.0925                 6.2276                 6.2682
 IR Inten    --     45.9261                 6.7707                27.0205

                    112                    113                    114
                      A                      A                      A
 Frequencies --   3106.0062              3113.0925              3113.6564
 Red. masses --      1.1017                 1.1008                 1.1049
 Frc consts  --      6.2619                 6.2854                 6.3111
 IR Inten    --     62.8729                43.7917                30.2853

                    115                    116                    117
                      A                      A                      A
 Frequencies --   3118.0689              3123.1864              3132.7204
 Red. masses --      1.1018                 1.1021                 1.1025
 Frc consts  --      6.3111                 6.3340                 6.3749
 IR Inten    --     22.6039                20.7275                24.3773

                    118                    119                    120
                      A                      A                      A
 Frequencies --   3140.4937              3146.6827              3151.0041
 Red. masses --      1.0921                 1.1037                 1.1034
 Frc consts  --      6.3464                 6.4386                 6.4548
 IR Inten    --     37.1345                21.1629                18.3715

                    121                    122                    123
                      A                      A                      A
 Frequencies --   3157.7044              3165.3181              3169.0059
 Red. masses --      1.0945                 1.0931                 1.0937
 Frc consts  --      6.4300                 6.4530                 6.4714
 IR Inten    --     31.3781                20.7104                11.6796

 - Thermochemistry -
 -------------------
 Temperature   298.150 Kelvin.  Pressure   1.00000 Atm.
 Atom     1 has atomic number  6 and mass  12.00000

 Molecular mass:   238.19328 amu.
 Principal axes and moments of inertia in atomic units:
                           1         2         3
     Eigenvalues --  2228.727154704.313665593.59461
           X            0.99999   0.00267   0.00327
           Y           -0.00267   1.00000  -0.00033
           Z           -0.00327   0.00033   0.99999
 This molecule is an asymmetric top.
 Rotational symmetry number  1.
 Warning -- assumption of classical behavior for rotation
           may cause significant error
 Rotational temperatures (Kelvin)      0.03886     0.01841     0.01548
 Rotational constants (GHZ):           0.80976     0.38364     0.32264
 Zero-point vibrational energy    1032157.4 (Joules/Mol)
                                  246.69154 (Kcal/Mol)
 Warning -- explicit consideration of  28 degrees of freedom as
           vibrations may cause significant error
 Vibrational temperatures:    110.50   113.57   136.09   150.31   273.90
          (Kelvin)            296.92   318.48   328.79   343.46   348.14
                              356.05   367.78   375.76   406.93   454.35
                              465.93   503.56   555.35   566.60   602.80
                              624.03   636.32   664.95   689.54   734.45
                              766.89   791.24   856.21   900.17   944.77
                              961.02  1080.01  1102.15  1189.90  1212.22
                             1227.48  1253.30  1300.55  1322.78  1340.42
                             1349.15  1372.58  1388.17  1395.15  1403.91
                             1425.91  1453.04  1461.43  1474.87  1506.57
                             1518.43  1591.18  1613.73  1617.09  1638.37
                             1652.25  1662.93  1677.43  1704.11  1710.96
                             1729.59  1735.00  1751.16  1789.46  1808.97
                             1813.60  1832.48  1856.51  1890.97  1909.95
                             1925.45  1940.15  1957.09  1965.84  1988.72
                             2038.47  2045.12  2052.09  2062.80  2066.98
                             2069.63  2093.49  2097.49  2170.34  2174.86
                             2177.78  2179.93  2181.88  2185.49  2197.87
                             2200.89  2204.56  2210.92  2215.97  2218.83
                             2238.88  2240.34  4262.15  4354.17  4384.37
                             4385.89  4388.61  4394.06  4395.87  4413.43
                             4415.76  4417.84  4436.46  4445.91  4456.75
                             4467.11  4468.85  4479.05  4479.86  4486.21
                             4493.57  4507.29  4518.47  4527.37  4533.59
                             4543.23  4554.19  4559.49

 Zero-point correction=                           0.393128 (Hartree/Particle)
 Thermal correction to Energy=                    0.409831
 Thermal correction to Enthalpy=                  0.410775
 Thermal correction to Gibbs Free Energy=         0.351449
 Sum of electronic and zero-point Energies=           -737.387869
 Sum of electronic and thermal Energies=              -737.371166
 Sum of electronic and thermal Enthalpies=            -737.370222
 Sum of electronic and thermal Free Energies=         -737.429548

                     E (Thermal)             CV                S
                      KCal/Mol        Cal/Mol-Kelvin    Cal/Mol-Kelvin
 Total                  257.173             69.230            124.862
 Electronic               0.000              0.000              0.000
 Translational            0.889              2.981             42.305
 Rotational               0.889              2.981             32.439
 Vibrational            255.395             63.268             50.118
 Vibration     1          0.599              1.965              3.971
 Vibration     2          0.600              1.963              3.917
 Vibration     3          0.603              1.953              3.563
 Vibration     4          0.605              1.946              3.369
 Vibration     5          0.634              1.853              2.224
 Vibration     6          0.641              1.831              2.076
 Vibration     7          0.648              1.809              1.948
 Vibration     8          0.651              1.797              1.891
 Vibration     9          0.657              1.781              1.812
 Vibration    10          0.658              1.776              1.788
 Vibration    11          0.661              1.767              1.749
 Vibration    12          0.666              1.753              1.691
 Vibration    13          0.669              1.744              1.654
 Vibration    14          0.682              1.705              1.516
 Vibration    15          0.703              1.643              1.332
 Vibration    16          0.708              1.628              1.291
 Vibration    17          0.727              1.575              1.166
 Vibration    18          0.755              1.500              1.016
 Vibration    19          0.761              1.483              0.986
 Vibration    20          0.782              1.429              0.895
 Vibration    21          0.794              1.397              0.847
 Vibration    22          0.802              1.378              0.820
 Vibration    23          0.820              1.334              0.760
 Vibration    24          0.836              1.296              0.712
 Vibration    25          0.866              1.227              0.632
 Vibration    26          0.888              1.177              0.581
 Vibration    27          0.905              1.140              0.544
 Vibration    28          0.953              1.042              0.458

 Optimization completed.
    -- Stationary point found.
 Normal termination of Gaussian 16 at Fri Dec 11 12:26:53 2020.

 ----------------------------------------------------------------------
 # B3LYP/6-311++G(d,p) empiricaldispersion=gd3bj scf=xqc pop=npa geom=c
 heck
 ----------------------------------------------------------------------

 --------------------------------------
 CID_59755651_JID_7292_Energie_neutraal
 --------------------------------------
 Structure from the checkpoint file:  "JID_7292.chk"
 Charge =  0 Multiplicity = 1

 SCF Done:  E(RB3LYP) =  -737.981213829     A.U. after   14 cycles
 Normal termination of Gaussian 16 at Fri Dec 11 12:40:06 2020.

 ----------------------------------------------------------------------
 # B3LYP/6-311++G(d,p) empiricaldispersion=gd3bj scf=xqc pop=npa geom=c
 heck
 ----------------------------------------------------------------------

 ------------------------------------
 CID_59755651_JID_7292_Energie_kation
 ------------------------------------
 Structure from the checkpoint file:  "JID_7292.chk"
 Charge =  1 Multiplicity = 2

 SCF Done:  E(UB3LYP) =  -737.661641610     A.U. after   30 cycles
 Normal termination of Gaussian 16 at Fri Dec 11 13:17:33 2020.
 Gaussian 16:  ES64L-G16RevA.03 25-Dec-2016

 ----------------------------------------------------------------------
 # B3LYP/6-311++G(d,p) empiricaldispersion=gd3bj scf=xqc pop=npa geom=c
 heck
 ----------------------------------------------------------------------

 -----------------------------------
 CID_59755651_JID_7292_Energie_anion
 -----------------------------------
 Structure from the checkpoint file:  "JID_7292.chk"
 Charge = -1 Multiplicity = 2

                         Standard orientation:
 ---------------------------------------------------------------------
 Center     Atomic      Atomic             Coordinates (Angstroms)
 Number     Number       Type             X           Y           Z
 ---------------------------------------------------------------------
      1          6           0       -3.147970    2.384177   -0.018511
      2          6           0       -2.267951    1.177465    0.267773
      3          6           0       -0.983593    1.173368   -0.563213
      4          6           0       -0.125389   -0.085990   -0.282285
      5          6           0        0.600996   -0.649482   -1.549662
      6          6           0        2.077581   -0.755704   -1.120705
      7          6           0        2.179919   -1.910022   -0.100255
      8          6           0        1.500639   -1.311263    1.164025
      9          6           0        1.065704    0.115432    0.721797
     10          6           0        2.255318    0.508999   -0.233146
     11          6           0        2.112080    1.830655   -1.007724
     12          6           0        3.615112    0.586820    0.482273
     13          6           0        0.785588    1.028042    1.905705
     14          8           0       -1.006499   -1.081239    0.289586
     15          6           0       -2.269650   -1.135422   -0.322335
     16          8           0       -3.051291    0.010909   -0.011022
     17          6           0       -2.996737   -2.359736    0.189321
     18          1           0       -2.640298    3.310520    0.273047
     19          1           0       -4.084653    2.308974    0.542481
     20          1           0       -3.391517    2.437192   -1.085280
     21          1           0       -2.002175    1.170872    1.333889
     22          1           0       -0.426866    2.089771   -0.361582
     23          1           0       -1.264342    1.203764   -1.624095
     24          1           0        0.475850    0.013987   -2.410563
     25          1           0        0.184132   -1.623180   -1.824379
     26          1           0        2.774557   -0.836772   -1.961291
     27          1           0        1.667372   -2.807578   -0.460542
     28          1           0        3.221713   -2.186663    0.089491
     29          1           0        0.644506   -1.893486    1.500177
     30          1           0        2.198012   -1.241000    2.003947
     31          1           0        2.010150    2.678631   -0.319778
     32          1           0        3.017295    2.004991   -1.601370
     33          1           0        1.268372    1.858035   -1.697451
     34          1           0        3.663909    1.479225    1.117219
     35          1           0        3.836536   -0.276656    1.111060
     36          1           0        4.419326    0.670651   -0.258190
     37          1           0       -0.038461    0.632383    2.509139
     38          1           0        1.666520    1.094074    2.553704
     39          1           0        0.522832    2.047485    1.603648
     40          1           0       -2.140823   -1.186971   -1.417708
     41          1           0       -4.013919   -2.382415   -0.211556
     42          1           0       -2.468540   -3.269221   -0.112137
     43          1           0       -3.047048   -2.318014    1.281245
 ---------------------------------------------------------------------

 SCF Done:  E(UB3LYP) =  -737.965658230     A.U. after   31 cycles

 The electronic state is 2-A.
 Alpha  occ. eigenvalues --  -19.03328 -19.02668 -10.17536 -10.13543 -10.12745
 Alpha  occ. eigenvalues --  -10.08348 -10.08255 -10.07364 -10.07271 -10.07106
 Alpha  occ. eigenvalues --  -10.06652 -10.06537 -10.06334 -10.06093 -10.05875
 Alpha  occ. eigenvalues --  -10.05682 -10.05556  -0.98218  -0.91167  -0.78274
 Alpha  occ. eigenvalues --   -0.71357  -0.66396  -0.66089  -0.64887  -0.64508
 Alpha  occ. eigenvalues --   -0.60018  -0.57839  -0.56946  -0.53612  -0.53301
 Alpha  occ. eigenvalues --   -0.50949  -0.45990  -0.44295  -0.43485  -0.41151
 Alpha  occ. eigenvalues --   -0.40433  -0.38998  -0.37923  -0.37003  -0.35049
 Alpha  occ. eigenvalues --   -0.34667  -0.33158  -0.32535  -0.31711  -0.31030
 Alpha  occ. eigenvalues --   -0.30250  -0.30146  -0.29671  -0.29211  -0.28685
 Alpha  occ. eigenvalues --   -0.28109  -0.27867  -0.27434  -0.27318  -0.26293
 Alpha  occ. eigenvalues --   -0.25316  -0.24703  -0.24453  -0.23525  -0.22916
 Alpha  occ. eigenvalues --   -0.21804  -0.21309  -0.19373  -0.19082  -0.17049
 Alpha  occ. eigenvalues --   -0.16036   0.04403
 Alpha virt. eigenvalues --    0.06499   0.06601   0.07046   0.08198   0.08485
 Alpha virt. eigenvalues --    0.08652   0.09191   0.09319   0.10278   0.10881
 Alpha virt. eigenvalues --    0.11000   0.11120   0.11393   0.12026   0.12493

  Beta  occ. eigenvalues --  -19.03325 -19.02664 -10.17530 -10.13541 -10.12741
  Beta  occ. eigenvalues --  -10.08346 -10.08252 -10.07353 -10.07254 -10.07096
  Beta  occ. eigenvalues --  -10.06627 -10.06524 -10.06324 -10.06072 -10.05867
  Beta  occ. eigenvalues --  -10.05654 -10.05525  -0.98211  -0.91161  -0.78261
  Beta  occ. eigenvalues --   -0.71340  -0.66367  -0.66067  -0.64866  -0.64486
  Beta  occ. eigenvalues --   -0.59982  -0.57782  -0.56913  -0.53573  -0.53265
  Beta  occ. eigenvalues --   -0.50918  -0.45960  -0.44269  -0.43460  -0.41115
  Beta  occ. eigenvalues --   -0.40410  -0.38965  -0.37882  -0.36978  -0.35022
  Beta  occ. eigenvalues --   -0.34640  -0.33129  -0.32509  -0.31685  -0.31009
  Beta  occ. eigenvalues --   -0.30231  -0.30121  -0.29646  -0.29187  -0.28658
  Beta  occ. eigenvalues --   -0.28081  -0.27840  -0.27406  -0.27293  -0.26264
  Beta  occ. eigenvalues --   -0.25295  -0.24684  -0.24428  -0.23499  -0.22891
  Beta  occ. eigenvalues --   -0.21779  -0.21286  -0.19353  -0.19065  -0.17037
  Beta  occ. eigenvalues --   -0.16024
  Beta virt. eigenvalues --    0.06360   0.07107   0.07216   0.07630   0.08592
  Beta virt. eigenvalues --    0.08948   0.09021   0.09628   0.09688   0.10622
  Beta virt. eigenvalues --    0.11183   0.11322   0.11479   0.11688   0.12296

 Mulliken charges and spin densities:
               1          2
     1  C    0.670802  -1.283355
     2  C   -1.015740   0.735523
     3  C    0.861033  -1.391770
     4  C   -1.431207   1.082329
     5  C    1.108473  -1.469252
     6  C   -0.834938   1.216175
     7  C    0.353969  -1.000433
     8  C   -0.361709   0.006801
     9  C   -1.334416   1.796956
    10  C   -0.778501   0.903250
    11  C    1.381721  -2.039943
    12  C    0.351289  -0.863935
    13  C    1.364890  -1.847990
    14  O    0.057444   0.019027
    15  C   -0.139799   0.163121
    16  O   -0.048882   0.015102
    17  C    0.209938  -0.777441
    18  H   -0.315423   0.461391
    19  H   -0.001223   0.153037
    20  H   -0.112389   0.261179
    21  H    0.151848   0.028068
    22  H    0.586896  -0.436189
    23  H   -0.074461   0.283313
    24  H   -0.116142   0.300067
    25  H    0.083648   0.056483
    26  H   -0.542767   0.793857
    27  H   -0.023410   0.161725
    28  H   -0.092112   0.256166
    29  H    0.236728  -0.065335
    30  H   -0.170984   0.349651
    31  H   -0.212298   0.380874
    32  H   -0.264894   0.429574
    33  H   -0.290595   0.449468
    34  H   -0.072823   0.220332
    35  H    0.038171   0.099407
    36  H   -0.195797   0.358711
    37  H    0.075591   0.104526
    38  H   -0.065014   0.237731
    39  H   -0.105599   0.271775
    40  H   -0.071909   0.256957
    41  H    0.047377   0.110827
    42  H    0.023833   0.118622
    43  H    0.069382   0.093618
 Sum of Mulliken charges =  -1.00000   1.00000

 Dipole moment (field-independent basis, Debye):
    X=             -3.1406    Y=             -3.6766    Z=              1.9750  Tot=              5.2232
 Quadrupole moment (field-independent basis, Debye-Ang):
   XX=           -182.3935   YY=           -159.3464   ZZ=           -151.1251
   XY=              1.2330   XZ=              2.9014   YZ=              1.3302

 Summary of Natural Population Analysis:

                                       Natural Population
                Natural  -----------------------------------------------
    Atom  No    Charge         Core      Valence    Rydberg      Total
 -----------------------------------------------------------------------
      C    1   -0.28700      0.99964     2.28135    0.00600     3.28700
      C    2    0.06675      0.99954     1.92015    0.01356     2.93325
      C    3   -0.22397      0.99955     2.21437    0.01005     3.22397
      C    4    0.15928      0.99945     1.82260    0.01868     2.84072
      C    5   -0.20253      0.99957     2.19157    0.01139     3.20253
      C    6   -0.10594      0.99956     2.09329    0.01309     3.10594
      C    7   -0.19154      0.99963     2.18338    0.00853     3.19154
      C    8   -0.19439      0.99959     2.18519    0.00960     3.19439
      C    9   -0.03284      0.99946     2.01627    0.01711     3.03284
      C   10   -0.03687      0.99952     2.02043    0.01692     3.03687
      C   11   -0.28835      0.99961     2.28104    0.00771     3.28835
      C   12   -0.28719      0.99961     2.28002    0.00756     3.28719
      C   13   -0.29148      0.99960     2.28350    0.00838     3.29148
      O   14   -0.31777      0.99986     3.30843    0.00948     4.31777
      C   15    0.21921      0.99958     1.76165    0.01956     2.78079
      O   16   -0.31462      0.99987     3.30623    0.00853     4.31462
      C   17   -0.29069      0.99963     2.28599    0.00507     3.29069
      H   18    0.10168      0.00000     0.39728    0.00104     0.39832
      H   19    0.10197      0.00000     0.39707    0.00095     0.39803
      H   20    0.09929      0.00000     0.39947    0.00124     0.40071
      H   21    0.08287      0.00000     0.41490    0.00222     0.41713
      H   22    0.11535      0.00000     0.38303    0.00162     0.38465
      H   23    0.10258      0.00000     0.39571    0.00171     0.39742
      H   24    0.10367      0.00000     0.39504    0.00129     0.39633
      H   25    0.10458      0.00000     0.39414    0.00128     0.39542
      H   26    0.10365      0.00000     0.39477    0.00157     0.39635
      H   27    0.09768      0.00000     0.40125    0.00107     0.40232
      H   28    0.09964      0.00000     0.39937    0.00099     0.40036
      H   29    0.11236      0.00000     0.38648    0.00117     0.38764
      H   30    0.09847      0.00000     0.40059    0.00094     0.40153
      H   31    0.10176      0.00000     0.39697    0.00127     0.39824
      H   32    0.10360      0.00000     0.39518    0.00122     0.39640
      H   33    0.10164      0.00000     0.39678    0.00158     0.39836
      H   34    0.10146      0.00000     0.39753    0.00101     0.39854
      H   35    0.10133      0.00000     0.39755    0.00112     0.39867
      H   36    0.10317      0.00000     0.39578    0.00106     0.39683
      H   37    0.10335      0.00000     0.39548    0.00117     0.39665
      H   38    0.10377      0.00000     0.39528    0.00095     0.39623
      H   39    0.10164      0.00000     0.39728    0.00107     0.39836
      H   40    0.06668      0.00000     0.43140    0.00192     0.43332
      H   41    0.10278      0.00000     0.39633    0.00089     0.39722
      H   42    0.10126      0.00000     0.39784    0.00090     0.39874
      H   43    0.10372      0.00000     0.39524    0.00104     0.39628
 =======================================================================
   * Total *    0.00000     16.99327    48.78321    0.22352    66.00000

 Normal termination of Gaussian 16 at Fri Dec 11 13:52:36 2020.
