 Gaussian 16, Revision A.03,

 -----------------------------------------------------------
 # opt freq B3LYP/6-31G(d) empiricaldispersion=gd3bj scf=xqc
 -----------------------------------------------------------

 --------------------------------
 CID_105847059_JID_10836_neutraal
 --------------------------------
 Symbolic Z-matrix:
 Charge =  0 Multiplicity = 1

 SCF Done:  E(RB3LYP) =  -863.105255979     A.U. after   14 cycles
 SCF Done:  E(RB3LYP) =  -863.110008250     A.U. after   13 cycles
 SCF Done:  E(RB3LYP) =  -863.112987777     A.U. after   12 cycles
 SCF Done:  E(RB3LYP) =  -863.114022607     A.U. after   11 cycles
 SCF Done:  E(RB3LYP) =  -863.114980504     A.U. after   12 cycles
 SCF Done:  E(RB3LYP) =  -863.115406769     A.U. after   11 cycles
 SCF Done:  E(RB3LYP) =  -863.115351986     A.U. after   12 cycles
 SCF Done:  E(RB3LYP) =  -863.115627309     A.U. after   11 cycles
 SCF Done:  E(RB3LYP) =  -863.115687307     A.U. after   10 cycles
 SCF Done:  E(RB3LYP) =  -863.115704906     A.U. after   10 cycles
 SCF Done:  E(RB3LYP) =  -863.115720836     A.U. after    9 cycles
 SCF Done:  E(RB3LYP) =  -863.115721426     A.U. after    9 cycles
 SCF Done:  E(RB3LYP) =  -863.115721592     A.U. after    7 cycles
 SCF Done:  E(RB3LYP) =  -863.115721618     A.U. after    6 cycles
 SCF Done:  E(RB3LYP) =  -863.115721622     A.U. after    6 cycles
 Optimization completed.
    -- Stationary point found.
 Normal termination of Gaussian 16 at Sat Dec 12 16:53:22 2020.

 --------------------------------------------------------------------
 #N Geom=AllCheck Guess=TCheck SCRF=Check GenChk RB3LYP/6-31G(d) Freq
 --------------------------------------------------------------------

 Structure from the checkpoint file:  "JID_10836.chk"
 --------------------------------
 CID_105847059_JID_10836_neutraal
 --------------------------------
 Charge =  0 Multiplicity = 1

 SCF Done:  E(RB3LYP) =  -863.115721623     A.U. after    1 cycles

  Exact polarizability: 269.060  -9.079 183.099 -10.392  -8.572 120.207
 Approx polarizability: 355.709 -18.986 300.249 -18.899 -20.325 183.669

                      1                      2                      3
                      A                      A                      A
 Frequencies --     18.8144                30.1510                51.8865
 Red. masses --      1.0264                 4.3842                 3.3858
 Frc consts  --      0.0002                 0.0023                 0.0054
 IR Inten    --      0.2254                 0.2893                 0.0152

                      4                      5                      6
                      A                      A                      A
 Frequencies --     55.8378                81.0137               108.0523
 Red. masses --      2.7516                 2.4879                 2.8927
 Frc consts  --      0.0051                 0.0096                 0.0199
 IR Inten    --      0.1837                 0.2610                 1.9440

                      7                      8                      9
                      A                      A                      A
 Frequencies --    123.0424               137.3192               157.0487
 Red. masses --      4.0997                 3.1231                 3.4060
 Frc consts  --      0.0366                 0.0347                 0.0495
 IR Inten    --      1.7972                 0.2464                 0.9762

                     10                     11                     12
                      A                      A                      A
 Frequencies --    184.4584               199.2359               224.7314
 Red. masses --      3.1121                 1.1387                 2.4639
 Frc consts  --      0.0624                 0.0266                 0.0733
 IR Inten    --     10.5151                 0.2213                 3.3883

                     13                     14                     15
                      A                      A                      A
 Frequencies --    253.8034               262.3759               271.8050
 Red. masses --      2.1245                 1.3825                 1.7407
 Frc consts  --      0.0806                 0.0561                 0.0758
 IR Inten    --      2.1812                 4.1445                 1.3098

                     16                     17                     18
                      A                      A                      A
 Frequencies --    276.8545               295.8267               304.5825
 Red. masses --      3.3739                 2.1242                 3.8216
 Frc consts  --      0.1524                 0.1095                 0.2089
 IR Inten    --      0.8568                 0.2860                 1.0950

                     19                     20                     21
                      A                      A                      A
 Frequencies --    319.5497               328.1181               370.6562
 Red. masses --      3.2953                 2.8956                 3.1706
 Frc consts  --      0.1983                 0.1837                 0.2566
 IR Inten    --      3.6030                 0.5811                 3.5770

                     22                     23                     24
                      A                      A                      A
 Frequencies --    379.6886               392.6778               440.8349
 Red. masses --      2.9864                 3.9706                 2.9764
 Frc consts  --      0.2537                 0.3607                 0.3408
 IR Inten    --      4.0311                 6.7166                 1.0319

                     25                     26                     27
                      A                      A                      A
 Frequencies --    445.5072               470.9110               503.2424
 Red. masses --      2.7513                 5.5258                 2.1743
 Frc consts  --      0.3217                 0.7220                 0.3244
 IR Inten    --     13.2912                 9.6832                10.4244

                     28                     29                     30
                      A                      A                      A
 Frequencies --    513.5089               531.3595               569.3016
 Red. masses --      1.5266                 2.4037                 4.1483
 Frc consts  --      0.2372                 0.3999                 0.7922
 IR Inten    --     28.1742                 5.0082                 5.0733

                     31                     32                     33
                      A                      A                      A
 Frequencies --    598.3509               613.8898               650.1834
 Red. masses --      4.3671                 3.6040                 3.1798
 Frc consts  --      0.9212                 0.8002                 0.7920
 IR Inten    --      7.0439                 3.1252                 1.1922

                     34                     35                     36
                      A                      A                      A
 Frequencies --    696.4334               707.8045               724.0360
 Red. masses --      3.1173                 4.0305                 4.8990
 Frc consts  --      0.8908                 1.1897                 1.5131
 IR Inten    --     71.6040                 3.3365                26.7257

                     37                     38                     39
                      A                      A                      A
 Frequencies --    758.5732               788.7370               795.7969
 Red. masses --      5.0721                 2.0787                 2.1380
 Frc consts  --      1.7196                 0.7619                 0.7978
 IR Inten    --      0.8712                33.6519                40.0344

                     40                     41                     42
                      A                      A                      A
 Frequencies --    808.0198               831.9062               837.0032
 Red. masses --      1.6542                 1.1372                 2.2382
 Frc consts  --      0.6363                 0.4637                 0.9239
 IR Inten    --    243.1637                 2.7494                 2.8817

                     43                     44                     45
                      A                      A                      A
 Frequencies --    878.4996               892.3853               897.4190
 Red. masses --      3.3887                 1.3625                 2.5134
 Frc consts  --      1.5409                 0.6393                 1.1926
 IR Inten    --      7.7876                 7.2812                 1.5016

                     46                     47                     48
                      A                      A                      A
 Frequencies --    908.9890               924.8987               942.8041
 Red. masses --      1.2656                 2.2735                 3.3441
 Frc consts  --      0.6161                 1.1459                 1.7513
 IR Inten    --      0.2546                11.0203                 3.6011

                     49                     50                     51
                      A                      A                      A
 Frequencies --    966.4367               970.8042               976.1557
 Red. masses --      2.9882                 1.6109                 1.8356
 Frc consts  --      1.6444                 0.8945                 1.0305
 IR Inten    --      4.3723                 2.4195                 3.6434

                     52                     53                     54
                      A                      A                      A
 Frequencies --    992.3658              1033.0152              1033.3636
 Red. masses --      1.9500                 1.4721                 1.4390
 Frc consts  --      1.1314                 0.9255                 0.9054
 IR Inten    --      9.7021                 2.2921                 5.6862

                     55                     56                     57
                      A                      A                      A
 Frequencies --   1054.4333              1074.1784              1082.9455
 Red. masses --      2.4969                 1.4830                 3.1744
 Frc consts  --      1.6357                 1.0082                 2.1934
 IR Inten    --      8.4385                 7.4834                 7.0987

                     58                     59                     60
                      A                      A                      A
 Frequencies --   1113.4771              1150.1463              1158.8340
 Red. masses --      2.8496                 2.2275                 2.1652
 Frc consts  --      2.0816                 1.7361                 1.7131
 IR Inten    --     96.9166                16.6175                40.5804

                     61                     62                     63
                      A                      A                      A
 Frequencies --   1170.4411              1184.7476              1195.4022
 Red. masses --      1.6072                 1.8356                 1.6768
 Frc consts  --      1.2973                 1.5180                 1.4117
 IR Inten    --     14.1747                89.9229                24.3949

                     64                     65                     66
                      A                      A                      A
 Frequencies --   1199.3647              1206.1965              1216.4794
 Red. masses --      1.9265                 1.7889                 2.0034
 Frc consts  --      1.6327                 1.5335                 1.7468
 IR Inten    --     31.2250                 7.1349                14.6960

                     67                     68                     69
                      A                      A                      A
 Frequencies --   1234.9866              1251.7659              1283.5792
 Red. masses --      2.1432                 1.5939                 2.5350
 Frc consts  --      1.9259                 1.4715                 2.4608
 IR Inten    --     17.1565                 3.3480                 1.8528

                     70                     71                     72
                      A                      A                      A
 Frequencies --   1294.6833              1303.1460              1316.1555
 Red. masses --      1.6641                 3.5299                 1.1202
 Frc consts  --      1.6435                 3.5318                 1.1433
 IR Inten    --      5.7110                 4.5219                 1.3403

                     73                     74                     75
                      A                      A                      A
 Frequencies --   1319.4570              1320.7586              1341.8172
 Red. masses --      1.9703                 1.7072                 3.6167
 Frc consts  --      2.0210                 1.7546                 3.8367
 IR Inten    --     16.4363                 9.9523                74.3794

                     76                     77                     78
                      A                      A                      A
 Frequencies --   1385.7646              1398.6670              1425.4336
 Red. masses --      1.2523                 3.3041                 1.7165
 Frc consts  --      1.4169                 3.8083                 2.0549
 IR Inten    --     63.6171                 4.0919                29.0782

                     79                     80                     81
                      A                      A                      A
 Frequencies --   1428.9267              1432.4139              1441.9519
 Red. masses --      1.2858                 1.3237                 1.2479
 Frc consts  --      1.5468                 1.6002                 1.5288
 IR Inten    --      9.1056                 2.4718                 0.9871

                     82                     83                     84
                      A                      A                      A
 Frequencies --   1451.1688              1461.9215              1481.7900
 Red. masses --      1.2847                 1.3720                 3.1276
 Frc consts  --      1.5940                 1.7276                 4.0461
 IR Inten    --     22.0499                10.2583                63.6397

                     85                     86                     87
                      A                      A                      A
 Frequencies --   1497.7770              1502.4374              1513.5756
 Red. masses --      2.4998                 1.1637                 1.0504
 Frc consts  --      3.3041                 1.5476                 1.4178
 IR Inten    --     79.8281                23.5855                 0.4359

                     88                     89                     90
                      A                      A                      A
 Frequencies --   1516.1229              1516.7594              1517.2117
 Red. masses --      1.0480                 1.0489                 1.0712
 Frc consts  --      1.4193                 1.4218                 1.4529
 IR Inten    --      4.5104                 2.8289                 8.5618

                     91                     92                     93
                      A                      A                      A
 Frequencies --   1519.7329              1528.4053              1532.1550
 Red. masses --      1.6862                 1.0488                 1.0613
 Frc consts  --      2.2945                 1.4435                 1.4679
 IR Inten    --     40.8615                 2.0767                 6.2278

                     94                     95                     96
                      A                      A                      A
 Frequencies --   1538.2746              1539.2629              1554.8039
 Red. masses --      1.0920                 1.6342                 1.0875
 Frc consts  --      1.5224                 2.2813                 1.5489
 IR Inten    --     11.3935                12.5772                 2.0280

                     97                     98                     99
                      A                      A                      A
 Frequencies --   1605.3007              1645.2192              1682.9839
 Red. masses --      4.6126                 6.1847                 4.3072
 Frc consts  --      7.0033                 9.8632                 7.1880
 IR Inten    --    324.8583                 1.6759                19.7025

                    100                    101                    102
                      A                      A                      A
 Frequencies --   1714.1796              3004.6872              3023.6673
 Red. masses --      1.3884                 1.0576                 1.0836
 Frc consts  --      2.4037                 5.6257                 5.8368
 IR Inten    --    129.8993                37.6472                69.2684

                    103                    104                    105
                      A                      A                      A
 Frequencies --   3036.8121              3039.1779              3039.5748
 Red. masses --      1.0398                 1.0407                 1.1018
 Frc consts  --      5.6498                 5.6634                 5.9974
 IR Inten    --     55.9636                43.6416                24.4017

                    106                    107                    108
                      A                      A                      A
 Frequencies --   3061.3661              3061.8458              3089.0444
 Red. masses --      1.0390                 1.0356                 1.0979
 Frc consts  --      5.7371                 5.7200                 6.1724
 IR Inten    --     16.9129                15.9228                27.4484

                    109                    110                    111
                      A                      A                      A
 Frequencies --   3096.6600              3103.1894              3110.2937
 Red. masses --      1.0675                 1.1000                 1.0864
 Frc consts  --      6.0314                 6.2410                 6.1922
 IR Inten    --     11.9203                23.6960                28.3050

                    112                    113                    114
                      A                      A                      A
 Frequencies --   3113.7996              3121.8387              3123.3117
 Red. masses --      1.1009                 1.1009                 1.1026
 Frc consts  --      6.2891                 6.3216                 6.3370
 IR Inten    --     13.8019                19.2456                36.9788

                    115                    116                    117
                      A                      A                      A
 Frequencies --   3131.4119              3139.7322              3160.4443
 Red. masses --      1.1026                 1.1035                 1.0979
 Frc consts  --      6.3700                 6.4092                 6.4611
 IR Inten    --     38.0132                23.2301                11.8849

                    118                    119                    120
                      A                      A                      A
 Frequencies --   3162.2921              3176.2503              3195.1423
 Red. masses --      1.1038                 1.0866                 1.0934
 Frc consts  --      6.5036                 6.4588                 6.5770
 IR Inten    --      8.7077                15.0529                33.4979

                    121                    122                    123
                      A                      A                      A
 Frequencies --   3199.1596              3454.5729              3616.8298
 Red. masses --      1.0912                 1.0587                 1.0888
 Frc consts  --      6.5798                 7.4440                 8.3921
 IR Inten    --      6.3882               298.8186                63.4550

 - Thermochemistry -
 -------------------
 Temperature   298.150 Kelvin.  Pressure   1.00000 Atm.
 Atom     1 has atomic number  6 and mass  12.00000

 Molecular mass:   273.18411 amu.
 Principal axes and moments of inertia in atomic units:
                           1         2         3
     Eigenvalues --  2370.031759221.29729**********
           X            0.99997  -0.00736  -0.00172
           Y            0.00735   0.99996  -0.00413
           Z            0.00175   0.00411   0.99999
 This molecule is an asymmetric top.
 Rotational symmetry number  1.
 Warning -- assumption of classical behavior for rotation
           may cause significant error
 Rotational temperatures (Kelvin)      0.03655     0.00939     0.00814
 Rotational constants (GHZ):           0.76148     0.19571     0.16951
 Zero-point vibrational energy     981514.5 (Joules/Mol)
                                  234.58759 (Kcal/Mol)
 Warning -- explicit consideration of  32 degrees of freedom as
           vibrations may cause significant error
 Vibrational temperatures:     27.07    43.38    74.65    80.34   116.56
          (Kelvin)            155.46   177.03   197.57   225.96   265.39
                              286.66   323.34   365.17   377.50   391.07
                              398.33   425.63   438.23   459.76   472.09
                              533.29   546.29   564.98   634.26   640.99
                              677.54   724.05   738.82   764.51   819.10
                              860.89   883.25   935.47  1002.01  1018.37
                             1041.73  1091.42  1134.82  1144.97  1162.56
                             1196.93  1204.26  1263.96  1283.94  1291.19
                             1307.83  1330.72  1356.48  1390.49  1396.77
                             1404.47  1427.79  1486.28  1486.78  1517.09
                             1545.50  1558.12  1602.05  1654.80  1667.30
                             1684.00  1704.59  1719.92  1725.62  1735.45
                             1750.24  1776.87  1801.01  1846.78  1862.76
                             1874.94  1893.65  1898.40  1900.28  1930.58
                             1993.81  2012.37  2050.88  2055.91  2060.92
                             2074.65  2087.91  2103.38  2131.97  2154.97
                             2161.67  2177.70  2181.36  2182.28  2182.93
                             2186.56  2199.03  2204.43  2213.23  2214.66
                             2237.02  2309.67  2367.10  2421.44  2466.32
                             4323.07  4350.38  4369.30  4372.70  4373.27
                             4404.62  4405.31  4444.45  4455.40  4464.80
                             4475.02  4480.06  4491.63  4493.75  4505.40
                             4517.37  4547.17  4549.83  4569.92  4597.10
                             4602.88  4970.36  5203.81

 Zero-point correction=                           0.373839 (Hartree/Particle)
 Thermal correction to Energy=                    0.393580
 Thermal correction to Enthalpy=                  0.394524
 Thermal correction to Gibbs Free Energy=         0.325105
 Sum of electronic and zero-point Energies=           -862.741883
 Sum of electronic and thermal Energies=              -862.722142
 Sum of electronic and thermal Enthalpies=            -862.721198
 Sum of electronic and thermal Free Energies=         -862.790616

                     E (Thermal)             CV                S
                      KCal/Mol        Cal/Mol-Kelvin    Cal/Mol-Kelvin
 Total                  246.975             76.554            146.104
 Electronic               0.000              0.000              0.000
 Translational            0.889              2.981             42.714
 Rotational               0.889              2.981             33.808
 Vibrational            245.197             70.593             69.582
 Vibration     1          0.593              1.986              6.756
 Vibration     2          0.594              1.984              5.819
 Vibration     3          0.596              1.977              4.744
 Vibration     4          0.596              1.975              4.599
 Vibration     5          0.600              1.962              3.866
 Vibration     6          0.606              1.943              3.304
 Vibration     7          0.610              1.930              3.052
 Vibration     8          0.614              1.916              2.841
 Vibration     9          0.621              1.895              2.585
 Vibration    10          0.631              1.861              2.283
 Vibration    11          0.637              1.841              2.140
 Vibration    12          0.649              1.803              1.921
 Vibration    13          0.665              1.756              1.704
 Vibration    14          0.670              1.742              1.646
 Vibration    15          0.675              1.725              1.585
 Vibration    16          0.678              1.716              1.553
 Vibration    17          0.690              1.682              1.440
 Vibration    18          0.695              1.665              1.392
 Vibration    19          0.705              1.636              1.312
 Vibration    20          0.711              1.619              1.269
 Vibration    21          0.743              1.532              1.077
 Vibration    22          0.750              1.513              1.040
 Vibration    23          0.760              1.486              0.990
 Vibration    24          0.801              1.381              0.824
 Vibration    25          0.805              1.371              0.809
 Vibration    26          0.828              1.315              0.735
 Vibration    27          0.859              1.243              0.650
 Vibration    28          0.869              1.220              0.625
 Vibration    29          0.886              1.181              0.584
 Vibration    30          0.925              1.098              0.506
 Vibration    31          0.956              1.035              0.452
 Vibration    32          0.973              1.002              0.426

                           ! Non-Optimized Parameters !
 Normal termination of Gaussian 16 at Sat Dec 12 17:17:36 2020.

 ----------------------------------------------------------------------
 # B3LYP/6-311++G(d,p) empiricaldispersion=gd3bj scf=xqc pop=npa geom=c
 heck
 ----------------------------------------------------------------------

 ----------------------------------------
 CID_105847059_JID_10836_Energie_neutraal
 ----------------------------------------
 Structure from the checkpoint file:  "JID_10836.chk"
 Charge =  0 Multiplicity = 1

 SCF Done:  E(RB3LYP) =  -863.348632071     A.U. after   15 cycles
 Normal termination of Gaussian 16 at Sat Dec 12 17:28:59 2020.

 ----------------------------------------------------------------------
 # B3LYP/6-311++G(d,p) empiricaldispersion=gd3bj scf=xqc pop=npa geom=c
 heck
 ----------------------------------------------------------------------

 --------------------------------------
 CID_105847059_JID_10836_Energie_kation
 --------------------------------------
 Structure from the checkpoint file:  "JID_10836.chk"
 Charge =  1 Multiplicity = 2

 SCF Done:  E(UB3LYP) =  -863.088985834     A.U. after   25 cycles
 Normal termination of Gaussian 16 at Sat Dec 12 17:56:05 2020.
 Gaussian 16:  ES64L-G16RevA.03 25-Dec-2016

 ----------------------------------------------------------------------
 # B3LYP/6-311++G(d,p) empiricaldispersion=gd3bj scf=xqc pop=npa geom=c
 heck
 ----------------------------------------------------------------------

 -------------------------------------
 CID_105847059_JID_10836_Energie_anion
 -------------------------------------
 Structure from the checkpoint file:  "JID_10836.chk"
 Charge = -1 Multiplicity = 2

                         Standard orientation:
 ---------------------------------------------------------------------
 Center     Atomic      Atomic             Coordinates (Angstroms)
 Number     Number       Type             X           Y           Z
 ---------------------------------------------------------------------
      1          6           0        4.937821   -1.842235    0.510380
      2          6           0        4.439792   -0.657656   -0.297502
      3          8           0        3.285198   -0.126781    0.350512
      4          6           0        2.732763    0.995891   -0.320444
      5          6           0        1.867863    0.637797   -1.561340
      6          6           0        0.580546    0.986387   -0.766732
      7          6           0        1.467459    1.544891    0.410588
      8          6           0        1.454855    3.074870    0.415954
      9          6           0        1.175477    0.994877    1.800970
     10          7           0       -0.351440   -0.080736   -0.467722
     11          6           0       -1.727960    0.124697   -0.311643
     12          6           0       -2.263014   -1.142260    0.012787
     13          6           0       -3.637621   -1.282088    0.215804
     14          6           0       -4.461909   -0.158623    0.103612
     15          6           0       -3.897076    1.092917   -0.213991
     16          6           0       -2.526429    1.257873   -0.422164
     17          6           0       -5.949845   -0.271440    0.344474
     18          7           0       -1.248023   -2.087128    0.089816
     19          6           0       -0.143069   -1.427600   -0.184000
     20          7           0        1.102578   -2.018740   -0.246469
     21          1           0        5.156448   -1.539094    1.538869
     22          1           0        5.851016   -2.249142    0.063776
     23          1           0        4.187495   -2.639401    0.537707
     24          1           0        5.209173    0.127320   -0.360690
     25          1           0        4.190920   -0.961528   -1.325073
     26          1           0        3.526119    1.737754   -0.490019
     27          1           0        1.944995   -0.396495   -1.898679
     28          1           0        2.021691    1.300214   -2.417071
     29          1           0       -0.013107    1.768144   -1.244670
     30          1           0        2.219015    3.468842    1.096079
     31          1           0        1.651297    3.485041   -0.582455
     32          1           0        0.478857    3.449419    0.745776
     33          1           0        1.214558   -0.094828    1.839091
     34          1           0        1.902270    1.379107    2.524767
     35          1           0        0.173892    1.306088    2.117656
     36          1           0       -4.051936   -2.255889    0.460644
     37          1           0       -4.549819    1.958401   -0.296880
     38          1           0       -2.116149    2.235488   -0.658952
     39          1           0       -6.275302   -1.316499    0.336230
     40          1           0       -6.234320    0.153899    1.316187
     41          1           0       -6.522943    0.264807   -0.421102
     42          1           0        1.057174   -2.957209    0.133835
     43          1           0        1.877354   -1.473755    0.130983
 ---------------------------------------------------------------------

 SCF Done:  E(UB3LYP) =  -863.339223922     A.U. after   33 cycles
 SCF Done:  E(UB3LYP) =  -863.339223922     a.u. after    1 cycles

 The electronic state is 2-A.
 Alpha  occ. eigenvalues --  -19.04700 -14.27618 -14.23617 -14.19832 -10.18282
 Alpha  occ. eigenvalues --  -10.13277 -10.13007 -10.12931 -10.11648 -10.10589
 Alpha  occ. eigenvalues --  -10.09967 -10.09368 -10.09180 -10.09056 -10.08258
 Alpha  occ. eigenvalues --  -10.08157 -10.08130 -10.07536 -10.07231 -10.07102
 Alpha  occ. eigenvalues --   -0.95947  -0.93690  -0.82906  -0.80941  -0.75766
 Alpha  occ. eigenvalues --   -0.75693  -0.68206  -0.67215  -0.66035  -0.64722
 Alpha  occ. eigenvalues --   -0.60633  -0.59900  -0.59098  -0.54632  -0.53004
 Alpha  occ. eigenvalues --   -0.51790  -0.51075  -0.49509  -0.46660  -0.44306
 Alpha  occ. eigenvalues --   -0.41733  -0.41038  -0.40890  -0.39397  -0.38511
 Alpha  occ. eigenvalues --   -0.38194  -0.37807  -0.36692  -0.35577  -0.34922
 Alpha  occ. eigenvalues --   -0.34509  -0.34190  -0.32629  -0.31677  -0.31028
 Alpha  occ. eigenvalues --   -0.30643  -0.30617  -0.29697  -0.29459  -0.28745
 Alpha  occ. eigenvalues --   -0.27845  -0.26864  -0.26483  -0.26402  -0.25811
 Alpha  occ. eigenvalues --   -0.24923  -0.23983  -0.21505  -0.20283  -0.19934
 Alpha  occ. eigenvalues --   -0.18963  -0.17592  -0.13624  -0.11961   0.03924
 Alpha virt. eigenvalues --    0.05663   0.06039   0.06904   0.07157   0.07430
 Alpha virt. eigenvalues --    0.07762   0.08283   0.08855   0.09083   0.09156
 Alpha virt. eigenvalues --    0.09530   0.10370   0.10697   0.10947   0.11121

  Beta  occ. eigenvalues --  -19.04690 -14.27618 -14.23609 -14.19829 -10.18281
  Beta  occ. eigenvalues --  -10.13258 -10.12997 -10.12900 -10.11648 -10.10588
  Beta  occ. eigenvalues --  -10.09967 -10.09368 -10.09177 -10.09046 -10.08255
  Beta  occ. eigenvalues --  -10.08136 -10.08129 -10.07502 -10.07192 -10.07089
  Beta  occ. eigenvalues --   -0.95929  -0.93686  -0.82895  -0.80932  -0.75760
  Beta  occ. eigenvalues --   -0.75675  -0.68197  -0.67172  -0.66003  -0.64715
  Beta  occ. eigenvalues --   -0.60610  -0.59859  -0.59072  -0.54570  -0.52991
  Beta  occ. eigenvalues --   -0.51730  -0.51043  -0.49479  -0.46642  -0.44285
  Beta  occ. eigenvalues --   -0.41697  -0.41023  -0.40855  -0.39360  -0.38472
  Beta  occ. eigenvalues --   -0.38174  -0.37783  -0.36679  -0.35556  -0.34901
  Beta  occ. eigenvalues --   -0.34498  -0.34183  -0.32602  -0.31630  -0.31000
  Beta  occ. eigenvalues --   -0.30625  -0.30581  -0.29674  -0.29430  -0.28705
  Beta  occ. eigenvalues --   -0.27837  -0.26841  -0.26472  -0.26369  -0.25773
  Beta  occ. eigenvalues --   -0.24896  -0.23933  -0.21475  -0.20273  -0.19923
  Beta  occ. eigenvalues --   -0.18947  -0.17562  -0.13618  -0.11956
  Beta virt. eigenvalues --    0.05652   0.06301   0.06809   0.06946   0.07774
  Beta virt. eigenvalues --    0.07860   0.08143   0.08271   0.09094   0.09352
  Beta virt. eigenvalues --    0.09565   0.09966   0.10547   0.10757   0.11229

 Mulliken charges and spin densities:
               1          2
     1  C    0.681013  -1.251740
     2  C    0.460817  -0.524592
     3  O   -0.030697  -0.011418
     4  C   -0.241893   0.171368
     5  C    0.596567  -1.223637
     6  C   -0.083094  -0.096613
     7  C   -1.775314   1.851241
     8  C    1.558289  -2.214227
     9  C   -0.448766  -0.011604
    10  N    0.347624   0.032319
    11  C    0.241622  -0.453305
    12  C   -0.345519   0.047021
    13  C   -0.552466   0.077059
    14  C    0.441609  -0.037854
    15  C   -0.369062   0.008485
    16  C   -0.035142  -0.166356
    17  C   -0.116201  -0.382439
    18  N   -0.146545   0.003155
    19  C    0.050679   0.163065
    20  N   -0.316044   0.011310
    21  H   -0.029766   0.189217
    22  H   -0.342458   0.490362
    23  H   -0.178234   0.302328
    24  H   -0.515433   0.657885
    25  H   -0.103656   0.241665
    26  H   -0.305439   0.570863
    27  H    0.255371  -0.001239
    28  H   -0.601429   0.772700
    29  H    0.293755  -0.029481
    30  H   -0.188214   0.352374
    31  H   -0.446549   0.617633
    32  H   -0.072173   0.214571
    33  H   -0.019781   0.194999
    34  H   -0.043950   0.219634
    35  H    0.204138  -0.048887
    36  H    0.115783   0.020452
    37  H    0.027269   0.141770
    38  H   -0.282076   0.381911
    39  H    0.128590   0.011664
    40  H    0.137060   0.017280
    41  H    0.116596   0.015593
    42  H    0.194905   0.106344
    43  H    0.738215  -0.430880
 Sum of Mulliken charges =  -1.00000   1.00000

 Dipole moment (field-independent basis, Debye):
    X=             -8.8294    Y=             -2.9604    Z=              2.2076  Tot=              9.5706
 Quadrupole moment (field-independent basis, Debye-Ang):
   XX=           -222.6561   YY=           -178.8578   ZZ=           -159.1477
   XY=             -7.1529   XZ=              4.9158   YZ=              4.9498

 Summary of Natural Population Analysis:

                                       Natural Population
                Natural  -----------------------------------------------
    Atom  No    Charge         Core      Valence    Rydberg      Total
 -----------------------------------------------------------------------
      C    1   -0.29207      0.99966     2.28660    0.00581     3.29207
      C    2   -0.00992      0.99959     1.99897    0.01136     3.00992
      O    3   -0.31171      0.99987     3.30108    0.01076     4.31171
      C    4    0.07384      0.99949     1.91019    0.01648     2.92616
      C    5   -0.21261      0.99961     2.20402    0.00898     3.21261
      C    6    0.00067      0.99954     1.98442    0.01538     2.99933
      C    7   -0.04683      0.99955     2.03351    0.01377     3.04683
      C    8   -0.28146      0.99962     2.27458    0.00726     3.28146
      C    9   -0.28719      0.99961     2.28090    0.00669     3.28719
      N   10   -0.22627      0.99958     2.71713    0.00955     3.72627
      C   11    0.07078      0.99945     1.92014    0.00963     2.92922
      C   12    0.06623      0.99946     1.92179    0.01252     2.93377
      C   13   -0.10833      0.99948     2.10097    0.00788     3.10833
      C   14   -0.02985      0.99953     2.02271    0.00760     3.02985
      C   15   -0.11252      0.99954     2.10309    0.00990     3.11252
      C   16   -0.11576      0.99953     2.10738    0.00885     3.11576
      C   17   -0.28955      0.99964     2.28500    0.00491     3.28955
      N   18   -0.28673      0.99967     2.77720    0.00987     3.78673
      C   19    0.30469      0.99961     1.67925    0.01645     2.69531
      N   20   -0.41047      0.99969     2.90210    0.00867     3.91047
      H   21    0.10204      0.00000     0.39678    0.00118     0.39796
      H   22    0.10428      0.00000     0.39447    0.00125     0.39572
      H   23    0.09589      0.00000     0.40299    0.00113     0.40411
      H   24    0.08604      0.00000     0.41170    0.00226     0.41396
      H   25    0.08123      0.00000     0.41718    0.00159     0.41877
      H   26    0.08999      0.00000     0.40693    0.00308     0.41001
      H   27    0.11360      0.00000     0.38470    0.00170     0.38640
      H   28    0.11092      0.00000     0.38744    0.00164     0.38908
      H   29    0.10417      0.00000     0.39346    0.00236     0.39583
      H   30    0.10384      0.00000     0.39503    0.00113     0.39616
      H   31    0.10415      0.00000     0.39377    0.00208     0.39585
      H   32    0.10023      0.00000     0.39854    0.00123     0.39977
      H   33    0.10380      0.00000     0.39474    0.00146     0.39620
      H   34    0.10578      0.00000     0.39338    0.00083     0.39422
      H   35    0.10263      0.00000     0.39654    0.00083     0.39737
      H   36    0.09960      0.00000     0.39875    0.00166     0.40040
      H   37    0.09719      0.00000     0.40195    0.00085     0.40281
      H   38    0.10569      0.00000     0.39314    0.00117     0.39431
      H   39    0.09934      0.00000     0.39984    0.00082     0.40066
      H   40    0.10015      0.00000     0.39864    0.00121     0.39985
      H   41    0.09980      0.00000     0.39913    0.00107     0.40020
      H   42    0.19259      0.00000     0.30529    0.00212     0.30741
      H   43    0.20213      0.00000     0.29423    0.00364     0.29787
 =======================================================================
   * Total *   -0.00000     19.99172    53.76967    0.23862    74.00000

 Normal termination of Gaussian 16 at Sat Dec 12 18:31:58 2020.
