 Gaussian 16, Revision A.03,

 -----------------------------------------------------------
 # opt freq B3LYP/6-31G(d) empiricaldispersion=gd3bj scf=xqc
 -----------------------------------------------------------

 -------------------------------
 CID_116203789_JID_7524_neutraal
 -------------------------------
 Symbolic Z-matrix:
 Charge =  0 Multiplicity = 1

 SCF Done:  E(RB3LYP) =  -1068.12990187     A.U. after   15 cycles
 SCF Done:  E(RB3LYP) =  -1068.13484848     A.U. after   12 cycles
 SCF Done:  E(RB3LYP) =  -1068.13556089     A.U. after   12 cycles
 SCF Done:  E(RB3LYP) =  -1068.13574170     A.U. after   12 cycles
 SCF Done:  E(RB3LYP) =  -1068.13581459     A.U. after   10 cycles
 SCF Done:  E(RB3LYP) =  -1068.13585020     A.U. after   10 cycles
 SCF Done:  E(RB3LYP) =  -1068.13585502     A.U. after   10 cycles
 SCF Done:  E(RB3LYP) =  -1068.13585676     A.U. after    9 cycles
 SCF Done:  E(RB3LYP) =  -1068.13585741     A.U. after    8 cycles
 Optimization completed.
    -- Stationary point found.
 Normal termination of Gaussian 16 at Mon Dec 14 18:44:29 2020.

 --------------------------------------------------------------------
 #N Geom=AllCheck Guess=TCheck SCRF=Check GenChk RB3LYP/6-31G(d) Freq
 --------------------------------------------------------------------

 Structure from the checkpoint file:  "JID_7524.chk"
 -------------------------------
 CID_116203789_JID_7524_neutraal
 -------------------------------
 Charge =  0 Multiplicity = 1

 SCF Done:  E(RB3LYP) =  -1068.13585741     A.U. after    1 cycles

  Exact polarizability: 261.328  -5.153 156.483 -14.718  -4.785 110.602
 Approx polarizability: 366.249 -14.555 258.976 -27.470 -10.086 168.421

                      1                      2                      3
                      A                      A                      A
 Frequencies --     21.1455                29.1794                52.1298
 Red. masses --      6.6168                 4.2913                 5.7057
 Frc consts  --      0.0017                 0.0022                 0.0091
 IR Inten    --      1.2254                 0.5177                 1.0357

                      4                      5                      6
                      A                      A                      A
 Frequencies --     81.6192               108.0778               137.2746
 Red. masses --      5.5431                 5.8662                 4.2983
 Frc consts  --      0.0218                 0.0404                 0.0477
 IR Inten    --      1.1733                 1.1428                 3.1725

                      7                      8                      9
                      A                      A                      A
 Frequencies --    149.2670               199.6300               210.1053
 Red. masses --      4.1877                 4.2308                 2.9217
 Frc consts  --      0.0550                 0.0993                 0.0760
 IR Inten    --      6.4624                 0.9769                 0.5600

                     10                     11                     12
                      A                      A                      A
 Frequencies --    224.7890               255.6017               289.4099
 Red. masses --      3.9383                 4.6398                 2.3068
 Frc consts  --      0.1173                 0.1786                 0.1138
 IR Inten    --      4.2655                 2.1957                 0.7824

                     13                     14                     15
                      A                      A                      A
 Frequencies --    323.6131               360.5618               364.7610
 Red. masses --      2.3575                 3.9675                 1.7363
 Frc consts  --      0.1455                 0.3039                 0.1361
 IR Inten    --      3.9174                 0.6561                11.4509

                     16                     17                     18
                      A                      A                      A
 Frequencies --    370.8526               410.5543               435.8008
 Red. masses --      1.4969                 3.6831                 1.9536
 Frc consts  --      0.1213                 0.3658                 0.2186
 IR Inten    --     42.7684                 3.3165                94.9952

                     19                     20                     21
                      A                      A                      A
 Frequencies --    443.8626               448.7825               482.5526
 Red. masses --      2.2092                 2.2252                 3.1153
 Frc consts  --      0.2564                 0.2641                 0.4274
 IR Inten    --     11.3746                84.8539                56.7616

                     22                     23                     24
                      A                      A                      A
 Frequencies --    503.6720               515.2042               534.1555
 Red. masses --      1.5816                 2.4751                 7.0500
 Frc consts  --      0.2364                 0.3871                 1.1851
 IR Inten    --    212.2455                56.3307                12.6269

                     25                     26                     27
                      A                      A                      A
 Frequencies --    589.3613               629.4749               644.6238
 Red. masses --      3.8585                 4.1949                 3.2070
 Frc consts  --      0.7896                 0.9793                 0.7852
 IR Inten    --      7.5080                 1.3598                 2.4861

                     28                     29                     30
                      A                      A                      A
 Frequencies --    652.1248               657.4189               687.1176
 Red. masses --      3.5275                 3.0936                 4.0533
 Frc consts  --      0.8838                 0.7878                 1.1275
 IR Inten    --     10.1616                 1.3018                 1.1455

                     31                     32                     33
                      A                      A                      A
 Frequencies --    720.9440               735.5770               774.4033
 Red. masses --      3.0554                 5.0977                 4.2664
 Frc consts  --      0.9357                 1.6251                 1.5075
 IR Inten    --      2.6859                 2.2313                 0.7571

                     34                     35                     36
                      A                      A                      A
 Frequencies --    787.1278               800.5041               819.0636
 Red. masses --      1.5905                 1.7931                 2.0157
 Frc consts  --      0.5806                 0.6770                 0.7967
 IR Inten    --      9.3702                 1.0193                26.4574

                     37                     38                     39
                      A                      A                      A
 Frequencies --    824.8687               926.0780               942.6761
 Red. masses --      2.2439                 2.0760                 1.2866
 Frc consts  --      0.8996                 1.0490                 0.6736
 IR Inten    --     22.4179                 6.0449                 0.7690

                     40                     41                     42
                      A                      A                      A
 Frequencies --    956.1893               959.4067               968.4257
 Red. masses --      1.6802                 1.7982                 1.9510
 Frc consts  --      0.9051                 0.9752                 1.0780
 IR Inten    --      8.8647                 1.0593                13.2399

                     43                     44                     45
                      A                      A                      A
 Frequencies --    986.0544              1007.1286              1056.3745
 Red. masses --      2.9496                 2.2213                 1.9597
 Frc consts  --      1.6897                 1.3275                 1.2885
 IR Inten    --      6.3783                 1.8888                 0.9542

                     46                     47                     48
                      A                      A                      A
 Frequencies --   1092.6629              1108.5181              1124.7060
 Red. masses --      2.1198                 1.7043                 1.3770
 Frc consts  --      1.4911                 1.2339                 1.0263
 IR Inten    --      0.5299                 0.7325                 1.2966

                     49                     50                     51
                      A                      A                      A
 Frequencies --   1146.7957              1170.8209              1177.8584
 Red. masses --      1.7438                 1.5165                 1.6309
 Frc consts  --      1.3512                 1.2248                 1.3331
 IR Inten    --      9.2405                37.4933                 4.6883

                     52                     53                     54
                      A                      A                      A
 Frequencies --   1198.1770              1224.3868              1244.0571
 Red. masses --      1.0853                 1.2839                 2.8180
 Frc consts  --      0.9180                 1.1340                 2.5696
 IR Inten    --      5.3337                29.8303                 4.9075

                     55                     56                     57
                      A                      A                      A
 Frequencies --   1268.3451              1279.8840              1295.3358
 Red. masses --      1.6838                 1.2648                 1.2937
 Frc consts  --      1.5959                 1.2207                 1.2789
 IR Inten    --     66.7351                62.0585                 0.6539

                     58                     59                     60
                      A                      A                      A
 Frequencies --   1315.2294              1323.4646              1333.8665
 Red. masses --      1.5990                 1.3487                 1.3880
 Frc consts  --      1.6297                 1.3919                 1.4550
 IR Inten    --     43.4980                16.8946                16.6534

                     61                     62                     63
                      A                      A                      A
 Frequencies --   1359.4971              1373.6655              1384.1087
 Red. masses --      1.3697                 2.6668                 2.1462
 Frc consts  --      1.4915                 2.9649                 2.4224
 IR Inten    --     33.9744                12.5129               126.1286

                     64                     65                     66
                      A                      A                      A
 Frequencies --   1398.5198              1404.7164              1411.8595
 Red. masses --      1.5990                 1.4262                 1.5836
 Frc consts  --      1.8426                 1.6581                 1.8598
 IR Inten    --      4.9345                 0.3953                 4.4588

                     67                     68                     69
                      A                      A                      A
 Frequencies --   1437.9178              1474.7681              1497.3892
 Red. masses --      1.5633                 2.1754                 1.0798
 Frc consts  --      1.9045                 2.7876                 1.4264
 IR Inten    --      2.0605                24.4662                 1.3033

                     70                     71                     72
                      A                      A                      A
 Frequencies --   1505.3859              1509.3286              1515.8910
 Red. masses --      1.0966                 1.0879                 1.1079
 Frc consts  --      1.4642                 1.4602                 1.4999
 IR Inten    --     10.0724                15.9402                18.9748

                     73                     74                     75
                      A                      A                      A
 Frequencies --   1551.6082              1555.0183              1570.6855
 Red. masses --      1.9133                 1.2617                 2.7880
 Frc consts  --      2.7139                 1.7975                 4.0525
 IR Inten    --     39.8175                83.1169               136.5242

                     76                     77                     78
                      A                      A                      A
 Frequencies --   1618.4360              1678.0811              1694.6401
 Red. masses --      3.8488                 3.5862                 1.3753
 Frc consts  --      5.9398                 5.9499                 2.3270
 IR Inten    --     33.1287               394.3737               288.5915

                     79                     80                     81
                      A                      A                      A
 Frequencies --   2322.3236              2980.0722              3003.5532
 Red. masses --     12.6552                 1.0742                 1.0817
 Frc consts  --     40.2129                 5.6207                 5.7495
 IR Inten    --    145.0456                52.0299                25.1631

                     82                     83                     84
                      A                      A                      A
 Frequencies --   3036.3697              3053.3636              3061.9952
 Red. masses --      1.0657                 1.0608                 1.0668
 Frc consts  --      5.7890                 5.8268                 5.8930
 IR Inten    --     49.2703                31.7366                18.7356

                     85                     86                     87
                      A                      A                      A
 Frequencies --   3067.5998              3089.1101              3090.1779
 Red. masses --      1.0655                 1.0959                 1.0864
 Frc consts  --      5.9073                 6.1618                 6.1125
 IR Inten    --     14.4938                27.3482                30.3032

                     88                     89                     90
                      A                      A                      A
 Frequencies --   3094.6886              3120.2323              3122.4045
 Red. masses --      1.0990                 1.1030                 1.1037
 Frc consts  --      6.2015                 6.3269                 6.3397
 IR Inten    --     45.4168                25.0931                17.4352

                     91                     92                     93
                      A                      A                      A
 Frequencies --   3168.5223              3209.4235              3238.5225
 Red. masses --      1.0895                 1.0896                 1.0923
 Frc consts  --      6.4448                 6.6125                 6.7497
 IR Inten    --     16.8365                 5.1676                10.1316

                     94                     95                     96
                      A                      A                      A
 Frequencies --   3570.0682              3584.3749              3678.7914
 Red. masses --      1.0477                 1.0755                 1.1002
 Frc consts  --      7.8672                 8.1412                 8.7723
 IR Inten    --     39.0301                15.9343                21.4416

 - Thermochemistry -
 -------------------
 Temperature   298.150 Kelvin.  Pressure   1.00000 Atm.
 Atom     1 has atomic number  6 and mass  12.00000

 Molecular mass:   247.11432 amu.
 Principal axes and moments of inertia in atomic units:
                           1         2         3
     Eigenvalues --  1510.22324********************
           X            0.99998   0.00342  -0.00453
           Y           -0.00360   0.99916  -0.04090
           Z            0.00439   0.04091   0.99915
 This molecule is an asymmetric top.
 Rotational symmetry number  1.
 Warning -- assumption of classical behavior for rotation
           may cause significant error
 Rotational temperatures (Kelvin)      0.05735     0.00713     0.00688
 Rotational constants (GHZ):           1.19502     0.14850     0.14329
 Zero-point vibrational energy     752539.4 (Joules/Mol)
                                  179.86123 (Kcal/Mol)
 Warning -- explicit consideration of  25 degrees of freedom as
           vibrations may cause significant error
 Vibrational temperatures:     30.42    41.98    75.00   117.43   155.50
          (Kelvin)            197.51   214.76   287.22   302.29   323.42
                              367.75   416.40   465.61   518.77   524.81
                              533.57   590.70   627.02   638.62   645.70
                              694.29   724.67   741.26   768.53   847.96
                              905.67   927.47   938.26   945.88   988.61
                             1037.28  1058.33  1114.19  1132.50  1151.75
                             1178.45  1186.80  1332.42  1356.30  1375.74
                             1380.37  1393.35  1418.71  1449.03  1519.89
                             1572.10  1594.91  1618.20  1649.98  1684.55
                             1694.68  1723.91  1761.62  1789.92  1824.87
                             1841.47  1863.70  1892.32  1904.17  1919.14
                             1956.01  1976.40  1991.42  2012.16  2021.07
                             2031.35  2068.84  2121.86  2154.41  2165.91
                             2171.59  2181.03  2232.42  2237.32  2259.87
                             2328.57  2414.38  2438.21  3341.31  4287.66
                             4321.44  4368.66  4393.11  4405.53  4413.59
                             4444.54  4446.08  4452.57  4489.32  4492.44
                             4558.80  4617.64  4659.51  5136.53  5157.12
                             5292.96

 Zero-point correction=                           0.286627 (Hartree/Particle)
 Thermal correction to Energy=                    0.302906
 Thermal correction to Enthalpy=                  0.303850
 Thermal correction to Gibbs Free Energy=         0.241429
 Sum of electronic and zero-point Energies=          -1067.849230
 Sum of electronic and thermal Energies=             -1067.832951
 Sum of electronic and thermal Enthalpies=           -1067.832007
 Sum of electronic and thermal Free Energies=        -1067.894429

                     E (Thermal)             CV                S
                      KCal/Mol        Cal/Mol-Kelvin    Cal/Mol-Kelvin
 Total                  190.077             63.418            131.378
 Electronic               0.000              0.000              0.000
 Translational            0.889              2.981             42.415
 Rotational               0.889              2.981             33.802
 Vibrational            188.299             57.456             55.161
 Vibration     1          0.593              1.985              6.524
 Vibration     2          0.593              1.984              5.884
 Vibration     3          0.596              1.977              4.735
 Vibration     4          0.600              1.962              3.852
 Vibration     5          0.606              1.943              3.303
 Vibration     6          0.614              1.916              2.842
 Vibration     7          0.618              1.903              2.682
 Vibration     8          0.638              1.840              2.137
 Vibration     9          0.642              1.825              2.043
 Vibration    10          0.649              1.803              1.920
 Vibration    11          0.666              1.753              1.692
 Vibration    12          0.686              1.693              1.477
 Vibration    13          0.708              1.628              1.292
 Vibration    14          0.735              1.554              1.120
 Vibration    15          0.738              1.545              1.102
 Vibration    16          0.743              1.532              1.076
 Vibration    17          0.775              1.447              0.925
 Vibration    18          0.796              1.392              0.840
 Vibration    19          0.803              1.374              0.815
 Vibration    20          0.808              1.364              0.799
 Vibration    21          0.839              1.289              0.703
 Vibration    22          0.859              1.242              0.649
 Vibration    23          0.870              1.216              0.621
 Vibration    24          0.889              1.174              0.578
 Vibration    25          0.947              1.054              0.468

                           ! Non-Optimized Parameters !
 Normal termination of Gaussian 16 at Mon Dec 14 18:56:04 2020.

 ----------------------------------------------------------------------
 # B3LYP/6-311++G(d,p) empiricaldispersion=gd3bj scf=xqc pop=npa geom=c
 heck
 ----------------------------------------------------------------------

 ---------------------------------------
 CID_116203789_JID_7524_Energie_neutraal
 ---------------------------------------
 Structure from the checkpoint file:  "JID_7524.chk"
 Charge =  0 Multiplicity = 1

 SCF Done:  E(RB3LYP) =  -1068.34995031     A.U. after   15 cycles
 Normal termination of Gaussian 16 at Mon Dec 14 19:02:11 2020.

 ----------------------------------------------------------------------
 # B3LYP/6-311++G(d,p) empiricaldispersion=gd3bj scf=xqc pop=npa geom=c
 heck
 ----------------------------------------------------------------------

 -------------------------------------
 CID_116203789_JID_7524_Energie_kation
 -------------------------------------
 Structure from the checkpoint file:  "JID_7524.chk"
 Charge =  1 Multiplicity = 2

 SCF Done:  E(UB3LYP) =  -1068.07615092     A.U. after   33 cycles
 SCF Done:  E(UB3LYP) =  -1068.07615092     a.u. after    1 cycles
 Normal termination of Gaussian 16 at Mon Dec 14 19:22:10 2020.
 Gaussian 16:  ES64L-G16RevA.03 25-Dec-2016

 ----------------------------------------------------------------------
 # B3LYP/6-311++G(d,p) empiricaldispersion=gd3bj scf=xqc pop=npa geom=c
 heck
 ----------------------------------------------------------------------

 ------------------------------------
 CID_116203789_JID_7524_Energie_anion
 ------------------------------------
 Structure from the checkpoint file:  "JID_7524.chk"
 Charge = -1 Multiplicity = 2

                         Standard orientation:
 ---------------------------------------------------------------------
 Center     Atomic      Atomic             Coordinates (Angstroms)
 Number     Number       Type             X           Y           Z
 ---------------------------------------------------------------------
      1          6           0       -2.862347    1.352498   -0.584102
      2          6           0       -3.239155    0.219817   -1.540454
      3         16           0       -4.696448   -0.738167   -0.968955
      4          6           0       -4.099670   -1.138909    0.718595
      5          6           0       -3.653205    0.101786    1.496471
      6          6           0       -2.497044    0.877278    0.836609
      7          6           0       -1.195966    0.062020    0.869858
      8          7           0       -0.078942    0.854489    0.386971
      9          6           0        1.202216    0.354258    0.263726
     10          6           0        2.265715    1.247562    0.054773
     11          6           0        3.575834    0.797928   -0.120021
     12          6           0        3.829178   -0.601427   -0.070310
     13          6           0        2.761399   -1.486365    0.142441
     14          6           0        1.464909   -1.033646    0.311696
     15          6           0        5.164528   -1.068542   -0.213813
     16          7           0        6.281033   -1.386610   -0.325855
     17          7           0        4.602890    1.681072   -0.383645
     18          1           0       -3.703829    2.051810   -0.515259
     19          1           0       -2.014269    1.899714   -1.013238
     20          1           0       -3.520317    0.623819   -2.517273
     21          1           0       -2.396082   -0.460238   -1.703796
     22          1           0       -3.296608   -1.881569    0.653356
     23          1           0       -4.943634   -1.620305    1.221251
     24          1           0       -3.353591   -0.203935    2.508524
     25          1           0       -4.511715    0.774559    1.604323
     26          1           0       -2.325959    1.775793    1.449408
     27          1           0       -1.020953   -0.306295    1.894982
     28          1           0       -1.290089   -0.822039    0.231557
     29          1           0       -0.127950    1.837769    0.621494
     30          1           0        2.061837    2.315023    0.003247
     31          1           0        2.971030   -2.550389    0.185394
     32          1           0        0.666313   -1.743113    0.486393
     33          1           0        4.470718    2.637357   -0.086869
     34          1           0        5.545056    1.334504   -0.255327
 ---------------------------------------------------------------------

 SCF Done:  E(UB3LYP) =  -1068.34758325     A.U. after   33 cycles
 SCF Done:  E(UB3LYP) =  -1068.34758325     a.u. after    1 cycles

 The electronic state is 2-A.
 Alpha  occ. eigenvalues --  -88.75299 -14.23731 -14.23490 -14.21287 -10.13963
 Alpha  occ. eigenvalues --  -10.12929 -10.11680 -10.11679 -10.11470 -10.11451
 Alpha  occ. eigenvalues --  -10.10108 -10.09415 -10.09383 -10.08952 -10.08515
 Alpha  occ. eigenvalues --  -10.07589 -10.07210  -7.83929  -5.80309  -5.79975
 Alpha  occ. eigenvalues --   -5.79295  -0.85514  -0.84331  -0.80850  -0.76218
 Alpha  occ. eigenvalues --   -0.74717  -0.69165  -0.67650  -0.66050  -0.64928
 Alpha  occ. eigenvalues --   -0.59957  -0.54838  -0.53992  -0.53368  -0.51722
 Alpha  occ. eigenvalues --   -0.47006  -0.45935  -0.44004  -0.43671  -0.40714
 Alpha  occ. eigenvalues --   -0.39465  -0.38572  -0.36915  -0.36041  -0.34836
 Alpha  occ. eigenvalues --   -0.34383  -0.33797  -0.32842  -0.31817  -0.31492
 Alpha  occ. eigenvalues --   -0.31271  -0.30239  -0.27771  -0.27420  -0.27209
 Alpha  occ. eigenvalues --   -0.26925  -0.25751  -0.24650  -0.24282  -0.23880
 Alpha  occ. eigenvalues --   -0.22952  -0.21828  -0.19866  -0.14177  -0.13047
 Alpha  occ. eigenvalues --   -0.11649   0.03554
 Alpha virt. eigenvalues --    0.05389   0.05817   0.06454   0.06955   0.07553
 Alpha virt. eigenvalues --    0.08213   0.08536   0.08726   0.09816   0.09908
 Alpha virt. eigenvalues --    0.10132   0.10358   0.11626   0.11762   0.12093

  Beta  occ. eigenvalues --  -88.75297 -14.23706 -14.23445 -14.21260 -10.13969
  Beta  occ. eigenvalues --  -10.12867 -10.11671 -10.11669 -10.11465 -10.11442
  Beta  occ. eigenvalues --  -10.10093 -10.09358 -10.09329 -10.08936 -10.08503
  Beta  occ. eigenvalues --  -10.07600 -10.07175  -7.83927  -5.80308  -5.79974
  Beta  occ. eigenvalues --   -5.79292  -0.85438  -0.84285  -0.80806  -0.76171
  Beta  occ. eigenvalues --   -0.74646  -0.69111  -0.67623  -0.65975  -0.64858
  Beta  occ. eigenvalues --   -0.59912  -0.54706  -0.53932  -0.53324  -0.51670
  Beta  occ. eigenvalues --   -0.46958  -0.45888  -0.43925  -0.43612  -0.40646
  Beta  occ. eigenvalues --   -0.39410  -0.38526  -0.36880  -0.36011  -0.34794
  Beta  occ. eigenvalues --   -0.34303  -0.33753  -0.32783  -0.31715  -0.31457
  Beta  occ. eigenvalues --   -0.31226  -0.30207  -0.27715  -0.27341  -0.27153
  Beta  occ. eigenvalues --   -0.26876  -0.25647  -0.24597  -0.24196  -0.23844
  Beta  occ. eigenvalues --   -0.22909  -0.21809  -0.19610  -0.14164  -0.12925
  Beta  occ. eigenvalues --   -0.11489
  Beta virt. eigenvalues --    0.05743   0.06197   0.06621   0.06879   0.07096
  Beta virt. eigenvalues --    0.07991   0.08556   0.08775   0.08982   0.09972
  Beta virt. eigenvalues --    0.10130   0.10184   0.10721   0.11685   0.11849

 Mulliken charges and spin densities:
               1          2
     1  C    0.251620  -0.786087
     2  C   -0.472111   0.167177
     3  S   -0.193711   0.039244
     4  C   -0.027897  -0.292629
     5  C    0.230368  -0.742563
     6  C   -0.021493   0.508263
     7  C   -0.312720  -0.476069
     8  N    0.115447   0.013843
     9  C    0.687409  -0.796963
    10  C   -0.808030  -0.110586
    11  C   -1.146358  -0.357325
    12  C    3.433638  -0.632574
    13  C   -0.408041   0.600376
    14  C   -0.131493   0.303639
    15  C   -0.774226  -0.538139
    16  N   -0.258636   0.010562
    17  N   -0.284375   0.033303
    18  H   -0.047616   0.192135
    19  H    0.119767   0.035759
    20  H    0.141627   0.070101
    21  H    0.129372   0.063269
    22  H    0.055692   0.120081
    23  H    0.003878   0.223799
    24  H   -0.197065   0.347906
    25  H   -0.041688   0.208070
    26  H   -0.781731   1.036371
    27  H    0.070431   0.117966
    28  H    0.249643  -0.173327
    29  H   -0.012634   0.278214
    30  H   -0.888964   1.046475
    31  H    0.118550   0.054908
    32  H    0.021601   0.091878
    33  H   -0.061926   0.302778
    34  H    0.241670   0.040144
 Sum of Mulliken charges =  -1.00000   1.00000

 Dipole moment (field-independent basis, Debye):
    X=             -3.7279    Y=             -4.0286    Z=             -1.9754  Tot=              5.8335
 Quadrupole moment (field-independent basis, Debye-Ang):
   XX=           -228.8522   YY=           -154.9427   ZZ=           -142.2253
   XY=              9.7754   XZ=              7.5846   YZ=             -8.4947

 Summary of Natural Population Analysis:

                                       Natural Population
                Natural  -----------------------------------------------
    Atom  No    Charge         Core      Valence    Rydberg      Total
 -----------------------------------------------------------------------
      C    1   -0.19803      0.99960     2.18697    0.01147     3.19803
      C    2   -0.24823      0.99958     2.24016    0.00849     3.24823
      S    3    0.07913      4.99964     2.90377    0.01746     7.92087
      C    4   -0.25089      0.99959     2.24042    0.01089     3.25089
      C    5   -0.19445      0.99960     2.18362    0.01123     3.19445
      C    6   -0.11456      0.99958     2.10082    0.01415     3.11456
      C    7   -0.08700      0.99959     2.07504    0.01237     3.08700
      N    8   -0.30447      0.99966     2.79408    0.01073     3.80447
      C    9    0.12529      0.99951     1.86401    0.01119     2.87471
      C   10   -0.14585      0.99949     2.13648    0.00988     3.14585
      C   11    0.11649      0.99949     1.87258    0.01144     2.88351
      C   12   -0.14276      0.99939     2.13490    0.00847     3.14276
      C   13   -0.04258      0.99955     2.03485    0.00817     3.04258
      C   14   -0.15477      0.99953     2.14754    0.00771     3.15477
      C   15    0.15205      0.99963     1.82932    0.01900     2.84795
      N   16   -0.19961      0.99979     2.68923    0.01059     3.69961
      N   17   -0.39186      0.99970     2.88343    0.00873     3.89186
      H   18    0.10181      0.00000     0.39671    0.00149     0.39819
      H   19    0.10826      0.00000     0.39040    0.00135     0.39174
      H   20    0.10694      0.00000     0.39217    0.00089     0.39306
      H   21    0.09906      0.00000     0.39951    0.00143     0.40094
      H   22    0.09681      0.00000     0.40178    0.00141     0.40319
      H   23    0.10767      0.00000     0.39134    0.00099     0.39233
      H   24    0.10296      0.00000     0.39564    0.00140     0.39704
      H   25    0.10320      0.00000     0.39525    0.00155     0.39680
      H   26    0.10677      0.00000     0.38882    0.00441     0.39323
      H   27    0.09122      0.00000     0.40738    0.00140     0.40878
      H   28    0.09159      0.00000     0.40647    0.00194     0.40841
      H   29    0.19275      0.00000     0.30090    0.00635     0.30725
      H   30    0.10482      0.00000     0.39272    0.00246     0.39518
      H   31    0.10103      0.00000     0.39818    0.00078     0.39897
      H   32    0.10247      0.00000     0.39623    0.00129     0.39753
      H   33    0.19217      0.00000     0.30582    0.00201     0.30783
      H   34    0.19257      0.00000     0.30587    0.00156     0.30743
 =======================================================================
   * Total *   -0.00000     20.99292    44.78240    0.22468    66.00000

 Normal termination of Gaussian 16 at Mon Dec 14 19:41:42 2020.
