 Gaussian 16, Revision A.03,

 -----------------------------------------------------------
 # opt freq B3LYP/6-31G(d) empiricaldispersion=gd3bj scf=xqc
 -----------------------------------------------------------

 ------------------------------
 CID_64233109_JID_7775_neutraal
 ------------------------------
 Symbolic Z-matrix:
 Charge =  0 Multiplicity = 1

 SCF Done:  E(RB3LYP) =  -730.308972940     A.U. after   15 cycles
 SCF Done:  E(RB3LYP) =  -730.312525548     A.U. after   12 cycles
 SCF Done:  E(RB3LYP) =  -730.312547533     A.U. after   12 cycles
 SCF Done:  E(RB3LYP) =  -730.313487591     A.U. after   12 cycles
 SCF Done:  E(RB3LYP) =  -730.313675903     A.U. after   12 cycles
 SCF Done:  E(RB3LYP) =  -730.313841374     A.U. after   11 cycles
 SCF Done:  E(RB3LYP) =  -730.313885433     A.U. after   10 cycles
 SCF Done:  E(RB3LYP) =  -730.313907677     A.U. after   10 cycles
 SCF Done:  E(RB3LYP) =  -730.313912051     A.U. after    9 cycles
 SCF Done:  E(RB3LYP) =  -730.313916827     A.U. after   10 cycles
 SCF Done:  E(RB3LYP) =  -730.313917540     A.U. after    8 cycles
 SCF Done:  E(RB3LYP) =  -730.313917800     A.U. after    8 cycles
 SCF Done:  E(RB3LYP) =  -730.313917878     A.U. after    7 cycles
 SCF Done:  E(RB3LYP) =  -730.313917910     A.U. after    6 cycles
 Optimization completed.
    -- Stationary point found.
 Normal termination of Gaussian 16 at Sun Dec 13 16:06:45 2020.

 --------------------------------------------------------------------
 #N Geom=AllCheck Guess=TCheck SCRF=Check GenChk RB3LYP/6-31G(d) Freq
 --------------------------------------------------------------------

 Structure from the checkpoint file:  "JID_7775.chk"
 ------------------------------
 CID_64233109_JID_7775_neutraal
 ------------------------------
 Charge =  0 Multiplicity = 1

 SCF Done:  E(RB3LYP) =  -730.313917910     A.U. after    1 cycles

  Exact polarizability: 220.092  -8.796 157.214  10.430  10.388 110.849
 Approx polarizability: 271.419 -15.593 262.690  25.912  28.978 173.770

                      1                      2                      3
                      A                      A                      A
 Frequencies --     24.8041                35.9543                43.1538
 Red. masses --      3.9743                 2.8866                 4.0998
 Frc consts  --      0.0014                 0.0022                 0.0045
 IR Inten    --      0.5866                 0.2521                 0.3047

                      4                      5                      6
                      A                      A                      A
 Frequencies --     60.3508                85.2866               103.4177
 Red. masses --      4.2737                 4.6855                 4.4659
 Frc consts  --      0.0092                 0.0201                 0.0281
 IR Inten    --      0.4699                 1.0824                 2.6389

                      7                      8                      9
                      A                      A                      A
 Frequencies --    120.5883               150.5937               195.3059
 Red. masses --      3.1304                 2.9188                 3.1649
 Frc consts  --      0.0268                 0.0390                 0.0711
 IR Inten    --      4.7001                 0.0931                 4.8707

                     10                     11                     12
                      A                      A                      A
 Frequencies --    206.3844               211.8840               247.9179
 Red. masses --      1.5022                 1.8417                 1.6474
 Frc consts  --      0.0377                 0.0487                 0.0597
 IR Inten    --      0.1422                 0.1048                 6.4175

                     13                     14                     15
                      A                      A                      A
 Frequencies --    259.7936               291.2505               300.1954
 Red. masses --      1.5861                 2.0945                 1.8281
 Frc consts  --      0.0631                 0.1047                 0.0971
 IR Inten    --      0.4891                51.0767                40.8220

                     16                     17                     18
                      A                      A                      A
 Frequencies --    327.2571               358.0445               367.1981
 Red. masses --      3.6448                 2.7613                 2.3681
 Frc consts  --      0.2300                 0.2086                 0.1881
 IR Inten    --     18.2814                 0.2964                 0.4588

                     19                     20                     21
                      A                      A                      A
 Frequencies --    391.6112               421.2466               428.2569
 Red. masses --      2.7469                 3.0041                 2.7402
 Frc consts  --      0.2482                 0.3141                 0.2961
 IR Inten    --     10.1679                 0.0777                 3.3642

                     22                     23                     24
                      A                      A                      A
 Frequencies --    441.6125               483.5904               532.6185
 Red. masses --      2.6310                 2.6520                 3.1168
 Frc consts  --      0.3023                 0.3654                 0.5209
 IR Inten    --      0.8015                 8.1314                11.3609

                     25                     26                     27
                      A                      A                      A
 Frequencies --    560.5582               604.7856               645.9425
 Red. masses --      2.1727                 3.1858                 1.9027
 Frc consts  --      0.4023                 0.6865                 0.4677
 IR Inten    --     29.9457                10.2650                40.2763

                     28                     29                     30
                      A                      A                      A
 Frequencies --    655.6016               693.0019               710.0986
 Red. masses --      6.1872                 3.1661                 3.7011
 Frc consts  --      1.5668                 0.8959                 1.0996
 IR Inten    --      1.2140                 6.7551                 7.0877

                     31                     32                     33
                      A                      A                      A
 Frequencies --    741.5311               783.0212               815.5272
 Red. masses --      2.9418                 3.7684                 3.7988
 Frc consts  --      0.9531                 1.3613                 1.4886
 IR Inten    --     36.1057                30.4890                 4.0599

                     34                     35                     36
                      A                      A                      A
 Frequencies --    853.7341               864.3511               875.3121
 Red. masses --      1.6378                 1.3216                 1.7022
 Frc consts  --      0.7033                 0.5817                 0.7684
 IR Inten    --     14.8555                 7.2779                71.4574

                     37                     38                     39
                      A                      A                      A
 Frequencies --    883.9760               907.1015               910.7440
 Red. masses --      2.4381                 1.9099                 1.6139
 Frc consts  --      1.1225                 0.9259                 0.7887
 IR Inten    --     10.8669                11.5244                29.7566

                     40                     41                     42
                      A                      A                      A
 Frequencies --    928.1228               937.6391               970.4102
 Red. masses --      2.0532                 1.3752                 1.3213
 Frc consts  --      1.0421                 0.7124                 0.7331
 IR Inten    --      1.5157                 2.7723                 3.1917

                     43                     44                     45
                      A                      A                      A
 Frequencies --    983.4878               986.7945               996.0890
 Red. masses --      1.3346                 1.3272                 1.9039
 Frc consts  --      0.7606                 0.7614                 1.1130
 IR Inten    --      1.8951                 1.4621                 2.3775

                     46                     47                     48
                      A                      A                      A
 Frequencies --   1036.2671              1045.5231              1059.0686
 Red. masses --      1.7756                 2.5086                 1.3533
 Frc consts  --      1.1234                 1.6156                 0.8943
 IR Inten    --     24.7745                 0.4602                 4.6441

                     49                     50                     51
                      A                      A                      A
 Frequencies --   1061.6964              1079.2198              1117.0495
 Red. masses --      1.8834                 1.3713                 1.9809
 Frc consts  --      1.2508                 0.9410                 1.4563
 IR Inten    --      5.1614                 6.3644                 8.8205

                     52                     53                     54
                      A                      A                      A
 Frequencies --   1127.3174              1149.4557              1152.6223
 Red. masses --      1.8507                 1.5808                 2.1993
 Frc consts  --      1.3858                 1.2306                 1.7215
 IR Inten    --      5.4042                10.5475                 1.4120

                     55                     56                     57
                      A                      A                      A
 Frequencies --   1172.5478              1176.9398              1219.9512
 Red. masses --      1.9118                 1.3254                 1.1493
 Frc consts  --      1.5487                 1.0817                 1.0078
 IR Inten    --      8.8874                 6.6604                14.3948

                     58                     59                     60
                      A                      A                      A
 Frequencies --   1226.1097              1231.8201              1241.4204
 Red. masses --      1.2927                 2.8740                 2.3266
 Frc consts  --      1.1450                 2.5694                 2.1126
 IR Inten    --      4.3049                14.1569                 1.1346

                     61                     62                     63
                      A                      A                      A
 Frequencies --   1307.4261              1347.8433              1352.2800
 Red. masses --      2.2244                 1.6244                 1.6946
 Frc consts  --      2.2402                 1.7387                 1.8258
 IR Inten    --      2.5962                32.1829                68.4740

                     64                     65                     66
                      A                      A                      A
 Frequencies --   1354.1161              1371.9410              1375.9973
 Red. masses --      1.7726                 1.9801                 1.4898
 Frc consts  --      1.9150                 2.1959                 1.6620
 IR Inten    --      9.5376                 1.6659                10.5913

                     67                     68                     69
                      A                      A                      A
 Frequencies --   1392.5051              1413.5823              1438.3592
 Red. masses --      4.2424                 1.4826                 1.3963
 Frc consts  --      4.8468                 1.7455                 1.7021
 IR Inten    --    396.3247                10.0699                14.8863

                     70                     71                     72
                      A                      A                      A
 Frequencies --   1441.2089              1451.5065              1461.4706
 Red. masses --      1.3607                 1.2399                 2.5812
 Frc consts  --      1.6652                 1.5392                 3.2483
 IR Inten    --      3.0827                 1.3590                15.1373

                     73                     74                     75
                      A                      A                      A
 Frequencies --   1478.0114              1511.8126              1513.5990
 Red. masses --      1.4814                 1.1127                 1.3468
 Frc consts  --      1.9066                 1.4985                 1.8179
 IR Inten    --     42.4550                 4.9180                11.9580

                     76                     77                     78
                      A                      A                      A
 Frequencies --   1516.2870              1523.2757              1536.5968
 Red. masses --      1.0469                 1.0522                 1.0483
 Frc consts  --      1.4181                 1.4385                 1.4584
 IR Inten    --      0.1078                 5.0807                 8.4601

                     79                     80                     81
                      A                      A                      A
 Frequencies --   1538.4728              1543.5839              1561.9630
 Red. masses --      1.0950                 1.1767                 2.4780
 Frc consts  --      1.5270                 1.6519                 3.5619
 IR Inten    --      1.4856                 5.9654                 2.0710

                     82                     83                     84
                      A                      A                      A
 Frequencies --   1624.5248              1672.9418              1696.3002
 Red. masses --      6.3602                 5.7020                 1.0901
 Frc consts  --      9.8896                 9.4024                 1.8482
 IR Inten    --      4.0946                33.1850                33.2967

                     85                     86                     87
                      A                      A                      A
 Frequencies --   1761.8025              2954.4086              3037.3367
 Red. masses --      8.1828                 1.0731                 1.0371
 Frc consts  --     14.9646                 5.5188                 5.6373
 IR Inten    --    329.0648                70.3038                23.2197

                     88                     89                     90
                      A                      A                      A
 Frequencies --   3041.8073              3053.8863              3074.9352
 Red. masses --      1.0376                 1.0627                 1.0872
 Frc consts  --      5.6562                 5.8392                 6.0569
 IR Inten    --     48.6688                16.1649                74.9108

                     91                     92                     93
                      A                      A                      A
 Frequencies --   3097.2357              3101.1746              3104.8249
 Red. masses --      1.1003                 1.1014                 1.1034
 Frc consts  --      6.2186                 6.2406                 6.2671
 IR Inten    --      4.0254                48.3416                21.5456

                     94                     95                     96
                      A                      A                      A
 Frequencies --   3115.6199              3127.4680              3139.5509
 Red. masses --      1.1017                 1.0999                 1.0549
 Frc consts  --      6.3008                 6.3386                 6.1263
 IR Inten    --     25.7709                25.1670                12.1870

                     97                     98                     99
                      A                      A                      A
 Frequencies --   3150.2958              3178.1244              3196.2068
 Red. masses --      1.0887                 1.0895                 1.0892
 Frc consts  --      6.3657                 6.4833                 6.5559
 IR Inten    --     13.2282                15.6233                 8.1275

                    100                    101                    102
                      A                      A                      A
 Frequencies --   3224.9343              3225.2491              3240.6067
 Red. masses --      1.1177                 1.0929                 1.0910
 Frc consts  --      6.8486                 6.6984                 6.7504
 IR Inten    --      9.3408                 3.6890                 3.9080

                    103                    104                    105
                      A                      A                      A
 Frequencies --   3470.1806              3554.2448              3570.1049
 Red. masses --      1.0499                 1.0921                 1.0750
 Frc consts  --      7.4493                 8.1287                 8.0725
 IR Inten    --      2.2079                 0.0602                27.1589

 - Thermochemistry -
 -------------------
 Temperature   298.150 Kelvin.  Pressure   1.00000 Atm.
 Atom     1 has atomic number  6 and mass  12.00000

 Molecular mass:   232.15756 amu.
 Principal axes and moments of inertia in atomic units:
                           1         2         3
     Eigenvalues --  1719.413109073.42285**********
           X            0.99999   0.00340  -0.00280
           Y           -0.00339   0.99999   0.00087
           Z            0.00280  -0.00087   1.00000
 This molecule is an asymmetric top.
 Rotational symmetry number  1.
 Warning -- assumption of classical behavior for rotation
           may cause significant error
 Rotational temperatures (Kelvin)      0.05037     0.00955     0.00859
 Rotational constants (GHZ):           1.04963     0.19890     0.17892
 Zero-point vibrational energy     845393.5 (Joules/Mol)
                                  202.05390 (Kcal/Mol)
 Warning -- explicit consideration of  26 degrees of freedom as
           vibrations may cause significant error
 Vibrational temperatures:     35.69    51.73    62.09    86.83   122.71
          (Kelvin)            148.79   173.50   216.67   281.00   296.94
                              304.85   356.70   373.79   419.04   431.91
                              470.85   515.15   528.32   563.44   606.08
                              616.17   635.38   695.78   766.32   806.52
                              870.15   929.37   943.26   997.08  1021.67
                             1066.90  1126.59  1173.36  1228.33  1243.61
                             1259.38  1271.84  1305.12  1310.36  1335.36
                             1349.05  1396.20  1415.02  1419.78  1433.15
                             1490.96  1504.27  1523.76  1527.54  1552.76
                             1607.19  1621.96  1653.81  1658.37  1687.03
                             1693.35  1755.24  1764.10  1772.31  1786.13
                             1881.09  1939.25  1945.63  1948.27  1973.92
                             1979.75  2003.50  2033.83  2069.48  2073.58
                             2088.39  2102.73  2126.53  2175.16  2177.73
                             2181.60  2191.65  2210.82  2213.52  2220.87
                             2247.32  2337.33  2406.99  2440.60  2534.84
                             4250.74  4370.05  4376.48  4393.86  4424.15
                             4456.23  4461.90  4467.15  4482.68  4499.73
                             4517.11  4532.57  4572.61  4598.63  4639.96
                             4640.41  4662.51  4992.82  5113.77  5136.58

 Zero-point correction=                           0.321993 (Hartree/Particle)
 Thermal correction to Energy=                    0.339387
 Thermal correction to Enthalpy=                  0.340332
 Thermal correction to Gibbs Free Energy=         0.275518
 Sum of electronic and zero-point Energies=           -729.991925
 Sum of electronic and thermal Energies=              -729.974531
 Sum of electronic and thermal Enthalpies=            -729.973586
 Sum of electronic and thermal Free Energies=         -730.038400

                     E (Thermal)             CV                S
                      KCal/Mol        Cal/Mol-Kelvin    Cal/Mol-Kelvin
 Total                  212.969             66.109            136.412
 Electronic               0.000              0.000              0.000
 Translational            0.889              2.981             42.229
 Rotational               0.889              2.981             33.420
 Vibrational            211.191             60.147             60.763
 Vibration     1          0.593              1.985              6.207
 Vibration     2          0.594              1.982              5.470
 Vibration     3          0.595              1.980              5.109
 Vibration     4          0.597              1.973              4.446
 Vibration     5          0.601              1.959              3.765
 Vibration     6          0.605              1.946              3.389
 Vibration     7          0.609              1.932              3.091
 Vibration     8          0.618              1.902              2.665
 Vibration     9          0.636              1.846              2.177
 Vibration    10          0.641              1.831              2.075
 Vibration    11          0.643              1.823              2.027
 Vibration    12          0.662              1.766              1.745
 Vibration    13          0.668              1.746              1.663
 Vibration    14          0.687              1.690              1.467
 Vibration    15          0.693              1.673              1.416
 Vibration    16          0.711              1.621              1.274
 Vibration    17          0.733              1.559              1.131
 Vibration    18          0.740              1.540              1.091
 Vibration    19          0.759              1.488              0.994
 Vibration    20          0.784              1.424              0.888
 Vibration    21          0.790              1.409              0.864
 Vibration    22          0.801              1.379              0.822
 Vibration    23          0.840              1.286              0.700
 Vibration    24          0.888              1.178              0.581
 Vibration    25          0.916              1.117              0.523
 Vibration    26          0.963              1.022              0.441

 Optimization completed.
    -- Stationary point found.
 Normal termination of Gaussian 16 at Sun Dec 13 16:19:12 2020.

 ----------------------------------------------------------------------
 # B3LYP/6-311++G(d,p) empiricaldispersion=gd3bj scf=xqc pop=npa geom=c
 heck
 ----------------------------------------------------------------------

 --------------------------------------
 CID_64233109_JID_7775_Energie_neutraal
 --------------------------------------
 Structure from the checkpoint file:  "JID_7775.chk"
 Charge =  0 Multiplicity = 1

 SCF Done:  E(RB3LYP) =  -730.523099028     A.U. after   15 cycles
 Normal termination of Gaussian 16 at Sun Dec 13 16:26:09 2020.

 ----------------------------------------------------------------------
 # B3LYP/6-311++G(d,p) empiricaldispersion=gd3bj scf=xqc pop=npa geom=c
 heck
 ----------------------------------------------------------------------

 ------------------------------------
 CID_64233109_JID_7775_Energie_kation
 ------------------------------------
 Structure from the checkpoint file:  "JID_7775.chk"
 Charge =  1 Multiplicity = 2

 SCF Done:  E(UB3LYP) =  -730.221526731     A.U. after   32 cycles
 Normal termination of Gaussian 16 at Sun Dec 13 16:47:15 2020.
 Gaussian 16:  ES64L-G16RevA.03 25-Dec-2016

 ----------------------------------------------------------------------
 # B3LYP/6-311++G(d,p) empiricaldispersion=gd3bj scf=xqc pop=npa geom=c
 heck
 ----------------------------------------------------------------------

 -----------------------------------
 CID_64233109_JID_7775_Energie_anion
 -----------------------------------
 Structure from the checkpoint file:  "JID_7775.chk"
 Charge = -1 Multiplicity = 2

                         Standard orientation:
 ---------------------------------------------------------------------
 Center     Atomic      Atomic             Coordinates (Angstroms)
 Number     Number       Type             X           Y           Z
 ---------------------------------------------------------------------
      1          6           0       -4.913864    0.119762   -0.769060
      2          6           0       -3.942186   -0.752527    0.004595
      3          6           0       -2.802318   -1.394881   -0.752575
      4          6           0       -2.526662   -0.265217    0.220203
      5          7           0       -2.165378    1.045201   -0.253189
      6          6           0       -0.943540    1.668130   -0.101100
      7          8           0       -0.872538    2.894038   -0.118993
      8          6           0        0.281217    0.825658    0.078460
      9          6           0        1.334534    1.381773    0.816037
     10          6           0        2.518486    0.675873    1.001646
     11          6           0        2.696634   -0.593354    0.431226
     12          6           0        1.650177   -1.130645   -0.328680
     13          6           0        0.454150   -0.437911   -0.500181
     14          6           0        4.007685   -1.329186    0.570749
     15          6           0        4.985519   -0.995689   -0.570248
     16          7           0        5.350409    0.421653   -0.535202
     17          6           0       -4.579114   -1.535080    1.137962
     18          1           0       -4.434110    0.622931   -1.613835
     19          1           0       -5.731458   -0.491141   -1.169249
     20          1           0       -5.362877    0.885049   -0.122050
     21          1           0       -2.485532   -2.397333   -0.475383
     22          1           0       -2.708813   -1.160919   -1.809728
     23          1           0       -2.059519   -0.543559    1.162841
     24          1           0       -2.909106    1.734180   -0.274828
     25          1           0        1.204612    2.374045    1.234634
     26          1           0        3.325439    1.111437    1.584298
     27          1           0        1.775207   -2.106382   -0.792664
     28          1           0       -0.336204   -0.873593   -1.098827
     29          1           0        4.487678   -1.065973    1.519408
     30          1           0        3.829813   -2.411419    0.573366
     31          1           0        5.900625   -1.583022   -0.428689
     32          1           0        4.535423   -1.323892   -1.524967
     33          1           0        6.041085    0.617500   -1.257300
     34          1           0        4.532545    0.985770   -0.761996
     35          1           0       -5.351068   -2.213561    0.754222
     36          1           0       -3.839620   -2.138991    1.674565
     37          1           0       -5.053339   -0.861655    1.862659
 ---------------------------------------------------------------------

 SCF Done:  E(UB3LYP) =  -730.518821027     A.U. after   33 cycles
 SCF Done:  E(UB3LYP) =  -730.518821027     a.u. after    1 cycles

 The electronic state is 2-A.
 Alpha  occ. eigenvalues --  -18.95874 -14.21995 -14.19774 -10.14075 -10.11417
 Alpha  occ. eigenvalues --  -10.10079 -10.09451 -10.07713 -10.07680 -10.07643
 Alpha  occ. eigenvalues --  -10.06544 -10.05675 -10.05647 -10.05593 -10.05355
 Alpha  occ. eigenvalues --  -10.05230 -10.05167  -0.91340  -0.82431  -0.78932
 Alpha  occ. eigenvalues --   -0.75548  -0.74083  -0.66949  -0.64000  -0.63014
 Alpha  occ. eigenvalues --   -0.61067  -0.60670  -0.53497  -0.51862  -0.49395
 Alpha  occ. eigenvalues --   -0.48317  -0.46410  -0.45094  -0.41574  -0.39916
 Alpha  occ. eigenvalues --   -0.38798  -0.37964  -0.37587  -0.35206  -0.34823
 Alpha  occ. eigenvalues --   -0.33686  -0.32251  -0.32044  -0.31684  -0.30645
 Alpha  occ. eigenvalues --   -0.30287  -0.30071  -0.29102  -0.28680  -0.28054
 Alpha  occ. eigenvalues --   -0.27250  -0.26305  -0.26053  -0.24182  -0.22927
 Alpha  occ. eigenvalues --   -0.22455  -0.20976  -0.19218  -0.15220  -0.14440
 Alpha  occ. eigenvalues --   -0.14338  -0.13398  -0.12761   0.04083
 Alpha virt. eigenvalues --    0.05448   0.06462   0.07590   0.08119   0.08397
 Alpha virt. eigenvalues --    0.08550   0.09190   0.09846   0.09992   0.10317
 Alpha virt. eigenvalues --    0.10856   0.11042   0.11151   0.12065   0.12235

  Beta  occ. eigenvalues --  -18.95699 -14.21988 -14.19768 -10.13935 -10.11407
  Beta  occ. eigenvalues --  -10.10076 -10.09406 -10.07686 -10.07654 -10.07636
  Beta  occ. eigenvalues --  -10.06560 -10.05652 -10.05556 -10.05425 -10.05365
  Beta  occ. eigenvalues --  -10.05118 -10.05065  -0.91037  -0.82352  -0.78896
  Beta  occ. eigenvalues --   -0.75483  -0.73859  -0.66681  -0.63964  -0.62834
  Beta  occ. eigenvalues --   -0.60921  -0.60568  -0.53221  -0.51770  -0.49322
  Beta  occ. eigenvalues --   -0.48163  -0.46364  -0.44920  -0.41516  -0.39856
  Beta  occ. eigenvalues --   -0.38724  -0.37898  -0.37528  -0.35053  -0.34778
  Beta  occ. eigenvalues --   -0.33543  -0.32162  -0.31998  -0.31541  -0.30581
  Beta  occ. eigenvalues --   -0.30217  -0.29954  -0.28887  -0.28371  -0.27719
  Beta  occ. eigenvalues --   -0.27113  -0.26259  -0.25991  -0.23831  -0.22721
  Beta  occ. eigenvalues --   -0.22359  -0.20719  -0.19183  -0.15117  -0.14104
  Beta  occ. eigenvalues --   -0.13890  -0.13014  -0.11964
  Beta virt. eigenvalues --    0.06102   0.06427   0.07772   0.08025   0.08190
  Beta virt. eigenvalues --    0.08752   0.09082   0.09190   0.09963   0.10234
  Beta virt. eigenvalues --    0.10347   0.10856   0.11114   0.11311   0.12045

 Mulliken charges and spin densities:
               1          2
     1  C   -0.164365  -0.530723
     2  C   -0.647643   1.643994
     3  C   -0.268447  -0.512671
     4  C    0.409483  -1.046129
     5  N   -0.101464   0.029557
     6  C   -0.415603   0.096054
     7  O   -0.374141   0.062304
     8  C    0.708720  -0.005012
     9  C   -0.179842  -0.024507
    10  C   -0.423565  -0.058133
    11  C    0.862205   0.178587
    12  C   -0.432352  -0.075385
    13  C   -0.332401   0.164009
    14  C   -0.777033   0.284644
    15  C    0.371973  -0.861517
    16  N   -0.467202   0.041385
    17  C    0.205016  -0.742413
    18  H   -0.059321   0.205750
    19  H   -0.253552   0.407415
    20  H    0.068053   0.070898
    21  H    0.075621   0.066058
    22  H    0.092622   0.108959
    23  H    0.241701  -0.033216
    24  H    0.323327  -0.008201
    25  H    0.198310  -0.003681
    26  H    0.152769   0.012635
    27  H    0.133619   0.005830
    28  H    0.163824  -0.023650
    29  H    0.072271   0.076368
    30  H    0.002439   0.140896
    31  H   -0.394317   0.544554
    32  H    0.103365   0.012902
    33  H    0.155582   0.071064
    34  H    0.234938  -0.004531
    35  H   -0.273708   0.422957
    36  H   -0.060805   0.194710
    37  H    0.049925   0.088240
 Sum of Mulliken charges =  -1.00000   1.00000

 Dipole moment (field-independent basis, Debye):
    X=             -0.1336    Y=             -1.2476    Z=             -0.1308  Tot=              1.2615
 Quadrupole moment (field-independent basis, Debye-Ang):
   XX=           -212.8313   YY=           -142.8110   ZZ=           -120.8836
   XY=             -0.5218   XZ=             -6.5520   YZ=              1.6012

 Summary of Natural Population Analysis:

                                       Natural Population
                Natural  -----------------------------------------------
    Atom  No    Charge         Core      Valence    Rydberg      Total
 -----------------------------------------------------------------------
      C    1   -0.28772      0.99962     2.28183    0.00627     3.28772
      C    2   -0.04549      0.99956     2.03579    0.01014     3.04549
      C    3   -0.20254      0.99957     2.19383    0.00914     3.20254
      C    4   -0.00994      0.99951     1.99914    0.01129     3.00994
      N    5   -0.32570      0.99966     2.81696    0.00908     3.82570
      C    6    0.35922      0.99963     1.61980    0.02135     2.64078
      O    7   -0.31255      0.99988     3.30740    0.00527     4.31255
      C    8   -0.05590      0.99946     2.04517    0.01127     3.05590
      C    9   -0.06238      0.99954     2.05469    0.00815     3.06238
      C   10   -0.11825      0.99952     2.11081    0.00791     3.11825
      C   11    0.02182      0.99950     1.96817    0.01050     2.97818
      C   12   -0.11469      0.99952     2.10593    0.00924     3.11469
      C   13   -0.07677      0.99954     2.06882    0.00841     3.07677
      C   14   -0.20325      0.99960     2.19245    0.01120     3.20325
      C   15   -0.08161      0.99964     2.07095    0.01102     3.08161
      N   16   -0.42712      0.99977     2.91632    0.01103     3.92712
      C   17   -0.27873      0.99962     2.27310    0.00600     3.27873
      H   18    0.10476      0.00000     0.39407    0.00117     0.39524
      H   19    0.10436      0.00000     0.39435    0.00128     0.39564
      H   20    0.09769      0.00000     0.40138    0.00093     0.40231
      H   21    0.10268      0.00000     0.39648    0.00084     0.39732
      H   22    0.10549      0.00000     0.39340    0.00111     0.39451
      H   23    0.10186      0.00000     0.39714    0.00100     0.39814
      H   24    0.19032      0.00000     0.30654    0.00314     0.30968
      H   25    0.10554      0.00000     0.39349    0.00097     0.39446
      H   26    0.09923      0.00000     0.39979    0.00098     0.40077
      H   27    0.09331      0.00000     0.40558    0.00111     0.40669
      H   28    0.10020      0.00000     0.39838    0.00142     0.39980
      H   29    0.10201      0.00000     0.39687    0.00112     0.39799
      H   30    0.10068      0.00000     0.39841    0.00091     0.39932
      H   31    0.08900      0.00000     0.40858    0.00242     0.41100
      H   32    0.07591      0.00000     0.42273    0.00136     0.42409
      H   33    0.17118      0.00000     0.32753    0.00129     0.32882
      H   34    0.17824      0.00000     0.32001    0.00175     0.32176
      H   35    0.10074      0.00000     0.39794    0.00131     0.39926
      H   36    0.09981      0.00000     0.39936    0.00084     0.40019
      H   37    0.09859      0.00000     0.40060    0.00080     0.40141
 =======================================================================
   * Total *    0.00000     16.99316    45.81380    0.19305    63.00000

 Normal termination of Gaussian 16 at Sun Dec 13 17:09:05 2020.
