 Gaussian 16, Revision A.03,

 -----------------------------------------------------------
 # opt freq B3LYP/6-31G(d) empiricaldispersion=gd3bj scf=xqc
 -----------------------------------------------------------

 -------------------------------
 CID_130579504_JID_3028_neutraal
 -------------------------------
 Symbolic Z-matrix:
 Charge =  0 Multiplicity = 1

 SCF Done:  E(RB3LYP) =  -596.482600986     A.U. after   14 cycles
 SCF Done:  E(RB3LYP) =  -596.486864597     A.U. after   11 cycles
 SCF Done:  E(RB3LYP) =  -596.487260420     A.U. after   11 cycles
 SCF Done:  E(RB3LYP) =  -596.488099251     A.U. after   11 cycles
 SCF Done:  E(RB3LYP) =  -596.488360716     A.U. after   11 cycles
 SCF Done:  E(RB3LYP) =  -596.488465330     A.U. after   11 cycles
 SCF Done:  E(RB3LYP) =  -596.488596070     A.U. after   11 cycles
 SCF Done:  E(RB3LYP) =  -596.488655295     A.U. after   10 cycles
 SCF Done:  E(RB3LYP) =  -596.488696480     A.U. after   11 cycles
 SCF Done:  E(RB3LYP) =  -596.488718203     A.U. after   10 cycles
 SCF Done:  E(RB3LYP) =  -596.488783879     A.U. after    9 cycles
 SCF Done:  E(RB3LYP) =  -596.488784636     A.U. after    7 cycles
 SCF Done:  E(RB3LYP) =  -596.488785752     A.U. after    8 cycles
 SCF Done:  E(RB3LYP) =  -596.488786146     A.U. after    7 cycles
 SCF Done:  E(RB3LYP) =  -596.488786266     A.U. after    7 cycles
 SCF Done:  E(RB3LYP) =  -596.488786229     A.U. after    7 cycles
 Optimization completed.
    -- Stationary point found.
 Normal termination of Gaussian 16 at Wed Dec  9 22:29:07 2020.

 --------------------------------------------------------------------
 #N Geom=AllCheck Guess=TCheck SCRF=Check GenChk RB3LYP/6-31G(d) Freq
 --------------------------------------------------------------------

 Structure from the checkpoint file:  "JID_3028.chk"
 -------------------------------
 CID_130579504_JID_3028_neutraal
 -------------------------------
 Charge =  0 Multiplicity = 1

 SCF Done:  E(RB3LYP) =  -596.488786229     A.U. after    1 cycles

  Exact polarizability: 126.769  -3.844 104.511  -2.117   3.497 102.563
 Approx polarizability: 175.999  -3.269 140.287 -11.840   3.472 162.431

                      1                      2                      3
                      A                      A                      A
 Frequencies --     42.4883                60.7770                84.7291
 Red. masses --      4.1019                 3.1991                 2.6093
 Frc consts  --      0.0044                 0.0070                 0.0110
 IR Inten    --      1.2960                 0.6284                 0.4160

                      4                      5                      6
                      A                      A                      A
 Frequencies --     88.6568               104.3100               140.5332
 Red. masses --      2.3167                 2.0578                 2.9225
 Frc consts  --      0.0107                 0.0132                 0.0340
 IR Inten    --      2.7240                 1.9292                 0.8162

                      7                      8                      9
                      A                      A                      A
 Frequencies --    179.9804               183.0565               214.8651
 Red. masses --      4.2728                 2.8165                 1.5070
 Frc consts  --      0.0815                 0.0556                 0.0410
 IR Inten    --      3.9546                 2.4543                 0.7051

                     10                     11                     12
                      A                      A                      A
 Frequencies --    277.9541               300.5706               302.7650
 Red. masses --      1.9775                 2.9332                 2.7678
 Frc consts  --      0.0900                 0.1561                 0.1495
 IR Inten    --      5.6683                 0.7227                 4.6628

                     13                     14                     15
                      A                      A                      A
 Frequencies --    371.9735               421.5554               508.6880
 Red. masses --      3.9675                 3.0683                 2.9537
 Frc consts  --      0.3234                 0.3213                 0.4503
 IR Inten    --      0.3861                13.4192                 4.1723

                     16                     17                     18
                      A                      A                      A
 Frequencies --    545.8971               643.3906               704.5992
 Red. masses --      2.7266                 2.8523                 2.6511
 Frc consts  --      0.4787                 0.6956                 0.7755
 IR Inten    --      5.8150                19.7400                23.8015

                     19                     20                     21
                      A                      A                      A
 Frequencies --    714.5619               752.1683               815.8503
 Red. masses --      3.5825                 2.5799                 1.4674
 Frc consts  --      1.0777                 0.8600                 0.5755
 IR Inten    --     19.9145                34.4065                41.3257

                     22                     23                     24
                      A                      A                      A
 Frequencies --    833.5836               857.0378               860.5424
 Red. masses --      3.7099                 2.3780                 1.6631
 Frc consts  --      1.5188                 1.0291                 0.7256
 IR Inten    --      4.1634                29.8336                 4.1731

                     25                     26                     27
                      A                      A                      A
 Frequencies --    890.3980               905.2203               930.2577
 Red. masses --      1.4935                 3.6573                 3.8177
 Frc consts  --      0.6976                 1.7657                 1.9465
 IR Inten    --      9.2224                10.5853                 9.6086

                     28                     29                     30
                      A                      A                      A
 Frequencies --    943.1016               956.8744               987.2855
 Red. masses --      2.4856                 2.9776                 2.3094
 Frc consts  --      1.3026                 1.6063                 1.3263
 IR Inten    --     16.2164                29.4789                22.0777

                     31                     32                     33
                      A                      A                      A
 Frequencies --    999.2795              1007.4561              1019.0645
 Red. masses --      2.0869                 2.5813                 2.0116
 Frc consts  --      1.2278                 1.5436                 1.2308
 IR Inten    --      2.3214                 3.3436                14.2711

                     34                     35                     36
                      A                      A                      A
 Frequencies --   1090.1146              1097.5676              1107.7122
 Red. masses --      1.8193                 1.8395                 2.4869
 Frc consts  --      1.2738                 1.3056                 1.7979
 IR Inten    --     20.4707                 4.8388                48.4665

                     37                     38                     39
                      A                      A                      A
 Frequencies --   1138.4868              1144.4039              1148.7933
 Red. masses --      3.2008                 3.4293                 2.7067
 Frc consts  --      2.4443                 2.6462                 2.1046
 IR Inten    --     71.6180                64.1707                82.4867

                     40                     41                     42
                      A                      A                      A
 Frequencies --   1169.9394              1197.5967              1227.9562
 Red. masses --      1.4975                 1.9393                 1.2331
 Frc consts  --      1.2076                 1.6388                 1.0955
 IR Inten    --     34.2632                 4.2864                 2.2530

                     43                     44                     45
                      A                      A                      A
 Frequencies --   1231.2353              1237.3894              1249.2272
 Red. masses --      1.3204                 1.2622                 1.3259
 Frc consts  --      1.1794                 1.1386                 1.2191
 IR Inten    --      0.0366                 2.7211                 6.1020

                     46                     47                     48
                      A                      A                      A
 Frequencies --   1257.0998              1276.3369              1289.1042
 Red. masses --      1.1464                 1.2027                 1.3189
 Frc consts  --      1.0674                 1.1543                 1.2913
 IR Inten    --      3.8626                15.4908                 2.6586

                     49                     50                     51
                      A                      A                      A
 Frequencies --   1299.4563              1323.7138              1339.3332
 Red. masses --      1.4790                 1.4457                 1.5044
 Frc consts  --      1.4714                 1.4925                 1.5899
 IR Inten    --      7.2719                 1.9895                 6.9257

                     52                     53                     54
                      A                      A                      A
 Frequencies --   1351.1903              1362.7328              1384.5176
 Red. masses --      1.5830                 1.2764                 1.3322
 Frc consts  --      1.7028                 1.3966                 1.5045
 IR Inten    --      6.7078                 5.2531                 0.3736

                     55                     56                     57
                      A                      A                      A
 Frequencies --   1400.8264              1420.6432              1426.4029
 Red. masses --      1.4838                 1.3790                 1.4959
 Frc consts  --      1.7155                 1.6398                 1.7933
 IR Inten    --      4.4523                 4.6676                 0.2684

                     58                     59                     60
                      A                      A                      A
 Frequencies --   1480.6224              1512.9590              1519.8459
 Red. masses --      1.1553                 1.2252                 1.0908
 Frc consts  --      1.4922                 1.6524                 1.4846
 IR Inten    --      2.6528                18.5356                 8.5872

                     61                     62                     63
                      A                      A                      A
 Frequencies --   1521.6470              1522.2634              1542.7799
 Red. masses --      1.0788                 1.0809                 1.0898
 Frc consts  --      1.4717                 1.4758                 1.5284
 IR Inten    --      9.9055                 4.0339                 1.0085

                     64                     65                     66
                      A                      A                      A
 Frequencies --   1547.7989              1551.4153              1560.1522
 Red. masses --      1.0908                 1.0535                 1.0998
 Frc consts  --      1.5396                 1.4940                 1.5772
 IR Inten    --      0.3311                 9.8412                 2.5045

                     67                     68                     69
                      A                      A                      A
 Frequencies --   1732.8697              2968.3323              2991.7764
 Red. masses --      6.6686                 1.0590                 1.0726
 Frc consts  --     11.7983                 5.4977                 5.6562
 IR Inten    --     73.3708                80.6149                81.7399

                     70                     71                     72
                      A                      A                      A
 Frequencies --   3015.0438              3025.3405              3031.6468
 Red. masses --      1.0843                 1.0717                 1.0688
 Frc consts  --      5.8074                 5.7793                 5.7876
 IR Inten    --     24.7368                37.5750                74.8374

                     73                     74                     75
                      A                      A                      A
 Frequencies --   3053.6652              3068.0290              3071.3085
 Red. masses --      1.0678                 1.0691                 1.0732
 Frc consts  --      5.8664                 5.9293                 5.9648
 IR Inten    --     56.9760                57.6692                29.5818

                     76                     77                     78
                      A                      A                      A
 Frequencies --   3083.4545              3084.8549              3094.4726
 Red. masses --      1.0900                 1.0795                 1.0976
 Frc consts  --      6.1062                 6.0529                 6.1926
 IR Inten    --     50.7230                33.1085                17.1108

                     79                     80                     81
                      A                      A                      A
 Frequencies --   3115.4417              3119.4404              3121.7580
 Red. masses --      1.1027                 1.1049                 1.0915
 Frc consts  --      6.3058                 6.3348                 6.2670
 IR Inten    --     31.9449                46.3326                17.9930

                     82                     83                     84
                      A                      A                      A
 Frequencies --   3132.7866              3240.9029              3509.8568
 Red. masses --      1.1012                 1.0969                 1.0735
 Frc consts  --      6.3677                 6.7882                 7.7914
 IR Inten    --     28.6019                 8.6561                 0.6310

 - Thermochemistry -
 -------------------
 Temperature   298.150 Kelvin.  Pressure   1.00000 Atm.
 Atom     1 has atomic number  6 and mass  12.00000

 Molecular mass:   183.12593 amu.
 Principal axes and moments of inertia in atomic units:
                           1         2         3
     Eigenvalues --  1844.838252500.710773396.75044
           X            0.99808  -0.05989   0.01602
           Y            0.05942   0.99783   0.02836
           Z           -0.01768  -0.02736   0.99947
 This molecule is an asymmetric top.
 Rotational symmetry number  1.
 Warning -- assumption of classical behavior for rotation
           may cause significant error
 Rotational temperatures (Kelvin)      0.04695     0.03464     0.02550
 Rotational constants (GHZ):           0.97827     0.72169     0.53131
 Zero-point vibrational energy     700064.9 (Joules/Mol)
                                  167.31953 (Kcal/Mol)
 Warning -- explicit consideration of  16 degrees of freedom as
           vibrations may cause significant error
 Vibrational temperatures:     61.13    87.44   121.91   127.56   150.08
          (Kelvin)            202.20   258.95   263.38   309.14   399.91
                              432.45   435.61   535.19   606.52   731.89
                              785.42   925.70  1013.76  1028.10  1082.20
                             1173.83  1199.34  1233.09  1238.13  1281.08
                             1302.41  1338.43  1356.91  1376.73  1420.48
                             1437.74  1449.50  1466.21  1568.43  1579.15
                             1593.75  1638.03  1646.54  1652.86  1683.28
                             1723.07  1766.76  1771.47  1780.33  1797.36
                             1808.69  1836.36  1854.73  1869.63  1904.53
                             1927.00  1944.06  1960.67  1992.01  2015.48
                             2043.99  2052.28  2130.29  2176.81  2186.72
                             2189.31  2190.20  2219.72  2226.94  2232.14
                             2244.71  2493.21  4270.77  4304.50  4337.98
                             4352.79  4361.86  4393.54  4414.21  4418.93
                             4436.40  4438.42  4452.26  4482.43  4488.18
                             4491.51  4507.38  4662.94  5049.90

 Zero-point correction=                           0.266641 (Hartree/Particle)
 Thermal correction to Energy=                    0.279581
 Thermal correction to Enthalpy=                  0.280526
 Thermal correction to Gibbs Free Energy=         0.226419
 Sum of electronic and zero-point Energies=           -596.222146
 Sum of electronic and thermal Energies=              -596.209205
 Sum of electronic and thermal Enthalpies=            -596.208261
 Sum of electronic and thermal Free Energies=         -596.262368

                     E (Thermal)             CV                S
                      KCal/Mol        Cal/Mol-Kelvin    Cal/Mol-Kelvin
 Total                  175.440             48.035            113.877
 Electronic               0.000              0.000              0.000
 Translational            0.889              2.981             41.521
 Rotational               0.889              2.981             31.128
 Vibrational            173.662             42.073             41.228
 Vibration     1          0.595              1.980              5.140
 Vibration     2          0.597              1.973              4.432
 Vibration     3          0.601              1.960              3.778
 Vibration     4          0.601              1.957              3.689
 Vibration     5          0.605              1.946              3.372
 Vibration     6          0.615              1.913              2.797
 Vibration     7          0.629              1.867              2.329
 Vibration     8          0.631              1.863              2.297
 Vibration     9          0.645              1.818              2.002
 Vibration    10          0.679              1.714              1.546
 Vibration    11          0.693              1.673              1.414
 Vibration    12          0.694              1.668              1.402
 Vibration    13          0.744              1.530              1.072
 Vibration    14          0.784              1.423              0.887
 Vibration    15          0.864              1.231              0.637
 Vibration    16          0.901              1.149              0.553

 Optimization completed.
    -- Stationary point found.
 Normal termination of Gaussian 16 at Wed Dec  9 22:37:49 2020.

 ----------------------------------------------------------------------
 # B3LYP/6-311++G(d,p) empiricaldispersion=gd3bj scf=xqc pop=npa geom=c
 heck
 ----------------------------------------------------------------------

 ---------------------------------------
 CID_130579504_JID_3028_Energie_neutraal
 ---------------------------------------
 Structure from the checkpoint file:  "JID_3028.chk"
 Charge =  0 Multiplicity = 1

 SCF Done:  E(RB3LYP) =  -596.659902099     A.U. after   14 cycles
 Normal termination of Gaussian 16 at Wed Dec  9 22:41:01 2020.

 ----------------------------------------------------------------------
 # B3LYP/6-311++G(d,p) empiricaldispersion=gd3bj scf=xqc pop=npa geom=c
 heck
 ----------------------------------------------------------------------

 -------------------------------------
 CID_130579504_JID_3028_Energie_kation
 -------------------------------------
 Structure from the checkpoint file:  "JID_3028.chk"
 Charge =  1 Multiplicity = 2

 SCF Done:  E(UB3LYP) =  -596.377884618     A.U. after   23 cycles
 Normal termination of Gaussian 16 at Wed Dec  9 22:48:04 2020.
 Gaussian 16:  ES64L-G16RevA.03 25-Dec-2016

 ----------------------------------------------------------------------
 # B3LYP/6-311++G(d,p) empiricaldispersion=gd3bj scf=xqc pop=npa geom=c
 heck
 ----------------------------------------------------------------------

 ------------------------------------
 CID_130579504_JID_3028_Energie_anion
 ------------------------------------
 Structure from the checkpoint file:  "JID_3028.chk"
 Charge = -1 Multiplicity = 2

                         Standard orientation:
 ---------------------------------------------------------------------
 Center     Atomic      Atomic             Coordinates (Angstroms)
 Number     Number       Type             X           Y           Z
 ---------------------------------------------------------------------
      1          6           0        2.706911   -2.193405   -0.022628
      2          7           0        1.308131   -1.880221   -0.278257
      3          6           0        0.734810   -0.802483    0.535975
      4          6           0        1.501661    0.556466    0.451390
      5          6           0        0.832121    1.678652    1.270544
      6          6           0       -0.007496    2.456588    0.232985
      7          8           0        0.360146    1.970425   -1.064511
      8          6           0        1.542006    1.187607   -0.943573
      9          6           0       -0.735307   -0.697389    0.242892
     10          6           0       -1.725216   -0.719776    1.139742
     11          8           0       -2.994689   -0.633199    0.636836
     12          6           0       -2.844969   -0.366424   -0.783312
     13          6           0       -1.369482   -0.651513   -1.138616
     14          1           0        2.824516   -2.460031    1.034525
     15          1           0        3.426848   -1.385645   -0.243130
     16          1           0        2.991393   -3.067416   -0.617928
     17          1           0        1.169165   -1.678522   -1.265475
     18          1           0        0.836432   -1.124432    1.582789
     19          1           0        2.520348    0.378826    0.811362
     20          1           0        1.590224    2.328188    1.719727
     21          1           0        0.211311    1.281142    2.079024
     22          1           0       -1.081031    2.284621    0.356471
     23          1           0        0.181120    3.537389    0.287907
     24          1           0        2.438383    1.819305   -1.054948
     25          1           0        1.543843    0.458103   -1.761040
     26          1           0       -1.676824   -0.817835    2.218167
     27          1           0       -3.097301    0.687927   -0.949210
     28          1           0       -3.564771   -0.992109   -1.315601
     29          1           0       -1.247219   -1.614183   -1.655054
     30          1           0       -0.957240    0.138482   -1.770780
 ---------------------------------------------------------------------

 SCF Done:  E(UB3LYP) =  -596.645432492     A.U. after   32 cycles

 The electronic state is 2-A.
 Alpha  occ. eigenvalues --  -19.04848 -19.01735 -14.19421 -10.13110 -10.11598
 Alpha  occ. eigenvalues --  -10.11030 -10.10695 -10.10373 -10.07903 -10.07752
 Alpha  occ. eigenvalues --  -10.06921 -10.06721 -10.06547  -0.96801  -0.93405
 Alpha  occ. eigenvalues --   -0.80588  -0.70487  -0.68124  -0.64980  -0.63696
 Alpha  occ. eigenvalues --   -0.59061  -0.54204  -0.50951  -0.49157  -0.47754
 Alpha  occ. eigenvalues --   -0.45762  -0.42146  -0.40544  -0.38875  -0.38149
 Alpha  occ. eigenvalues --   -0.36228  -0.34927  -0.34092  -0.32531  -0.31277
 Alpha  occ. eigenvalues --   -0.30975  -0.30050  -0.29325  -0.28008  -0.26487
 Alpha  occ. eigenvalues --   -0.26433  -0.25401  -0.24914  -0.24208  -0.23656
 Alpha  occ. eigenvalues --   -0.23099  -0.21328  -0.15193  -0.12172  -0.11347
 Alpha  occ. eigenvalues --    0.04602
 Alpha virt. eigenvalues --    0.06968   0.07173   0.07735   0.08796   0.09138
 Alpha virt. eigenvalues --    0.09554   0.10204   0.10365   0.11625   0.11914
 Alpha virt. eigenvalues --    0.12129   0.12402   0.12989   0.13558   0.14141

  Beta  occ. eigenvalues --  -19.04845 -19.01734 -14.19408 -10.13102 -10.11580
  Beta  occ. eigenvalues --  -10.11017 -10.10662 -10.10365 -10.07858 -10.07739
  Beta  occ. eigenvalues --  -10.06907 -10.06726 -10.06523  -0.96791  -0.93396
  Beta  occ. eigenvalues --   -0.80564  -0.70467  -0.68094  -0.64956  -0.63653
  Beta  occ. eigenvalues --   -0.59010  -0.54134  -0.50913  -0.49100  -0.47713
  Beta  occ. eigenvalues --   -0.45727  -0.42104  -0.40527  -0.38835  -0.38114
  Beta  occ. eigenvalues --   -0.36186  -0.34891  -0.34053  -0.32495  -0.31244
  Beta  occ. eigenvalues --   -0.30939  -0.30021  -0.29305  -0.27971  -0.26460
  Beta  occ. eigenvalues --   -0.26400  -0.25371  -0.24888  -0.24177  -0.23630
  Beta  occ. eigenvalues --   -0.23061  -0.21301  -0.15168  -0.12142  -0.11323
  Beta virt. eigenvalues --    0.06762   0.07625   0.07889   0.08441   0.09395
  Beta virt. eigenvalues --    0.09508   0.10115   0.10576   0.10770   0.11947
  Beta virt. eigenvalues --    0.12318   0.12491   0.12833   0.13327   0.13884

 Mulliken charges and spin densities:
               1          2
     1  C    1.171078  -1.494233
     2  N   -0.248911   0.165862
     3  C   -0.290773  -0.298682
     4  C    0.233512   0.253019
     5  C    0.288545  -0.837557
     6  C    0.198674  -0.451839
     7  O   -0.082039   0.010947
     8  C    0.006002  -0.765282
     9  C   -0.106593   0.616900
    10  C    0.349175  -1.027733
    11  O   -0.101633   0.030238
    12  C   -0.072726  -0.399061
    13  C    0.135747  -0.232169
    14  H   -0.342599   0.472501
    15  H   -0.381825   0.529478
    16  H   -0.389747   0.533475
    17  H    0.099149   0.116498
    18  H   -0.036242   0.281343
    19  H   -0.250024   0.505946
    20  H   -0.506721   0.689546
    21  H   -0.113559   0.229249
    22  H    0.192730  -0.030904
    23  H   -0.195325   0.368717
    24  H   -0.423540   0.600339
    25  H   -0.326248   0.477868
    26  H   -0.147945   0.319005
    27  H    0.066300   0.099121
    28  H    0.028727   0.135661
    29  H   -0.040709   0.188158
    30  H    0.287520  -0.086412
 Sum of Mulliken charges =  -1.00000   1.00000

 Dipole moment (field-independent basis, Debye):
    X=             -7.0793    Y=              0.0810    Z=             -1.2300  Tot=              7.1858
 Quadrupole moment (field-independent basis, Debye-Ang):
   XX=           -142.9029   YY=           -131.9784   ZZ=           -115.0111
   XY=             -1.9143   XZ=              1.4640   YZ=             -0.7680

 Summary of Natural Population Analysis:

                                       Natural Population
                Natural  -----------------------------------------------
    Atom  No    Charge         Core      Valence    Rydberg      Total
 -----------------------------------------------------------------------
      C    1   -0.17897      0.99966     2.17095    0.00837     3.17897
      N    2   -0.33757      0.99974     2.82514    0.01268     3.83757
      C    3   -0.01384      0.99953     1.99833    0.01599     3.01384
      C    4   -0.13062      0.99958     2.11702    0.01403     3.13062
      C    5   -0.20562      0.99962     2.19694    0.00906     3.20562
      C    6   -0.00961      0.99960     1.99811    0.01190     3.00961
      O    7   -0.30718      0.99989     3.29862    0.00867     4.30718
      C    8   -0.01142      0.99956     1.99745    0.01441     3.01142
      C    9   -0.05762      0.99949     2.04338    0.01475     3.05762
      C   10    0.08885      0.99935     1.90028    0.01151     2.91115
      O   11   -0.28507      0.99989     3.27562    0.00957     4.28507
      C   12   -0.00745      0.99961     1.99762    0.01022     3.00745
      C   13   -0.21960      0.99959     2.21181    0.00819     3.21960
      H   14    0.09276      0.00000     0.40582    0.00141     0.40724
      H   15    0.08271      0.00000     0.41501    0.00228     0.41729
      H   16    0.09520      0.00000     0.40362    0.00118     0.40480
      H   17    0.17053      0.00000     0.32598    0.00349     0.32947
      H   18    0.09906      0.00000     0.39895    0.00199     0.40094
      H   19    0.11043      0.00000     0.38657    0.00301     0.38957
      H   20    0.10455      0.00000     0.39334    0.00211     0.39545
      H   21    0.10331      0.00000     0.39528    0.00141     0.39669
      H   22    0.08448      0.00000     0.41386    0.00165     0.41552
      H   23    0.08205      0.00000     0.41656    0.00139     0.41795
      H   24    0.08560      0.00000     0.41237    0.00203     0.41440
      H   25    0.08761      0.00000     0.41041    0.00199     0.41239
      H   26    0.09169      0.00000     0.40666    0.00165     0.40831
      H   27    0.08309      0.00000     0.41539    0.00152     0.41691
      H   28    0.08726      0.00000     0.41138    0.00136     0.41274
      H   29    0.09961      0.00000     0.39905    0.00134     0.40039
      H   30    0.11590      0.00000     0.38237    0.00173     0.38410
 =======================================================================
   * Total *    0.00010     12.99511    36.82391    0.18088    49.99990

 Normal termination of Gaussian 16 at Wed Dec  9 22:57:59 2020.
