 Gaussian 16, Revision A.03,

 -----------------------------------------------------------
 # opt freq B3LYP/6-31G(d) empiricaldispersion=gd3bj scf=xqc
 -----------------------------------------------------------

 -------------------------------
 CID_113878518_JID_8032_neutraal
 -------------------------------
 Symbolic Z-matrix:
 Charge =  0 Multiplicity = 1

 SCF Done:  E(RB3LYP) =  -752.394714752     A.U. after   15 cycles
 SCF Done:  E(RB3LYP) =  -752.400698813     A.U. after   13 cycles
 SCF Done:  E(RB3LYP) =  -752.402217447     A.U. after   13 cycles
 SCF Done:  E(RB3LYP) =  -752.403349324     A.U. after   13 cycles
 SCF Done:  E(RB3LYP) =  -752.405120561     A.U. after   13 cycles
 SCF Done:  E(RB3LYP) =  -752.407393012     A.U. after   13 cycles
 SCF Done:  E(RB3LYP) =  -752.407755717     A.U. after   16 cycles
 SCF Done:  E(RB3LYP) =  -752.408748296     A.U. after   13 cycles
 SCF Done:  E(RB3LYP) =  -752.410075931     A.U. after   14 cycles
 SCF Done:  E(RB3LYP) =  -752.410655450     A.U. after   13 cycles
 SCF Done:  E(RB3LYP) =  -752.417774654     A.U. after   11 cycles
 SCF Done:  E(RB3LYP) =  -752.417778644     A.U. after   10 cycles
 SCF Done:  E(RB3LYP) =  -752.417782384     A.U. after    9 cycles
 SCF Done:  E(RB3LYP) =  -752.417783907     A.U. after    9 cycles
 SCF Done:  E(RB3LYP) =  -752.417783931     A.U. after    6 cycles
 Optimization completed.
    -- Stationary point found.
 Normal termination of Gaussian 16 at Fri Dec 11 19:00:33 2020.

 --------------------------------------------------------------------
 #N Geom=AllCheck Guess=TCheck SCRF=Check GenChk RB3LYP/6-31G(d) Freq
 --------------------------------------------------------------------

 Structure from the checkpoint file:  "JID_8032.chk"
 -------------------------------
 CID_113878518_JID_8032_neutraal
 -------------------------------
 Charge =  0 Multiplicity = 1

 SCF Done:  E(RB3LYP) =  -752.417783931     A.U. after    1 cycles

  Exact polarizability: 188.300  -5.853 187.280 -33.453  -0.718 132.210
 Approx polarizability: 263.473 -23.757 306.282 -75.326   4.603 221.255

                      1                      2                      3
                      A                      A                      A
 Frequencies --     28.4027                43.3201                56.6115
 Red. masses --      4.1859                 3.5823                 3.1107
 Frc consts  --      0.0020                 0.0040                 0.0059
 IR Inten    --      0.6965                 1.8355                 0.0711

                      4                      5                      6
                      A                      A                      A
 Frequencies --     75.0892                84.1773               103.2314
 Red. masses --      2.8855                 4.2919                 3.1916
 Frc consts  --      0.0096                 0.0179                 0.0200
 IR Inten    --      1.1048                 3.2444                 0.0376

                      7                      8                      9
                      A                      A                      A
 Frequencies --    119.9177               132.9425               188.4207
 Red. masses --      3.5681                 4.7265                 2.7864
 Frc consts  --      0.0302                 0.0492                 0.0583
 IR Inten    --      0.3696                 2.4168                 3.9459

                     10                     11                     12
                      A                      A                      A
 Frequencies --    208.5682               221.1084               232.3445
 Red. masses --      2.7146                 1.1589                 1.3796
 Frc consts  --      0.0696                 0.0334                 0.0439
 IR Inten    --      1.5690                 0.3124                 0.4596

                     13                     14                     15
                      A                      A                      A
 Frequencies --    241.3894               269.1549               314.9032
 Red. masses --      3.4125                 2.0617                 2.7428
 Frc consts  --      0.1172                 0.0880                 0.1603
 IR Inten    --      0.7731                 1.7732                 3.3469

                     16                     17                     18
                      A                      A                      A
 Frequencies --    323.6688               349.0290               369.2471
 Red. masses --      3.2064                 3.1521                 2.1661
 Frc consts  --      0.1979                 0.2262                 0.1740
 IR Inten    --      9.6160                 0.9206                 0.3029

                     19                     20                     21
                      A                      A                      A
 Frequencies --    409.2706               466.4197               492.0706
 Red. masses --      2.2644                 3.6117                 3.9495
 Frc consts  --      0.2235                 0.4629                 0.5634
 IR Inten    --      2.7661                 1.6093                 1.5843

                     22                     23                     24
                      A                      A                      A
 Frequencies --    517.0132               542.8229               556.8320
 Red. masses --      3.2836                 3.2082                 3.8334
 Frc consts  --      0.5171                 0.5570                 0.7003
 IR Inten    --      2.3656                 2.2396                 0.1136

                     25                     26                     27
                      A                      A                      A
 Frequencies --    587.7349               601.0862               626.0074
 Red. masses --      3.3663                 3.1628                 4.3626
 Frc consts  --      0.6851                 0.6733                 1.0073
 IR Inten    --      2.7136                 2.6331                 1.8548

                     28                     29                     30
                      A                      A                      A
 Frequencies --    643.7161               653.3968               715.6358
 Red. masses --      3.5785                 3.5654                 2.7898
 Frc consts  --      0.8737                 0.8968                 0.8418
 IR Inten    --      8.3687                 2.5596                 1.1357

                     31                     32                     33
                      A                      A                      A
 Frequencies --    742.7037               751.7684               765.1194
 Red. masses --      1.3864                 2.3483                 1.4890
 Frc consts  --      0.4506                 0.7819                 0.5136
 IR Inten    --     52.3339                 6.0071                13.3539

                     34                     35                     36
                      A                      A                      A
 Frequencies --    797.7230               800.7170               817.5844
 Red. masses --      1.5885                 1.3646                 2.3806
 Frc consts  --      0.5956                 0.5155                 0.9375
 IR Inten    --      5.6581                 1.6992                24.6546

                     37                     38                     39
                      A                      A                      A
 Frequencies --    833.8460               858.8780               863.6860
 Red. masses --      1.8277                 2.1806                 1.6922
 Frc consts  --      0.7487                 0.9477                 0.7437
 IR Inten    --     22.2084                 3.7526                 2.9952

                     40                     41                     42
                      A                      A                      A
 Frequencies --    886.3721               894.0522               953.0246
 Red. masses --      2.5336                 1.3763                 1.2738
 Frc consts  --      1.1728                 0.6482                 0.6816
 IR Inten    --      3.0624                 0.3623                 0.5742

                     43                     44                     45
                      A                      A                      A
 Frequencies --    958.0178               964.3633               974.0740
 Red. masses --      2.3536                 1.7728                 1.6570
 Frc consts  --      1.2727                 0.9714                 0.9263
 IR Inten    --      1.1540                13.4022                15.0379

                     46                     47                     48
                      A                      A                      A
 Frequencies --   1028.4852              1030.1274              1046.5533
 Red. masses --      1.9784                 2.3776                 2.4442
 Frc consts  --      1.2330                 1.4865                 1.5773
 IR Inten    --      2.7066                 2.5631                10.2406

                     49                     50                     51
                      A                      A                      A
 Frequencies --   1079.9860              1083.5116              1089.8210
 Red. masses --      2.3002                 1.6998                 1.8201
 Frc consts  --      1.5807                 1.1758                 1.2736
 IR Inten    --      3.0171                 1.9635                 4.3972

                     52                     53                     54
                      A                      A                      A
 Frequencies --   1097.9131              1123.6214              1134.7415
 Red. masses --      1.8442                 1.9194                 1.6550
 Frc consts  --      1.3098                 1.4277                 1.2556
 IR Inten    --      6.9919                 2.4985                 8.2978

                     55                     56                     57
                      A                      A                      A
 Frequencies --   1142.3444              1194.9477              1199.0133
 Red. masses --      1.6604                 1.5772                 1.4913
 Frc consts  --      1.2766                 1.3269                 1.2632
 IR Inten    --      2.1770                11.7225                 3.4820

                     58                     59                     60
                      A                      A                      A
 Frequencies --   1216.9422              1224.5049              1251.7860
 Red. masses --      1.5223                 1.7098                 1.8060
 Frc consts  --      1.3282                 1.5105                 1.6674
 IR Inten    --     16.3791                37.8167                 2.3808

                     61                     62                     63
                      A                      A                      A
 Frequencies --   1276.1503              1293.8618              1308.1395
 Red. masses --      1.5603                 1.2513                 1.3485
 Frc consts  --      1.4972                 1.2342                 1.3596
 IR Inten    --      0.0781                 4.1874                 1.9180

                     64                     65                     66
                      A                      A                      A
 Frequencies --   1313.7925              1346.7498              1359.2926
 Red. masses --      1.2516                 3.4452                 1.5039
 Frc consts  --      1.2728                 3.6817                 1.6372
 IR Inten    --     14.6876                59.7426                 3.7984

                     67                     68                     69
                      A                      A                      A
 Frequencies --   1372.5753              1372.6738              1381.4886
 Red. masses --      1.8961                 1.5290                 4.0161
 Frc consts  --      2.1047                 1.6974                 4.5160
 IR Inten    --      4.3821                 0.7894                 9.4723

                     70                     71                     72
                      A                      A                      A
 Frequencies --   1402.9131              1410.8299              1424.1520
 Red. masses --      1.5068                 1.6126                 1.5417
 Frc consts  --      1.7473                 1.8911                 1.8423
 IR Inten    --     18.9738                12.6013                22.9590

                     73                     74                     75
                      A                      A                      A
 Frequencies --   1434.4127              1438.2452              1441.3828
 Red. masses --      1.9772                 1.4706                 1.2248
 Frc consts  --      2.3969                 1.7923                 1.4993
 IR Inten    --      3.6341                 6.2302                 2.5776

                     76                     77                     78
                      A                      A                      A
 Frequencies --   1471.5885              1485.9117              1500.7391
 Red. masses --      2.4522                 1.0822                 1.0778
 Frc consts  --      3.1288                 1.4078                 1.4302
 IR Inten    --     26.1166                 9.4296                 5.3985

                     79                     80                     81
                      A                      A                      A
 Frequencies --   1508.5933              1519.3268              1523.8523
 Red. masses --      1.0918                 1.2041                 1.0443
 Frc consts  --      1.4640                 1.6377                 1.4288
 IR Inten    --      4.4025                 5.7954                 5.0732

                     82                     83                     84
                      A                      A                      A
 Frequencies --   1534.5452              1535.5415              1535.8282
 Red. masses --      1.0481                 1.5484                 1.0756
 Frc consts  --      1.4541                 2.1511                 1.4949
 IR Inten    --      6.3786                 8.5790                 4.4678

                     85                     86                     87
                      A                      A                      A
 Frequencies --   1541.8303              1551.0495              1577.9791
 Red. masses --      1.1764                 1.3064                 4.4383
 Frc consts  --      1.6477                 1.8518                 6.5113
 IR Inten    --      7.2297                10.1612                13.5336

                     88                     89                     90
                      A                      A                      A
 Frequencies --   1637.2736              1658.4426              1797.3886
 Red. masses --      6.5290                 6.2080                10.4879
 Frc consts  --     10.3120                10.0601                19.9629
 IR Inten    --      3.0696                 0.3104               114.3103

                     91                     92                     93
                      A                      A                      A
 Frequencies --   3038.6607              3040.4617              3050.9163
 Red. masses --      1.0652                 1.0668                 1.0350
 Frc consts  --      5.7951                 5.8104                 5.6761
 IR Inten    --     14.8939                 7.2520                31.8457

                     94                     95                     96
                      A                      A                      A
 Frequencies --   3056.7451              3062.6567              3069.1716
 Red. masses --      1.0358                 1.0635                 1.0616
 Frc consts  --      5.7024                 5.8774                 5.8916
 IR Inten    --     27.9332                22.3779                19.1161

                     97                     98                     99
                      A                      A                      A
 Frequencies --   3083.9635              3096.2349              3103.8212
 Red. masses --      1.0939                 1.0960                 1.0682
 Frc consts  --      6.1298                 6.1908                 6.0634
 IR Inten    --      8.4343                14.9226                27.1833

                    100                    101                    102
                      A                      A                      A
 Frequencies --   3108.9055              3112.0019              3120.1193
 Red. masses --      1.0974                 1.0998                 1.1018
 Frc consts  --      6.2491                 6.2755                 6.3196
 IR Inten    --      3.1399                29.1587                41.7434

                    103                    104                    105
                      A                      A                      A
 Frequencies --   3124.4461              3128.6357              3133.6760
 Red. masses --      1.1028                 1.1026                 1.1014
 Frc consts  --      6.3431                 6.3591                 6.3725
 IR Inten    --     23.3040                42.1128                41.3869

                    106                    107                    108
                      A                      A                      A
 Frequencies --   3156.6402              3174.5649              3187.6290
 Red. masses --      1.1032                 1.0866                 1.0890
 Frc consts  --      6.4765                 6.4516                 6.5197
 IR Inten    --      8.5352                 8.2232                17.8652

                    109                    110                    111
                      A                      A                      A
 Frequencies --   3204.6386              3255.0317              3276.2840
 Red. masses --      1.0963                 1.0899                 1.1032
 Frc consts  --      6.6336                 6.8037                 6.9771
 IR Inten    --     36.0617                 3.2972                 2.0028

 - Thermochemistry -
 -------------------
 Temperature   298.150 Kelvin.  Pressure   1.00000 Atm.
 Atom     1 has atomic number  6 and mass  12.00000

 Molecular mass:   243.16231 amu.
 Principal axes and moments of inertia in atomic units:
                           1         2         3
     Eigenvalues --  2737.749746004.300337194.57359
           X            0.99919   0.03967   0.00713
           Y           -0.03970   0.99921   0.00314
           Z           -0.00700  -0.00342   0.99997
 This molecule is an asymmetric top.
 Rotational symmetry number  1.
 Warning -- assumption of classical behavior for rotation
           may cause significant error
 Rotational temperatures (Kelvin)      0.03164     0.01443     0.01204
 Rotational constants (GHZ):           0.65921     0.30057     0.25085
 Zero-point vibrational energy     894337.3 (Joules/Mol)
                                  213.75174 (Kcal/Mol)
 Warning -- explicit consideration of  26 degrees of freedom as
           vibrations may cause significant error
 Vibrational temperatures:     40.87    62.33    81.45   108.04   121.11
          (Kelvin)            148.53   172.53   191.27   271.10   300.08
                              318.13   334.29   347.31   387.25   453.08
                              465.69   502.17   531.26   588.85   671.07
                              707.98   743.87   781.00   801.16   845.62
                              864.83   900.69   926.16   940.09  1029.64
                             1068.58  1081.63  1100.84  1147.75  1152.05
                             1176.32  1199.72  1235.73  1242.65  1275.29
                             1286.34  1371.19  1378.37  1387.50  1401.48
                             1479.76  1482.12  1505.76  1553.86  1558.93
                             1568.01  1579.65  1616.64  1632.64  1643.58
                             1719.26  1725.11  1750.91  1761.79  1801.04
                             1836.10  1861.58  1882.12  1890.25  1937.67
                             1955.72  1974.83  1974.97  1987.65  2018.48
                             2029.87  2049.04  2063.80  2069.31  2073.83
                             2117.29  2137.90  2159.23  2170.53  2185.97
                             2192.48  2207.87  2209.30  2209.71  2218.35
                             2231.61  2270.36  2355.67  2386.13  2586.04
                             4371.96  4374.55  4389.59  4397.97  4406.48
                             4415.85  4437.14  4454.79  4465.71  4473.02
                             4477.48  4489.16  4495.38  4501.41  4508.66
                             4541.70  4567.49  4586.29  4610.76  4683.26
                             4713.84

 Zero-point correction=                           0.340635 (Hartree/Particle)
 Thermal correction to Energy=                    0.358030
 Thermal correction to Enthalpy=                  0.358974
 Thermal correction to Gibbs Free Energy=         0.294816
 Sum of electronic and zero-point Energies=           -752.077149
 Sum of electronic and thermal Energies=              -752.059754
 Sum of electronic and thermal Enthalpies=            -752.058810
 Sum of electronic and thermal Free Energies=         -752.122968

                     E (Thermal)             CV                S
                      KCal/Mol        Cal/Mol-Kelvin    Cal/Mol-Kelvin
 Total                  224.667             67.230            135.032
 Electronic               0.000              0.000              0.000
 Translational            0.889              2.981             42.367
 Rotational               0.889              2.981             33.136
 Vibrational            222.890             61.268             59.530
 Vibration     1          0.593              1.984              5.938
 Vibration     2          0.595              1.980              5.101
 Vibration     3          0.596              1.975              4.572
 Vibration     4          0.599              1.966              4.015
 Vibration     5          0.601              1.960              3.791
 Vibration     6          0.605              1.947              3.392
 Vibration     7          0.609              1.933              3.102
 Vibration     8          0.613              1.920              2.903
 Vibration     9          0.633              1.856              2.243
 Vibration    10          0.642              1.828              2.056
 Vibration    11          0.648              1.809              1.950
 Vibration    12          0.653              1.791              1.861
 Vibration    13          0.658              1.777              1.793
 Vibration    14          0.674              1.730              1.602
 Vibration    15          0.702              1.645              1.336
 Vibration    16          0.708              1.628              1.292
 Vibration    17          0.726              1.577              1.171
 Vibration    18          0.742              1.535              1.083
 Vibration    19          0.774              1.450              0.929
 Vibration    20          0.824              1.325              0.748
 Vibration    21          0.848              1.268              0.678
 Vibration    22          0.872              1.212              0.617
 Vibration    23          0.898              1.155              0.559
 Vibration    24          0.912              1.125              0.530
 Vibration    25          0.945              1.058              0.471
 Vibration    26          0.959              1.029              0.448

 Optimization completed.
    -- Stationary point found.
 Normal termination of Gaussian 16 at Fri Dec 11 19:19:15 2020.

 ----------------------------------------------------------------------
 # B3LYP/6-311++G(d,p) empiricaldispersion=gd3bj scf=xqc pop=npa geom=c
 heck
 ----------------------------------------------------------------------

 ---------------------------------------
 CID_113878518_JID_8032_Energie_neutraal
 ---------------------------------------
 Structure from the checkpoint file:  "JID_8032.chk"
 Charge =  0 Multiplicity = 1

 SCF Done:  E(RB3LYP) =  -752.617681918     A.U. after   15 cycles
 Normal termination of Gaussian 16 at Fri Dec 11 19:26:31 2020.

 ----------------------------------------------------------------------
 # B3LYP/6-311++G(d,p) empiricaldispersion=gd3bj scf=xqc pop=npa geom=c
 heck
 ----------------------------------------------------------------------

 -------------------------------------
 CID_113878518_JID_8032_Energie_kation
 -------------------------------------
 Structure from the checkpoint file:  "JID_8032.chk"
 Charge =  1 Multiplicity = 2

 SCF Done:  E(UB3LYP) =  -752.348474363     A.U. after   26 cycles
 Normal termination of Gaussian 16 at Fri Dec 11 19:43:15 2020.
 Gaussian 16:  ES64L-G16RevA.03 25-Dec-2016

 ----------------------------------------------------------------------
 # B3LYP/6-311++G(d,p) empiricaldispersion=gd3bj scf=xqc pop=npa geom=c
 heck
 ----------------------------------------------------------------------

 ------------------------------------
 CID_113878518_JID_8032_Energie_anion
 ------------------------------------
 Structure from the checkpoint file:  "JID_8032.chk"
 Charge = -1 Multiplicity = 2

                         Standard orientation:
 ---------------------------------------------------------------------
 Center     Atomic      Atomic             Coordinates (Angstroms)
 Number     Number       Type             X           Y           Z
 ---------------------------------------------------------------------
      1          6           0        3.410728    2.209111    0.364603
      2          6           0        2.707163    1.555745   -0.837220
      3          6           0        2.310087    0.123833   -0.554293
      4          6           0        3.097817   -0.913594   -1.054026
      5          6           0        2.893775   -2.262808   -0.711265
      6          6           0        1.887198   -2.622742    0.169942
      7          6           0        1.052494   -1.618014    0.684461
      8          6           0        1.254410   -0.256745    0.302011
      9          7           0        0.291525    0.505776    0.967109
     10          6           0       -0.485502   -0.352726    1.734346
     11          6           0       -0.053067   -1.643088    1.599590
     12          6           0       -0.206232    1.825370    0.588144
     13          6           0       -0.899392    1.842815   -0.787186
     14          6           0       -1.810221    0.639818   -1.037408
     15          6           0       -2.957828    0.504535   -0.048997
     16          8           0       -3.267694    1.417348    0.699249
     17          6           0       -3.684899   -0.830003   -0.013187
     18          6           0       -4.128884   -1.352724   -1.387008
     19          1           0        2.767485    2.206877    1.251061
     20          1           0        3.687305    3.246380    0.143488
     21          1           0        4.320763    1.656316    0.620170
     22          1           0        1.846975    2.165947   -1.130650
     23          1           0        3.387547    1.563272   -1.696468
     24          1           0        3.919614   -0.657692   -1.718539
     25          1           0        3.548056   -3.022128   -1.130162
     26          1           0        1.740493   -3.659336    0.460745
     27          1           0       -1.303208    0.053303    2.312874
     28          1           0       -0.450482   -2.509271    2.110468
     29          1           0       -0.925122    2.116314    1.354969
     30          1           0        0.609943    2.551544    0.610093
     31          1           0       -1.477280    2.770833   -0.857240
     32          1           0       -0.147893    1.866448   -1.583152
     33          1           0       -2.248558    0.715450   -2.042838
     34          1           0       -1.231567   -0.292180   -1.040381
     35          1           0       -2.989063   -1.549155    0.442456
     36          1           0       -4.538001   -0.718883    0.662769
     37          1           0       -3.274230   -1.542160   -2.044234
     38          1           0       -4.675401   -2.294509   -1.275559
     39          1           0       -4.792364   -0.639292   -1.888664
 ---------------------------------------------------------------------

 SCF Done:  E(UB3LYP) =  -752.608363170     A.U. after   33 cycles
 SCF Done:  E(UB3LYP) =  -752.608363171     a.u. after    1 cycles

 The electronic state is 2-A.
 Alpha  occ. eigenvalues --  -18.98911 -14.25299 -10.13276 -10.10888 -10.09963
 Alpha  occ. eigenvalues --  -10.09291 -10.07676 -10.07621 -10.07579 -10.07137
 Alpha  occ. eigenvalues --  -10.06811 -10.06582 -10.06564 -10.06554 -10.06437
 Alpha  occ. eigenvalues --  -10.06310 -10.06221 -10.05515  -0.92478  -0.88104
 Alpha  occ. eigenvalues --   -0.74784  -0.71551  -0.69107  -0.67718  -0.65722
 Alpha  occ. eigenvalues --   -0.63061  -0.61670  -0.59326  -0.54970  -0.53551
 Alpha  occ. eigenvalues --   -0.51668  -0.50055  -0.48285  -0.45542  -0.41909
 Alpha  occ. eigenvalues --   -0.40013  -0.39013  -0.38199  -0.37378  -0.36932
 Alpha  occ. eigenvalues --   -0.35743  -0.34927  -0.34395  -0.33482  -0.32630
 Alpha  occ. eigenvalues --   -0.31100  -0.30874  -0.30395  -0.29485  -0.28817
 Alpha  occ. eigenvalues --   -0.28559  -0.27957  -0.27323  -0.26811  -0.26309
 Alpha  occ. eigenvalues --   -0.25349  -0.25132  -0.24249  -0.24006  -0.23493
 Alpha  occ. eigenvalues --   -0.22917  -0.22213  -0.17077  -0.13554  -0.12395
 Alpha  occ. eigenvalues --   -0.10477   0.04322
 Alpha virt. eigenvalues --    0.05977   0.07014   0.07361   0.08025   0.08248
 Alpha virt. eigenvalues --    0.08754   0.08856   0.09280   0.09701   0.10258
 Alpha virt. eigenvalues --    0.10917   0.11005   0.11058   0.11511   0.11957

  Beta  occ. eigenvalues --  -18.98712 -14.25290 -10.13092 -10.10879 -10.09971
  Beta  occ. eigenvalues --  -10.09232 -10.07670 -10.07574 -10.07567 -10.07147
  Beta  occ. eigenvalues --  -10.06817 -10.06589 -10.06531 -10.06506 -10.06444
  Beta  occ. eigenvalues --  -10.06231 -10.06184 -10.05498  -0.92101  -0.88067
  Beta  occ. eigenvalues --   -0.74715  -0.71494  -0.69005  -0.67617  -0.65677
  Beta  occ. eigenvalues --   -0.62999  -0.61572  -0.59240  -0.54824  -0.53457
  Beta  occ. eigenvalues --   -0.51632  -0.49960  -0.48248  -0.45476  -0.41734
  Beta  occ. eigenvalues --   -0.39856  -0.38926  -0.38079  -0.37307  -0.36879
  Beta  occ. eigenvalues --   -0.35670  -0.34863  -0.34315  -0.33394  -0.32432
  Beta  occ. eigenvalues --   -0.31047  -0.30799  -0.30293  -0.29326  -0.28753
  Beta  occ. eigenvalues --   -0.28476  -0.27872  -0.27197  -0.26757  -0.26258
  Beta  occ. eigenvalues --   -0.25307  -0.25037  -0.24215  -0.23940  -0.22919
  Beta  occ. eigenvalues --   -0.22749  -0.22006  -0.16868  -0.13398  -0.12230
  Beta  occ. eigenvalues --   -0.10180
  Beta virt. eigenvalues --    0.06461   0.07033   0.07420   0.07663   0.08437
  Beta virt. eigenvalues --    0.08495   0.09033   0.09349   0.09754   0.09986
  Beta virt. eigenvalues --    0.10576   0.11010   0.11100   0.11178   0.11615

 Mulliken charges and spin densities:
               1          2
     1  C    0.467008  -1.097129
     2  C   -0.607069   0.362076
     3  C    0.186306   0.505431
     4  C   -0.067545  -0.402401
     5  C   -0.153241  -0.347592
     6  C   -0.658973   0.178329
     7  C    0.282987  -0.124189
     8  C   -0.175167   0.127372
     9  N    0.194410   0.051901
    10  C    0.591920  -0.292856
    11  C   -0.061787  -0.402180
    12  C   -0.346157   0.028910
    13  C    0.115235  -0.434779
    14  C   -0.347320   0.127476
    15  C    0.069969   0.050171
    16  O   -0.282579   0.069297
    17  C   -0.504188   0.237054
    18  C    0.399947  -1.014095
    19  H    0.036432   0.133026
    20  H   -0.434729   0.571956
    21  H    0.098176   0.026790
    22  H    0.145168  -0.046452
    23  H   -0.211584   0.391298
    24  H    0.015779   0.109595
    25  H    0.046444   0.085983
    26  H    0.016483   0.117191
    27  H    0.098099   0.093643
    28  H   -0.078044   0.231437
    29  H    0.123078   0.107245
    30  H   -0.027244   0.151085
    31  H    0.112110   0.070786
    32  H    0.020766   0.107564
    33  H    0.244918  -0.045400
    34  H    0.217455  -0.053485
    35  H    0.088769   0.101654
    36  H    0.018110   0.144325
    37  H   -0.147788   0.297991
    38  H   -0.506619   0.661608
    39  H    0.020465   0.119364
 Sum of Mulliken charges =  -1.00000   1.00000

 Dipole moment (field-independent basis, Debye):
    X=              1.8766    Y=              0.1898    Z=             -0.3467  Tot=              1.9177
 Quadrupole moment (field-independent basis, Debye-Ang):
   XX=           -189.9384   YY=           -158.2448   ZZ=           -137.1074
   XY=            -17.1030   XZ=              0.5593   YZ=             -5.2458

 Summary of Natural Population Analysis:

                                       Natural Population
                Natural  -----------------------------------------------
    Atom  No    Charge         Core      Valence    Rydberg      Total
 -----------------------------------------------------------------------
      C    1   -0.28168      0.99966     2.27696    0.00507     3.28168
      C    2   -0.19940      0.99961     2.19062    0.00917     3.19940
      C    3   -0.02238      0.99947     2.01277    0.01014     3.02238
      C    4   -0.10166      0.99953     2.09344    0.00869     3.10166
      C    5   -0.11682      0.99957     2.10737    0.00988     3.11682
      C    6   -0.08547      0.99952     2.07786    0.00809     3.08547
      C    7   -0.04599      0.99950     2.03646    0.01003     3.04599
      C    8    0.08079      0.99943     1.90878    0.01101     2.91921
      N    9   -0.21536      0.99963     2.70576    0.00998     3.71536
      C   10    0.01478      0.99956     1.97432    0.01135     2.98522
      C   11   -0.14631      0.99952     2.13742    0.00938     3.14631
      C   12   -0.08523      0.99960     2.07489    0.01074     3.08523
      C   13   -0.19333      0.99963     2.18594    0.00777     3.19333
      C   14   -0.24534      0.99957     2.23894    0.00682     3.24534
      C   15    0.31842      0.99966     1.66055    0.02137     2.68158
      O   16   -0.28666      0.99987     3.28062    0.00617     4.28666
      C   17   -0.23932      0.99959     2.23040    0.00934     3.23932
      C   18   -0.28438      0.99967     2.27969    0.00503     3.28438
      H   19    0.09743      0.00000     0.40158    0.00100     0.40257
      H   20    0.09815      0.00000     0.40020    0.00165     0.40185
      H   21    0.09769      0.00000     0.40140    0.00091     0.40231
      H   22    0.09830      0.00000     0.40005    0.00165     0.40170
      H   23    0.09922      0.00000     0.39954    0.00124     0.40078
      H   24    0.09535      0.00000     0.40367    0.00098     0.40465
      H   25    0.09575      0.00000     0.40349    0.00076     0.40425
      H   26    0.09609      0.00000     0.40269    0.00122     0.40391
      H   27    0.10559      0.00000     0.39325    0.00116     0.39441
      H   28    0.10530      0.00000     0.39385    0.00085     0.39470
      H   29    0.11038      0.00000     0.38852    0.00110     0.38962
      H   30    0.09863      0.00000     0.40020    0.00117     0.40137
      H   31    0.10420      0.00000     0.39468    0.00113     0.39580
      H   32    0.09664      0.00000     0.40203    0.00133     0.40336
      H   33    0.11115      0.00000     0.38789    0.00096     0.38885
      H   34    0.11439      0.00000     0.38427    0.00134     0.38561
      H   35    0.11352      0.00000     0.38448    0.00201     0.38648
      H   36    0.10251      0.00000     0.39627    0.00121     0.39749
      H   37    0.09778      0.00000     0.40127    0.00095     0.40222
      H   38    0.10272      0.00000     0.39545    0.00183     0.39728
      H   39    0.09456      0.00000     0.40448    0.00096     0.40544
 =======================================================================
   * Total *    0.00000     17.99259    47.81202    0.19539    66.00000

 Normal termination of Gaussian 16 at Fri Dec 11 20:04:41 2020.
