 Gaussian 16, Revision A.03,

 -----------------------------------------------------------
 # opt freq B3LYP/6-31G(d) empiricaldispersion=gd3bj scf=xqc
 -----------------------------------------------------------

 ------------------------------
 CID_47320220_JID_5419_neutraal
 ------------------------------
 Symbolic Z-matrix:
 Charge =  0 Multiplicity = 1

 SCF Done:  E(RB3LYP) =  -1068.68905112     A.U. after   14 cycles
 SCF Done:  E(RB3LYP) =  -1068.69344231     A.U. after   12 cycles
 SCF Done:  E(RB3LYP) =  -1068.69408950     A.U. after   12 cycles
 SCF Done:  E(RB3LYP) =  -1068.69433708     A.U. after   11 cycles
 SCF Done:  E(RB3LYP) =  -1068.69452453     A.U. after   11 cycles
 SCF Done:  E(RB3LYP) =  -1068.69484132     A.U. after   13 cycles
 SCF Done:  E(RB3LYP) =  -1068.69475897     A.U. after   12 cycles
 SCF Done:  E(RB3LYP) =  -1068.69562580     A.U. after   12 cycles
 SCF Done:  E(RB3LYP) =  -1068.69686018     A.U. after   14 cycles
 SCF Done:  E(RB3LYP) =  -1068.69644906     A.U. after   13 cycles
 SCF Done:  E(RB3LYP) =  -1068.69783482     A.U. after   10 cycles
 SCF Done:  E(RB3LYP) =  -1068.69784113     A.U. after   10 cycles
 SCF Done:  E(RB3LYP) =  -1068.69784346     A.U. after    9 cycles
 SCF Done:  E(RB3LYP) =  -1068.69784371     A.U. after    8 cycles
 SCF Done:  E(RB3LYP) =  -1068.69784372     A.U. after    7 cycles
 Optimization completed.
    -- Stationary point found.
 Normal termination of Gaussian 16 at Thu Dec 10 16:08:11 2020.

 --------------------------------------------------------------------
 #N Geom=AllCheck Guess=TCheck SCRF=Check GenChk RB3LYP/6-31G(d) Freq
 --------------------------------------------------------------------

 Structure from the checkpoint file:  "JID_5419.chk"
 ------------------------------
 CID_47320220_JID_5419_neutraal
 ------------------------------
 Charge =  0 Multiplicity = 1

 SCF Done:  E(RB3LYP) =  -1068.69784372     A.U. after    1 cycles

  Exact polarizability: 167.707 -18.252 103.740   2.361   0.487 127.371
 Approx polarizability: 216.822 -33.035 151.756   4.105   0.941 225.402

                      1                      2                      3
                      A                      A                      A
 Frequencies --     20.9254                27.1689                37.9854
 Red. masses --      5.8064                 5.6716                 3.9234
 Frc consts  --      0.0015                 0.0025                 0.0033
 IR Inten    --      1.2345                 3.7453                 0.2998

                      4                      5                      6
                      A                      A                      A
 Frequencies --     67.2264               111.7086               130.7711
 Red. masses --      5.0757                 3.8034                 3.3453
 Frc consts  --      0.0135                 0.0280                 0.0337
 IR Inten    --      1.5382                 3.6781                 3.2709

                      7                      8                      9
                      A                      A                      A
 Frequencies --    176.9789               197.2224               226.7801
 Red. masses --      3.1225                 3.8346                 1.0972
 Frc consts  --      0.0576                 0.0879                 0.0332
 IR Inten    --      3.0074                 3.1036                 0.3412

                     10                     11                     12
                      A                      A                      A
 Frequencies --    234.5892               246.5145               286.5329
 Red. masses --      1.2460                 4.0170                 3.5349
 Frc consts  --      0.0404                 0.1438                 0.1710
 IR Inten    --      0.9200                 0.4615                 2.3826

                     13                     14                     15
                      A                      A                      A
 Frequencies --    309.2392               326.1213               382.9679
 Red. masses --      4.0310                 3.1451                 3.1117
 Frc consts  --      0.2271                 0.1971                 0.2689
 IR Inten    --      3.3673                 1.8757                 5.3619

                     16                     17                     18
                      A                      A                      A
 Frequencies --    420.3487               423.1247               442.0326
 Red. masses --      3.9196                 3.2625                 3.1095
 Frc consts  --      0.4080                 0.3441                 0.3580
 IR Inten    --      2.9774                 0.9182                21.4021

                     19                     20                     21
                      A                      A                      A
 Frequencies --    478.9553               518.4520               528.4730
 Red. masses --      6.8153                 2.9200                 4.7588
 Frc consts  --      0.9211                 0.4624                 0.7831
 IR Inten    --     11.4586                 2.6230                51.4201

                     22                     23                     24
                      A                      A                      A
 Frequencies --    533.5817               630.0371               634.4962
 Red. masses --      4.3441                 4.4068                 2.5179
 Frc consts  --      0.7287                 1.0306                 0.5972
 IR Inten    --      3.2648                19.3499                69.8564

                     25                     26                     27
                      A                      A                      A
 Frequencies --    660.9877               701.9228               736.3669
 Red. masses --      5.0701                 2.3324                 4.2808
 Frc consts  --      1.3051                 0.6771                 1.3676
 IR Inten    --     27.4870                11.1645                37.0717

                     28                     29                     30
                      A                      A                      A
 Frequencies --    765.8801               829.0009               848.9898
 Red. masses --      1.5971                 1.2505                 4.7585
 Frc consts  --      0.5520                 0.5064                 2.0208
 IR Inten    --     53.4236                 0.1653                 5.4318

                     31                     32                     33
                      A                      A                      A
 Frequencies --    878.6137               892.6279               902.3012
 Red. masses --      2.0093                 1.4838                 2.3906
 Frc consts  --      0.9139                 0.6966                 1.1467
 IR Inten    --      7.4205                27.1703               166.9173

                     34                     35                     36
                      A                      A                      A
 Frequencies --    955.4617               968.3488               982.8109
 Red. masses --      1.3322                 1.6502                 1.2561
 Frc consts  --      0.7165                 0.9117                 0.7148
 IR Inten    --      0.4972                 7.1905                 3.5078

                     37                     38                     39
                      A                      A                      A
 Frequencies --    992.7606               997.5335              1003.3895
 Red. masses --      2.1583                 1.3756                 1.4306
 Frc consts  --      1.2533                 0.8065                 0.8486
 IR Inten    --    105.9173                22.7593                11.9980

                     40                     41                     42
                      A                      A                      A
 Frequencies --   1017.9557              1034.0222              1059.7390
 Red. masses --      5.5730                 2.5516                 1.9784
 Frc consts  --      3.4025                 1.6074                 1.3091
 IR Inten    --      0.7741                38.7311                12.4551

                     43                     44                     45
                      A                      A                      A
 Frequencies --   1109.8528              1122.6083              1127.7217
 Red. masses --      1.8774                 3.2311                 2.9749
 Frc consts  --      1.3625                 2.3991                 2.2291
 IR Inten    --      5.5199                60.2841               105.7425

                     46                     47                     48
                      A                      A                      A
 Frequencies --   1171.3743              1179.5594              1190.8961
 Red. masses --      2.0134                 2.0793                 1.1024
 Frc consts  --      1.6277                 1.7045                 0.9212
 IR Inten    --      1.0925                15.2453                 2.1331

                     49                     50                     51
                      A                      A                      A
 Frequencies --   1209.9827              1280.2320              1294.3585
 Red. masses --      1.1443                 1.1849                 3.6445
 Frc consts  --      0.9871                 1.1443                 3.5975
 IR Inten    --     13.5892                70.9878               272.1020

                     52                     53                     54
                      A                      A                      A
 Frequencies --   1312.1471              1346.4504              1357.0432
 Red. masses --      2.7706                 2.1683                 1.7517
 Frc consts  --      2.8105                 2.3161                 1.9006
 IR Inten    --     74.5233                85.4861                40.6882

                     55                     56                     57
                      A                      A                      A
 Frequencies --   1365.6672              1373.6333              1383.0829
 Red. masses --      1.5922                 2.4449                 1.2257
 Frc consts  --      1.7496                 2.7181                 1.3814
 IR Inten    --      0.9727                12.3023                12.0975

                     58                     59                     60
                      A                      A                      A
 Frequencies --   1421.5455              1442.9416              1461.6037
 Red. masses --      1.3503                 1.2924                 1.2504
 Frc consts  --      1.6077                 1.5854                 1.5739
 IR Inten    --      7.9592                16.8051                80.0095

                     61                     62                     63
                      A                      A                      A
 Frequencies --   1484.4949              1486.9864              1507.7646
 Red. masses --      1.0491                 1.0640                 2.3378
 Frc consts  --      1.3621                 1.3861                 3.1312
 IR Inten    --      4.2879                 3.6351                 0.9024

                     64                     65                     66
                      A                      A                      A
 Frequencies --   1518.5525              1533.8820              1541.7922
 Red. masses --      1.0470                 1.0625                 1.4761
 Frc consts  --      1.4224                 1.4728                 2.0673
 IR Inten    --      8.5994                 2.8914               121.7433

                     67                     68                     69
                      A                      A                      A
 Frequencies --   1557.9066              1650.4039              1668.1253
 Red. masses --      1.4822                 5.9695                 5.6355
 Frc consts  --      2.1195                 9.5800                 9.2393
 IR Inten    --     15.7000                22.1669                80.0882

                     70                     71                     72
                      A                      A                      A
 Frequencies --   3031.6217              3063.7998              3088.6837
 Red. masses --      1.0624                 1.0362                 1.0295
 Frc consts  --      5.7530                 5.7307                 5.7864
 IR Inten    --     28.4462                20.6709                 0.5088

                     73                     74                     75
                      A                      A                      A
 Frequencies --   3102.1224              3105.5989              3134.3202
 Red. masses --      1.0957                 1.0925                 1.1007
 Frc consts  --      6.2125                 6.2082                 6.3711
 IR Inten    --     10.4014                10.6437                22.6886

                     76                     77                     78
                      A                      A                      A
 Frequencies --   3149.5679              3186.0172              3187.1653
 Red. masses --      1.1036                 1.1066                 1.0851
 Frc consts  --      6.4499                 6.6182                 6.4945
 IR Inten    --     25.0088                 1.4185                 2.2956

                     79                     80                     81
                      A                      A                      A
 Frequencies --   3194.8547              3199.3241              3209.5592
 Red. masses --      1.0893                 1.1078                 1.0925
 Frc consts  --      6.5509                 6.6809                 6.6309
 IR Inten    --     13.7419                 0.7349                30.1835

                     82                     83                     84
                      A                      A                      A
 Frequencies --   3217.0827              3231.5788              3514.2077
 Red. masses --      1.0964                 1.0921                 1.0741
 Frc consts  --      6.6857                 6.7196                 7.8154
 IR Inten    --     13.9309                 6.7430                44.1052

 - Thermochemistry -
 -------------------
 Temperature   298.150 Kelvin.  Pressure   1.00000 Atm.
 Atom     1 has atomic number  6 and mass  12.00000

 Molecular mass:   229.07727 amu.
 Principal axes and moments of inertia in atomic units:
                           1         2         3
     Eigenvalues --  1680.788137039.777937540.38737
           X            0.99990  -0.01400  -0.00256
           Y            0.01401   0.99989   0.00533
           Z            0.00248  -0.00537   0.99998
 This molecule is an asymmetric top.
 Rotational symmetry number  1.
 Warning -- assumption of classical behavior for rotation
           may cause significant error
 Rotational temperatures (Kelvin)      0.05153     0.01230     0.01149
 Rotational constants (GHZ):           1.07375     0.25636     0.23934
 Zero-point vibrational energy     647999.5 (Joules/Mol)
                                  154.87560 (Kcal/Mol)
 Warning -- explicit consideration of  22 degrees of freedom as
           vibrations may cause significant error
 Vibrational temperatures:     30.11    39.09    54.65    96.72   160.72
          (Kelvin)            188.15   254.63   283.76   326.29   337.52
                              354.68   412.26   444.93   469.22   551.01
                              604.79   608.78   635.99   689.11   745.94
                              760.35   767.71   906.48   912.90   951.01
                             1009.91  1059.47  1101.93  1192.75  1221.51
                             1264.13  1284.29  1298.21  1374.70  1393.24
                             1414.05  1428.36  1435.23  1443.65  1464.61
                             1487.73  1524.73  1596.83  1615.18  1622.54
                             1685.35  1697.12  1713.43  1740.90  1841.97
                             1862.29  1887.89  1937.24  1952.48  1964.89
                             1976.35  1989.95  2045.29  2076.07  2102.92
                             2135.86  2139.44  2169.34  2184.86  2206.91
                             2218.30  2241.48  2374.56  2400.06  4361.83
                             4408.12  4443.93  4463.26  4468.26  4509.59
                             4531.53  4583.97  4585.62  4596.68  4603.11
                             4617.84  4628.66  4649.52  5056.16

 Zero-point correction=                           0.246810 (Hartree/Particle)
 Thermal correction to Energy=                    0.262043
 Thermal correction to Enthalpy=                  0.262987
 Thermal correction to Gibbs Free Energy=         0.202208
 Sum of electronic and zero-point Energies=          -1068.451034
 Sum of electronic and thermal Energies=             -1068.435801
 Sum of electronic and thermal Enthalpies=           -1068.434857
 Sum of electronic and thermal Free Energies=        -1068.495636

                     E (Thermal)             CV                S
                      KCal/Mol        Cal/Mol-Kelvin    Cal/Mol-Kelvin
 Total                  164.434             57.174            127.920
 Electronic               0.000              0.000              0.000
 Translational            0.889              2.981             42.189
 Rotational               0.889              2.981             32.856
 Vibrational            162.657             51.213             52.876
 Vibration     1          0.593              1.986              6.544
 Vibration     2          0.593              1.984              6.026
 Vibration     3          0.594              1.982              5.361
 Vibration     4          0.598              1.970              4.233
 Vibration     5          0.607              1.940              3.239
 Vibration     6          0.612              1.923              2.935
 Vibration     7          0.628              1.871              2.360
 Vibration     8          0.637              1.844              2.159
 Vibration     9          0.650              1.800              1.904
 Vibration    10          0.654              1.788              1.844
 Vibration    11          0.661              1.769              1.755
 Vibration    12          0.684              1.699              1.494
 Vibration    13          0.699              1.656              1.366
 Vibration    14          0.710              1.623              1.279
 Vibration    15          0.752              1.507              1.027
 Vibration    16          0.783              1.426              0.891
 Vibration    17          0.785              1.420              0.881
 Vibration    18          0.802              1.378              0.820
 Vibration    19          0.835              1.297              0.713
 Vibration    20          0.873              1.209              0.614
 Vibration    21          0.883              1.187              0.591
 Vibration    22          0.889              1.176              0.579

 Optimization completed.
    -- Stationary point found.
 Normal termination of Gaussian 16 at Thu Dec 10 16:16:28 2020.

 ----------------------------------------------------------------------
 # B3LYP/6-311++G(d,p) empiricaldispersion=gd3bj scf=xqc pop=npa geom=c
 heck
 ----------------------------------------------------------------------

 --------------------------------------
 CID_47320220_JID_5419_Energie_neutraal
 --------------------------------------
 Structure from the checkpoint file:  "JID_5419.chk"
 Charge =  0 Multiplicity = 1

 SCF Done:  E(RB3LYP) =  -1068.91844334     A.U. after   15 cycles
 Normal termination of Gaussian 16 at Thu Dec 10 16:21:06 2020.

 ----------------------------------------------------------------------
 # B3LYP/6-311++G(d,p) empiricaldispersion=gd3bj scf=xqc pop=npa geom=c
 heck
 ----------------------------------------------------------------------

 ------------------------------------
 CID_47320220_JID_5419_Energie_kation
 ------------------------------------
 Structure from the checkpoint file:  "JID_5419.chk"
 Charge =  1 Multiplicity = 2

 SCF Done:  E(UB3LYP) =  -1068.61479312     A.U. after   26 cycles
 Normal termination of Gaussian 16 at Thu Dec 10 16:29:48 2020.
 Gaussian 16:  ES64L-G16RevA.03 25-Dec-2016

 ----------------------------------------------------------------------
 # B3LYP/6-311++G(d,p) empiricaldispersion=gd3bj scf=xqc pop=npa geom=c
 heck
 ----------------------------------------------------------------------

 -----------------------------------
 CID_47320220_JID_5419_Energie_anion
 -----------------------------------
 Structure from the checkpoint file:  "JID_5419.chk"
 Charge = -1 Multiplicity = 2

                         Standard orientation:
 ---------------------------------------------------------------------
 Center     Atomic      Atomic             Coordinates (Angstroms)
 Number     Number       Type             X           Y           Z
 ---------------------------------------------------------------------
      1          6           0       -1.134706    2.831781    0.315235
      2          6           0       -1.242976    1.459993   -0.351838
      3          6           0        0.104869    0.954181   -0.868316
      4          8           0        0.928702    0.765762    0.278604
      5          6           0        2.178373    0.232173    0.110330
      6          6           0        2.725890   -0.107223   -1.129956
      7          6           0        4.016154   -0.642418   -1.183712
      8          6           0        4.758754   -0.838518   -0.022289
      9          6           0        4.200257   -0.494140    1.212737
     10          6           0        2.918257    0.038342    1.283243
     11          7           0       -1.829457    0.508577    0.614854
     12         16           0       -2.618729   -0.860938    0.016226
     13          8           0       -2.394857   -0.985402   -1.430692
     14          8           0       -2.297087   -1.956009    0.934875
     15          6           0       -4.344647   -0.410409    0.244753
     16          1           0       -0.452063    2.791472    1.169039
     17          1           0       -2.115538    3.162746    0.666871
     18          1           0       -0.745765    3.569738   -0.394961
     19          1           0       -1.921210    1.516045   -1.208082
     20          1           0       -0.032580    0.008534   -1.403129
     21          1           0        0.558117    1.689258   -1.547937
     22          1           0        2.164608    0.034754   -2.045660
     23          1           0        4.436264   -0.906899   -2.150108
     24          1           0        5.759731   -1.255504   -0.074614
     25          1           0        4.766609   -0.642790    2.127839
     26          1           0        2.467843    0.309752    2.232733
     27          1           0       -1.134671    0.192379    1.291377
     28          1           0       -4.524524   -0.251734    1.308404
     29          1           0       -4.548180    0.498028   -0.325105
     30          1           0       -4.948188   -1.238196   -0.133677
 ---------------------------------------------------------------------

 SCF Done:  E(UB3LYP) =  -1068.90844123     A.U. after   33 cycles
 SCF Done:  E(UB3LYP) =  -1068.90844123     a.u. after    1 cycles

 The electronic state is 2-A.
 Alpha  occ. eigenvalues --  -88.97028 -19.07253 -19.02502 -19.02467 -14.24847
 Alpha  occ. eigenvalues --  -10.15541 -10.13900 -10.13156 -10.11018 -10.09715
 Alpha  occ. eigenvalues --  -10.09694 -10.09256 -10.09106 -10.08902 -10.07177
 Alpha  occ. eigenvalues --   -8.03236  -5.99523  -5.99482  -5.99298  -1.02707
 Alpha  occ. eigenvalues --   -0.98920  -0.91787  -0.83905  -0.77438  -0.70619
 Alpha  occ. eigenvalues --   -0.67465  -0.66954  -0.65595  -0.60823  -0.54615
 Alpha  occ. eigenvalues --   -0.53125  -0.52753  -0.49675  -0.46296  -0.43529
 Alpha  occ. eigenvalues --   -0.41562  -0.40593  -0.40340  -0.39055  -0.38204
 Alpha  occ. eigenvalues --   -0.37047  -0.36271  -0.34702  -0.34498  -0.34258
 Alpha  occ. eigenvalues --   -0.33428  -0.31286  -0.30374  -0.29630  -0.28522
 Alpha  occ. eigenvalues --   -0.27886  -0.27023  -0.25970  -0.25108  -0.24258
 Alpha  occ. eigenvalues --   -0.23148  -0.22215  -0.21373  -0.18467  -0.17740
 Alpha  occ. eigenvalues --   -0.14645   0.03921
 Alpha virt. eigenvalues --    0.05287   0.06414   0.06576   0.06949   0.07825
 Alpha virt. eigenvalues --    0.08054   0.08181   0.09286   0.09771   0.10245
 Alpha virt. eigenvalues --    0.11048   0.11362   0.11968   0.12578   0.12993

  Beta  occ. eigenvalues --  -88.97021 -19.07246 -19.02491 -19.02453 -14.24830
  Beta  occ. eigenvalues --  -10.15541 -10.13884 -10.13142 -10.10946 -10.09707
  Beta  occ. eigenvalues --  -10.09685 -10.09247 -10.09100 -10.08893 -10.07139
  Beta  occ. eigenvalues --   -8.03227  -5.99516  -5.99477  -5.99292  -1.02673
  Beta  occ. eigenvalues --   -0.98909  -0.91751  -0.83873  -0.77423  -0.70579
  Beta  occ. eigenvalues --   -0.67413  -0.66922  -0.65554  -0.60781  -0.54562
  Beta  occ. eigenvalues --   -0.53088  -0.52723  -0.49639  -0.46258  -0.43491
  Beta  occ. eigenvalues --   -0.41539  -0.40556  -0.40314  -0.39030  -0.38177
  Beta  occ. eigenvalues --   -0.37018  -0.36237  -0.34666  -0.34446  -0.34219
  Beta  occ. eigenvalues --   -0.33382  -0.31251  -0.30334  -0.29601  -0.28494
  Beta  occ. eigenvalues --   -0.27856  -0.26980  -0.25948  -0.25080  -0.24241
  Beta  occ. eigenvalues --   -0.23134  -0.22186  -0.21349  -0.18446  -0.17730
  Beta  occ. eigenvalues --   -0.14636
  Beta virt. eigenvalues --    0.05704   0.06415   0.06576   0.07026   0.07658
  Beta virt. eigenvalues --    0.07827   0.08544   0.08641   0.10113   0.10361
  Beta virt. eigenvalues --    0.10629   0.11326   0.11812   0.12143   0.12750

 Mulliken charges and spin densities:
               1          2
     1  C    1.423666  -1.861621
     2  C   -2.829634   1.550401
     3  C    1.573958  -1.443675
     4  O   -0.011236   0.005745
     5  C   -0.421473   0.311332
     6  C    1.004828  -0.834119
     7  C   -0.369558   0.085111
     8  C    0.921164  -1.221352
     9  C    0.067900  -0.167448
    10  C   -1.085320   1.063116
    11  N   -0.075923   0.051101
    12  S    0.219662   0.026827
    13  O   -0.196246   0.034823
    14  O   -0.204250   0.003192
    15  C    0.893964  -1.379074
    16  H   -0.001242   0.169934
    17  H   -0.383832   0.565672
    18  H   -0.202357   0.343027
    19  H   -0.172525   0.422623
    20  H    0.182843  -0.000825
    21  H   -0.178835   0.367444
    22  H    0.113624   0.057578
    23  H   -0.308307   0.488996
    24  H   -0.118343   0.259607
    25  H   -0.156362   0.323390
    26  H    0.000356   0.149390
    27  H    0.323361  -0.004479
    28  H   -0.326741   0.532904
    29  H   -0.582408   0.795740
    30  H   -0.100734   0.304639
 Sum of Mulliken charges =  -1.00000   1.00000

 Dipole moment (field-independent basis, Debye):
    X=              4.1620    Y=             -1.3204    Z=              0.9790  Tot=              4.4749
 Quadrupole moment (field-independent basis, Debye-Ang):
   XX=           -192.0809   YY=           -146.4647   ZZ=           -129.5087
   XY=              9.6828   XZ=              1.4106   YZ=              2.1943

 Summary of Natural Population Analysis:

                                       Natural Population
                Natural  -----------------------------------------------
    Atom  No    Charge         Core      Valence    Rydberg      Total
 -----------------------------------------------------------------------
      C    1   -0.28677      0.99964     2.27998    0.00715     3.28677
      C    2   -0.02693      0.99959     2.01195    0.01539     3.02693
      C    3   -0.01994      0.99953     2.00796    0.01245     3.01994
      O    4   -0.28429      0.99985     3.27481    0.00963     4.28429
      C    5    0.16477      0.99938     1.82358    0.01227     2.83523
      C    6   -0.14279      0.99952     2.13450    0.00878     3.14279
      C    7   -0.09018      0.99957     2.08098    0.00962     3.09018
      C    8   -0.11950      0.99956     2.10973    0.01021     3.11950
      C    9   -0.09517      0.99957     2.08578    0.00982     3.09517
      C   10   -0.12040      0.99952     2.11133    0.00955     3.12040
      N   11   -0.44089      0.99974     2.92716    0.01399     3.94089
      S   12    1.09341      4.99934     1.80790    0.09935     6.90659
      O   13   -0.46713      0.99991     3.46166    0.00556     4.46713
      O   14   -0.46572      0.99991     3.46022    0.00560     4.46572
      C   15   -0.38616      0.99961     2.37667    0.00988     3.38616
      H   16    0.10207      0.00000     0.39649    0.00143     0.39793
      H   17    0.10794      0.00000     0.39036    0.00169     0.39206
      H   18    0.10292      0.00000     0.39574    0.00133     0.39708
      H   19    0.11081      0.00000     0.38719    0.00199     0.38919
      H   20    0.09908      0.00000     0.39921    0.00171     0.40092
      H   21    0.09012      0.00000     0.40851    0.00137     0.40988
      H   22    0.10825      0.00000     0.39057    0.00118     0.39175
      H   23    0.10136      0.00000     0.39763    0.00101     0.39864
      H   24    0.10144      0.00000     0.39752    0.00104     0.39856
      H   25    0.10079      0.00000     0.39833    0.00087     0.39921
      H   26    0.10674      0.00000     0.39216    0.00110     0.39326
      H   27    0.20216      0.00000     0.29536    0.00247     0.29784
      H   28    0.11808      0.00000     0.38048    0.00143     0.38192
      H   29    0.12032      0.00000     0.37679    0.00288     0.37968
      H   30    0.11559      0.00000     0.38341    0.00100     0.38441
 =======================================================================
   * Total *   -0.00000     18.99424    41.74399    0.26177    61.00000

 Normal termination of Gaussian 16 at Thu Dec 10 16:46:32 2020.
