 Gaussian 16, Revision A.03,

 -----------------------------------------------------------
 # opt freq B3LYP/6-31G(d) empiricaldispersion=gd3bj scf=xqc
 -----------------------------------------------------------

 ------------------------------
 CID_21708965_JID_2763_neutraal
 ------------------------------
 Symbolic Z-matrix:
 Charge =  0 Multiplicity = 1

 SCF Done:  E(RB3LYP) =  -575.683430407     A.U. after   14 cycles
 SCF Done:  E(RB3LYP) =  -575.687860922     A.U. after   12 cycles
 SCF Done:  E(RB3LYP) =  -575.687696032     A.U. after   14 cycles
 SCF Done:  E(RB3LYP) =  -575.689415820     A.U. after   12 cycles
 SCF Done:  E(RB3LYP) =  -575.690141320     A.U. after   12 cycles
 SCF Done:  E(RB3LYP) =  -575.690376781     A.U. after   11 cycles
 SCF Done:  E(RB3LYP) =  -575.690394622     A.U. after   12 cycles
 SCF Done:  E(RB3LYP) =  -575.690551827     A.U. after   10 cycles
 SCF Done:  E(RB3LYP) =  -575.690672554     A.U. after   11 cycles
 SCF Done:  E(RB3LYP) =  -575.690736237     A.U. after   12 cycles
 SCF Done:  E(RB3LYP) =  -575.691799710     A.U. after   11 cycles
 SCF Done:  E(RB3LYP) =  -575.691839300     A.U. after    9 cycles
 SCF Done:  E(RB3LYP) =  -575.691840583     A.U. after   10 cycles
 SCF Done:  E(RB3LYP) =  -575.691845351     A.U. after    9 cycles
 SCF Done:  E(RB3LYP) =  -575.691845589     A.U. after    7 cycles
 SCF Done:  E(RB3LYP) =  -575.691845611     A.U. after    7 cycles
 Optimization completed.
    -- Stationary point found.
 Normal termination of Gaussian 16 at Wed Dec  9 18:21:23 2020.

 --------------------------------------------------------------------
 #N Geom=AllCheck Guess=TCheck SCRF=Check GenChk RB3LYP/6-31G(d) Freq
 --------------------------------------------------------------------

 Structure from the checkpoint file:  "JID_2763.chk"
 ------------------------------
 CID_21708965_JID_2763_neutraal
 ------------------------------
 Charge =  0 Multiplicity = 1

 SCF Done:  E(RB3LYP) =  -575.691845611     A.U. after    1 cycles

  Exact polarizability: 106.350  -3.454 107.543  -1.421  -2.642  94.715
 Approx polarizability: 131.599  -5.641 151.077  -0.148 -10.519 146.415

                      1                      2                      3
                      A                      A                      A
 Frequencies --     36.7704                57.5484                62.8300
 Red. masses --      3.1481                 4.0624                 3.6956
 Frc consts  --      0.0025                 0.0079                 0.0086
 IR Inten    --      0.9430                 1.2674                 2.3545

                      4                      5                      6
                      A                      A                      A
 Frequencies --    110.7697               141.8412               147.1920
 Red. masses --      3.2991                 3.8277                 2.2082
 Frc consts  --      0.0239                 0.0454                 0.0282
 IR Inten    --      0.7103                 2.8935                 2.1326

                      7                      8                      9
                      A                      A                      A
 Frequencies --    154.4919               208.6617               223.6360
 Red. masses --      1.4666                 1.0738                 2.7879
 Frc consts  --      0.0206                 0.0275                 0.0822
 IR Inten    --      4.8804                 0.0721                 1.8926

                     10                     11                     12
                      A                      A                      A
 Frequencies --    261.0930               265.0616               272.9716
 Red. masses --      1.0598                 1.8606                 1.2194
 Frc consts  --      0.0426                 0.0770                 0.0535
 IR Inten    --      0.4904                 1.2355                 0.1714

                     13                     14                     15
                      A                      A                      A
 Frequencies --    286.9334               314.1342               330.1784
 Red. masses --      1.6221                 1.6099                 2.6457
 Frc consts  --      0.0787                 0.0936                 0.1699
 IR Inten    --     24.7504                34.1616                 1.9803

                     16                     17                     18
                      A                      A                      A
 Frequencies --    340.2247               357.8778               389.5336
 Red. masses --      2.9128                 2.7266                 2.5814
 Frc consts  --      0.1987                 0.2057                 0.2308
 IR Inten    --     11.8499                 2.1064                 3.0958

                     19                     20                     21
                      A                      A                      A
 Frequencies --    454.0587               479.6372               512.0623
 Red. masses --      2.6474                 2.6945                 3.0723
 Frc consts  --      0.3216                 0.3652                 0.4746
 IR Inten    --      4.9908                 2.8620                 0.2783

                     22                     23                     24
                      A                      A                      A
 Frequencies --    550.9257               562.5846               605.7208
 Red. masses --      1.2476                 3.9419                 4.0748
 Frc consts  --      0.2231                 0.7351                 0.8809
 IR Inten    --    101.4041                19.7908                 4.2240

                     25                     26                     27
                      A                      A                      A
 Frequencies --    743.9704               766.9644               782.3803
 Red. masses --      3.9121                 3.3397                 4.7667
 Frc consts  --      1.2758                 1.1575                 1.7191
 IR Inten    --     16.1943                 6.6864                14.6332

                     28                     29                     30
                      A                      A                      A
 Frequencies --    896.7190               922.3379               935.3445
 Red. masses --      2.9752                 1.6705                 1.6125
 Frc consts  --      1.4096                 0.8373                 0.8312
 IR Inten    --     21.4052                 0.4277                 0.2821

                     31                     32                     33
                      A                      A                      A
 Frequencies --    952.7228               973.4139              1020.9754
 Red. masses --      1.6529                 1.2020                 1.8334
 Frc consts  --      0.8840                 0.6711                 1.1260
 IR Inten    --    158.4573                 0.4537                 1.9092

                     34                     35                     36
                      A                      A                      A
 Frequencies --   1043.6803              1059.3001              1064.2621
 Red. masses --      2.1972                 1.3950                 1.4074
 Frc consts  --      1.4101                 0.9223                 0.9392
 IR Inten    --     71.1923                 3.0046                 0.3854

                     37                     38                     39
                      A                      A                      A
 Frequencies --   1072.0393              1124.5119              1158.2284
 Red. masses --      1.8487                 4.7900                 2.0818
 Frc consts  --      1.2518                 3.5688                 1.6455
 IR Inten    --     18.6883               124.1216                16.1865

                     40                     41                     42
                      A                      A                      A
 Frequencies --   1166.7956              1213.5744              1229.5763
 Red. masses --      1.3050                 2.1033                 1.7369
 Frc consts  --      1.0468                 1.8251                 1.5472
 IR Inten    --     12.0155                 9.7154                32.9668

                     43                     44                     45
                      A                      A                      A
 Frequencies --   1250.8146              1267.6723              1275.8859
 Red. masses --      1.8725                 1.4891                 2.2864
 Frc consts  --      1.7261                 1.4099                 2.1930
 IR Inten    --     70.7092                19.0338                19.8735

                     46                     47                     48
                      A                      A                      A
 Frequencies --   1298.9669              1323.8629              1392.0384
 Red. masses --      2.6473                 1.4785                 1.6088
 Frc consts  --      2.6318                 1.5268                 1.8368
 IR Inten    --      8.7254                71.3446                46.3584

                     49                     50                     51
                      A                      A                      A
 Frequencies --   1410.2123              1427.8207              1429.4526
 Red. masses --      1.2973                 1.2714                 1.3000
 Frc consts  --      1.5201                 1.5271                 1.5651
 IR Inten    --      5.8535                13.8427                 9.6955

                     52                     53                     54
                      A                      A                      A
 Frequencies --   1453.6272              1455.5232              1480.3518
 Red. masses --      1.2786                 1.3286                 1.7250
 Frc consts  --      1.5918                 1.6584                 2.2273
 IR Inten    --      9.2325                 3.8701                19.9824

                     55                     56                     57
                      A                      A                      A
 Frequencies --   1496.1378              1503.7477              1512.6870
 Red. masses --      1.3191                 1.0706                 1.0484
 Frc consts  --      1.7397                 1.4263                 1.4134
 IR Inten    --     19.4997                 3.4865                 2.0454

                     58                     59                     60
                      A                      A                      A
 Frequencies --   1516.9412              1524.8902              1529.0679
 Red. masses --      1.0465                 1.0746                 1.0820
 Frc consts  --      1.4189                 1.4722                 1.4906
 IR Inten    --      0.0439                 0.6108                 8.6647

                     61                     62                     63
                      A                      A                      A
 Frequencies --   1531.8527              1545.7332              1547.6938
 Red. masses --      1.0691                 1.0731                 1.0601
 Frc consts  --      1.4781                 1.5106                 1.4962
 IR Inten    --      3.5347                 6.3030                12.0624

                     64                     65                     66
                      A                      A                      A
 Frequencies --   1558.4896              1709.6799              1770.4739
 Red. masses --      1.0660                 1.0899                 7.4467
 Frc consts  --      1.5254                 1.8770                13.7528
 IR Inten    --     16.6140                38.5314               257.2716

                     67                     68                     69
                      A                      A                      A
 Frequencies --   3038.3564              3045.8442              3054.7716
 Red. masses --      1.0478                 1.0540                 1.0354
 Frc consts  --      5.6992                 5.7611                 5.6927
 IR Inten    --     61.2780                24.0597                31.8675

                     70                     71                     72
                      A                      A                      A
 Frequencies --   3056.6555              3064.7935              3086.2490
 Red. masses --      1.0352                 1.0375                 1.0976
 Frc consts  --      5.6984                 5.7418                 6.1596
 IR Inten    --     14.7152                 5.6658                 9.9555

                     73                     74                     75
                      A                      A                      A
 Frequencies --   3103.9518              3121.2747              3123.6416
 Red. masses --      1.0957                 1.0891                 1.1020
 Frc consts  --      6.2199                 6.2516                 6.3351
 IR Inten    --     41.4257                18.4363                 4.6324

                     76                     77                     78
                      A                      A                      A
 Frequencies --   3126.2803              3129.0116              3132.7469
 Red. masses --      1.1023                 1.1034                 1.1017
 Frc consts  --      6.3478                 6.3652                 6.3703
 IR Inten    --      4.8251                 9.8283                56.8250

                     79                     80                     81
                      A                      A                      A
 Frequencies --   3135.8275              3140.7904              3165.0382
 Red. masses --      1.1024                 1.1020                 1.1039
 Frc consts  --      6.3870                 6.4051                 6.5155
 IR Inten    --     58.2862                28.4499                 2.9178

                     82                     83                     84
                      A                      A                      A
 Frequencies --   3448.4817              3534.2537              3599.7930
 Red. masses --      1.0508                 1.0901                 1.0762
 Frc consts  --      7.3624                 8.0225                 8.2170
 IR Inten    --      4.8252                 2.2587                17.7693

 - Thermochemistry -
 -------------------
 Temperature   298.150 Kelvin.  Pressure   1.00000 Atm.
 Atom     1 has atomic number  6 and mass  12.00000

 Molecular mass:   174.13683 amu.
 Principal axes and moments of inertia in atomic units:
                           1         2         3
     Eigenvalues --  1445.113852774.304803220.26839
           X            0.99977   0.00639  -0.02038
           Y           -0.00694   0.99960  -0.02736
           Z            0.02020   0.02750   0.99942
 This molecule is an asymmetric top.
 Rotational symmetry number  1.
 Warning -- assumption of classical behavior for rotation
           may cause significant error
 Rotational temperatures (Kelvin)      0.05994     0.03122     0.02690
 Rotational constants (GHZ):           1.24886     0.65052     0.56043
 Zero-point vibrational energy     703254.2 (Joules/Mol)
                                  168.08179 (Kcal/Mol)
 Warning -- explicit consideration of  24 degrees of freedom as
           vibrations may cause significant error
 Vibrational temperatures:     52.90    82.80    90.40   159.37   204.08
          (Kelvin)            211.78   222.28   300.22   321.76   375.65
                              381.36   392.75   412.83   451.97   475.05
                              489.51   514.91   560.45   653.29   690.09
                              736.74   792.66   809.43   871.50  1070.41
                             1103.49  1125.67  1290.18  1327.04  1345.75
                             1370.76  1400.53  1468.96  1501.62  1524.10
                             1531.24  1542.43  1617.92  1666.43  1678.76
                             1746.06  1769.09  1799.64  1823.90  1835.72
                             1868.92  1904.74  2002.83  2028.98  2054.32
                             2056.66  2091.45  2094.17  2129.90  2152.61
                             2163.56  2176.42  2182.54  2193.98  2199.99
                             2203.99  2223.97  2226.79  2242.32  2459.85
                             2547.32  4371.52  4382.29  4395.13  4397.85
                             4409.55  4440.42  4465.89  4490.82  4494.22
                             4498.02  4501.95  4507.32  4511.76  4518.90
                             4553.78  4961.60  5085.00  5179.30

 Zero-point correction=                           0.267855 (Hartree/Particle)
 Thermal correction to Energy=                    0.282710
 Thermal correction to Enthalpy=                  0.283654
 Thermal correction to Gibbs Free Energy=         0.226541
 Sum of electronic and zero-point Energies=           -575.423990
 Sum of electronic and thermal Energies=              -575.409136
 Sum of electronic and thermal Enthalpies=            -575.408192
 Sum of electronic and thermal Free Energies=         -575.465305

                     E (Thermal)             CV                S
                      KCal/Mol        Cal/Mol-Kelvin    Cal/Mol-Kelvin
 Total                  177.403             54.446            120.204
 Electronic               0.000              0.000              0.000
 Translational            0.889              2.981             41.371
 Rotational               0.889              2.981             30.935
 Vibrational            175.625             48.484             47.898
 Vibration     1          0.594              1.982              5.426
 Vibration     2          0.596              1.974              4.540
 Vibration     3          0.597              1.972              4.366
 Vibration     4          0.607              1.941              3.255
 Vibration     5          0.615              1.911              2.779
 Vibration     6          0.617              1.906              2.708
 Vibration     7          0.620              1.898              2.616
 Vibration     8          0.642              1.827              2.055
 Vibration     9          0.649              1.805              1.929
 Vibration    10          0.669              1.744              1.654
 Vibration    11          0.671              1.737              1.628
 Vibration    12          0.676              1.723              1.577
 Vibration    13          0.684              1.698              1.492
 Vibration    14          0.702              1.647              1.340
 Vibration    15          0.713              1.615              1.259
 Vibration    16          0.720              1.595              1.211
 Vibration    17          0.733              1.559              1.131
 Vibration    18          0.757              1.493              1.002
 Vibration    19          0.813              1.352              0.784
 Vibration    20          0.836              1.295              0.711
 Vibration    21          0.867              1.223              0.629
 Vibration    22          0.906              1.138              0.542
 Vibration    23          0.918              1.112              0.519
 Vibration    24          0.964              1.020              0.440

 Optimization completed.
    -- Stationary point found.
 Normal termination of Gaussian 16 at Wed Dec  9 18:30:03 2020.

 ----------------------------------------------------------------------
 # B3LYP/6-311++G(d,p) empiricaldispersion=gd3bj scf=xqc pop=npa geom=c
 heck
 ----------------------------------------------------------------------

 --------------------------------------
 CID_21708965_JID_2763_Energie_neutraal
 --------------------------------------
 Structure from the checkpoint file:  "JID_2763.chk"
 Charge =  0 Multiplicity = 1

 SCF Done:  E(RB3LYP) =  -575.872633846     A.U. after   15 cycles
 Normal termination of Gaussian 16 at Wed Dec  9 18:34:01 2020.

 ----------------------------------------------------------------------
 # B3LYP/6-311++G(d,p) empiricaldispersion=gd3bj scf=xqc pop=npa geom=c
 heck
 ----------------------------------------------------------------------

 ------------------------------------
 CID_21708965_JID_2763_Energie_kation
 ------------------------------------
 Structure from the checkpoint file:  "JID_2763.chk"
 Charge =  1 Multiplicity = 2

 SCF Done:  E(UB3LYP) =  -575.550100397     A.U. after   27 cycles
 Normal termination of Gaussian 16 at Wed Dec  9 18:43:51 2020.
 Gaussian 16:  ES64L-G16RevA.03 25-Dec-2016

 ----------------------------------------------------------------------
 # B3LYP/6-311++G(d,p) empiricaldispersion=gd3bj scf=xqc pop=npa geom=c
 heck
 ----------------------------------------------------------------------

 -----------------------------------
 CID_21708965_JID_2763_Energie_anion
 -----------------------------------
 Structure from the checkpoint file:  "JID_2763.chk"
 Charge = -1 Multiplicity = 2

                         Standard orientation:
 ---------------------------------------------------------------------
 Center     Atomic      Atomic             Coordinates (Angstroms)
 Number     Number       Type             X           Y           Z
 ---------------------------------------------------------------------
      1          6           0       -2.755398    1.190570   -0.449843
      2          6           0       -2.000857   -0.027722    0.084815
      3          6           0       -1.593125    0.200487    1.546258
      4          6           0       -2.856945   -1.291041   -0.070859
      5          8           0       -0.829360   -0.098168   -0.757532
      6          6           0        0.034581   -1.214756   -0.614582
      7          6           0        1.494099   -0.741979   -0.656060
      8          6           0        1.738956    0.208812    0.530161
      9          8           0        1.975933   -0.260667    1.643056
     10          7           0        1.683826    1.550557    0.319153
     11          6           0        1.336537    2.239695   -0.915881
     12          7           0        2.352241   -1.924907   -0.578011
     13          1           0       -3.673842    1.359237    0.121856
     14          1           0       -3.018683    1.042865   -1.501970
     15          1           0       -2.130335    2.086252   -0.373151
     16          1           0       -2.481788    0.291141    2.180530
     17          1           0       -0.983704   -0.619486    1.937137
     18          1           0       -1.006874    1.120293    1.631802
     19          1           0       -3.097496   -1.457424   -1.126170
     20          1           0       -2.343168   -2.179161    0.310648
     21          1           0       -3.794494   -1.186511    0.485599
     22          1           0       -0.121098   -1.736562    0.336728
     23          1           0       -0.124592   -1.935027   -1.426138
     24          1           0        1.670903   -0.240686   -1.612137
     25          1           0        1.862913    2.100470    1.149672
     26          1           0        0.455357    1.782145   -1.368891
     27          1           0        1.100216    3.278764   -0.673566
     28          1           0        2.164207    2.240520   -1.637552
     29          1           0        3.301858   -1.666113   -0.842252
     30          1           0        2.408474   -2.173977    0.411607
 ---------------------------------------------------------------------

 SCF Done:  E(UB3LYP) =  -575.859269171     A.U. after   30 cycles

 The electronic state is 2-A.
 Alpha  occ. eigenvalues --  -19.02224 -18.98728 -14.23543 -14.20224 -10.16761
 Alpha  occ. eigenvalues --  -10.13384 -10.11905 -10.10956 -10.09302 -10.06528
 Alpha  occ. eigenvalues --  -10.05670 -10.05621  -0.94070  -0.93245  -0.81828
 Alpha  occ. eigenvalues --   -0.79700  -0.70553  -0.63322  -0.60181  -0.59706
 Alpha  occ. eigenvalues --   -0.59114  -0.54514  -0.47371  -0.45577  -0.42242
 Alpha  occ. eigenvalues --   -0.39489  -0.38688  -0.38212  -0.36880  -0.35202
 Alpha  occ. eigenvalues --   -0.34464  -0.33366  -0.32524  -0.31157  -0.30692
 Alpha  occ. eigenvalues --   -0.29369  -0.29135  -0.28290  -0.27588  -0.26945
 Alpha  occ. eigenvalues --   -0.26574  -0.24901  -0.24426  -0.20698  -0.17429
 Alpha  occ. eigenvalues --   -0.16528  -0.15308  -0.14954   0.04447
 Alpha virt. eigenvalues --    0.06389   0.07158   0.08189   0.08677   0.09210
 Alpha virt. eigenvalues --    0.09895   0.10151   0.10499   0.11224   0.11811
 Alpha virt. eigenvalues --    0.12187   0.12688   0.13511   0.13997   0.14790

  Beta  occ. eigenvalues --  -19.02218 -18.98724 -14.23522 -14.20211 -10.16763
  Beta  occ. eigenvalues --  -10.13382 -10.11898 -10.10941 -10.09244 -10.06503
  Beta  occ. eigenvalues --  -10.05640 -10.05600  -0.94061  -0.93237  -0.81790
  Beta  occ. eigenvalues --   -0.79677  -0.70534  -0.63291  -0.60097  -0.59656
  Beta  occ. eigenvalues --   -0.59066  -0.54469  -0.47327  -0.45537  -0.42215
  Beta  occ. eigenvalues --   -0.39450  -0.38613  -0.38174  -0.36856  -0.35166
  Beta  occ. eigenvalues --   -0.34438  -0.33324  -0.32494  -0.31130  -0.30662
  Beta  occ. eigenvalues --   -0.29308  -0.29106  -0.28256  -0.27565  -0.26918
  Beta  occ. eigenvalues --   -0.26546  -0.24875  -0.24400  -0.20673  -0.17416
  Beta  occ. eigenvalues --   -0.16516  -0.15287  -0.14936
  Beta virt. eigenvalues --    0.06705   0.07358   0.08107   0.08635   0.09344
  Beta virt. eigenvalues --    0.09825   0.10312   0.10359   0.10732   0.11534
  Beta virt. eigenvalues --    0.12312   0.12598   0.13033   0.13768   0.14268

 Mulliken charges and spin densities:
               1          2
     1  C    0.614717  -1.020644
     2  C   -1.191042   1.111134
     3  C    0.421679  -0.911395
     4  C    0.059704  -0.530587
     5  O    0.023363  -0.010145
     6  C    0.143884  -0.285433
     7  C    0.194668  -0.665137
     8  C   -0.155558   0.027157
     9  O   -0.347432   0.023779
    10  N   -0.509498   0.338109
    11  C    1.618753  -1.973265
    12  N   -0.237045   0.023516
    13  H   -0.178911   0.316270
    14  H   -0.084051   0.237011
    15  H   -0.219992   0.373628
    16  H   -0.210074   0.376344
    17  H    0.090358   0.053692
    18  H    0.107907   0.054080
    19  H    0.005724   0.148917
    20  H   -0.067021   0.194705
    21  H   -0.161904   0.316095
    22  H    0.192286  -0.005312
    23  H    0.095088   0.081089
    24  H   -0.088942   0.294141
    25  H   -0.160337   0.470146
    26  H    0.082151   0.121556
    27  H   -0.756293   0.913843
    28  H   -0.532241   0.702298
    29  H    0.038457   0.203407
    30  H    0.211604   0.021001
 Sum of Mulliken charges =  -1.00000   1.00000

 Dipole moment (field-independent basis, Debye):
    X=             -0.4915    Y=             -5.2091    Z=              0.3923  Tot=              5.2470
 Quadrupole moment (field-independent basis, Debye-Ang):
   XX=           -132.4672   YY=           -128.7969   ZZ=           -113.6382
   XY=             -3.6560   XZ=              3.7896   YZ=              2.4677

 Summary of Natural Population Analysis:

                                       Natural Population
                Natural  -----------------------------------------------
    Atom  No    Charge         Core      Valence    Rydberg      Total
 -----------------------------------------------------------------------
      C    1   -0.28757      0.99960     2.28052    0.00744     3.28757
      C    2    0.13534      0.99955     1.85016    0.01496     2.86466
      C    3   -0.30118      0.99960     2.29453    0.00705     3.30118
      C    4   -0.29990      0.99961     2.29410    0.00620     3.29990
      O    5   -0.31962      0.99986     3.30844    0.01132     4.31962
      C    6   -0.00707      0.99954     1.99556    0.01197     3.00707
      C    7   -0.06005      0.99957     2.04785    0.01264     3.06005
      C    8    0.33678      0.99965     1.63802    0.02556     2.66322
      O    9   -0.33967      0.99988     3.33405    0.00574     4.33967
      N   10   -0.31013      0.99967     2.79807    0.01239     3.81013
      C   11   -0.18580      0.99963     2.17747    0.00870     3.18580
      N   12   -0.41999      0.99977     2.91035    0.00987     3.91999
      H   13    0.09974      0.00000     0.39912    0.00114     0.40026
      H   14    0.10165      0.00000     0.39718    0.00117     0.39835
      H   15    0.10582      0.00000     0.39261    0.00157     0.39418
      H   16    0.10140      0.00000     0.39766    0.00094     0.39860
      H   17    0.10323      0.00000     0.39583    0.00094     0.39677
      H   18    0.10703      0.00000     0.39152    0.00146     0.39297
      H   19    0.10251      0.00000     0.39663    0.00086     0.39749
      H   20    0.09936      0.00000     0.39976    0.00088     0.40064
      H   21    0.10397      0.00000     0.39509    0.00094     0.39603
      H   22    0.08575      0.00000     0.41265    0.00160     0.41425
      H   23    0.08809      0.00000     0.41049    0.00142     0.41191
      H   24    0.10129      0.00000     0.39680    0.00192     0.39871
      H   25    0.19521      0.00000     0.30168    0.00311     0.30479
      H   26    0.10867      0.00000     0.38905    0.00229     0.39133
      H   27    0.10461      0.00000     0.39176    0.00363     0.39539
      H   28    0.09260      0.00000     0.40466    0.00274     0.40740
      H   29    0.17601      0.00000     0.32251    0.00147     0.32399
      H   30    0.18195      0.00000     0.31600    0.00205     0.31805
 =======================================================================
   * Total *    0.00000     11.99592    35.84010    0.16398    48.00000

 Normal termination of Gaussian 16 at Wed Dec  9 18:54:44 2020.
