 Gaussian 16, Revision A.03,

 -----------------------------------------------------------
 # opt freq B3LYP/6-31G(d) empiricaldispersion=gd3bj scf=xqc
 -----------------------------------------------------------

 -------------------------------
 CID_146791873_JID_1880_neutraal
 -------------------------------
 Symbolic Z-matrix:
 Charge =  0 Multiplicity = 1

 SCF Done:  E(RB3LYP) =  -445.963634393     A.U. after   16 cycles
 SCF Done:  E(RB3LYP) =  -445.995320690     A.U. after   14 cycles
 SCF Done:  E(RB3LYP) =  -446.009795307     A.U. after   14 cycles
 SCF Done:  E(RB3LYP) =  -446.016388351     A.U. after   13 cycles
 SCF Done:  E(RB3LYP) =  -446.019115057     A.U. after   13 cycles
 SCF Done:  E(RB3LYP) =  -446.020137852     A.U. after   11 cycles
 SCF Done:  E(RB3LYP) =  -446.020674154     A.U. after   11 cycles
 SCF Done:  E(RB3LYP) =  -446.021142155     A.U. after   12 cycles
 SCF Done:  E(RB3LYP) =  -446.021710139     A.U. after   11 cycles
 SCF Done:  E(RB3LYP) =  -446.022177656     A.U. after   12 cycles
 SCF Done:  E(RB3LYP) =  -446.022265881     A.U. after   10 cycles
 SCF Done:  E(RB3LYP) =  -446.022276069     A.U. after   10 cycles
 SCF Done:  E(RB3LYP) =  -446.022276972     A.U. after    8 cycles
 SCF Done:  E(RB3LYP) =  -446.022277188     A.U. after    7 cycles
 SCF Done:  E(RB3LYP) =  -446.022277253     A.U. after    7 cycles
 Optimization completed.
    -- Stationary point found.
 Normal termination of Gaussian 16 at Tue Dec  8 21:30:14 2020.

 --------------------------------------------------------------------
 #N Geom=AllCheck Guess=TCheck SCRF=Check GenChk RB3LYP/6-31G(d) Freq
 --------------------------------------------------------------------

 Structure from the checkpoint file:  "JID_1880.chk"
 -------------------------------
 CID_146791873_JID_1880_neutraal
 -------------------------------
 Charge =  0 Multiplicity = 1

 SCF Done:  E(RB3LYP) =  -446.022277253     A.U. after    1 cycles

  Exact polarizability: 139.010  -9.770 106.286  -7.952   5.493  91.354
 Approx polarizability: 196.787 -20.295 146.078 -24.257  15.720 147.842

                      1                      2                      3
                      A                      A                      A
 Frequencies --     72.3135                94.9010               112.2831
 Red. masses --      2.7895                 2.7861                 2.7924
 Frc consts  --      0.0086                 0.0148                 0.0207
 IR Inten    --      0.5762                 4.1371                 0.7944

                      4                      5                      6
                      A                      A                      A
 Frequencies --    174.4642               201.6628               209.8066
 Red. masses --      1.3113                 1.5972                 1.6046
 Frc consts  --      0.0235                 0.0383                 0.0416
 IR Inten    --      0.2328                 3.0533                 1.1162

                      7                      8                      9
                      A                      A                      A
 Frequencies --    229.9800               247.5024               262.7008
 Red. masses --      1.9449                 1.1607                 1.7318
 Frc consts  --      0.0606                 0.0419                 0.0704
 IR Inten    --      2.0274                 0.8121                 2.1115

                     10                     11                     12
                      A                      A                      A
 Frequencies --    297.7821               308.4378               378.0720
 Red. masses --      2.0810                 2.8733                 3.0013
 Frc consts  --      0.1087                 0.1611                 0.2528
 IR Inten    --      2.7992                 2.4128                 9.0702

                     13                     14                     15
                      A                      A                      A
 Frequencies --    413.0193               425.8382               466.5552
 Red. masses --      2.4547                 3.4823                 2.6752
 Frc consts  --      0.2467                 0.3721                 0.3431
 IR Inten    --      1.0958                 3.8954                 0.8676

                     16                     17                     18
                      A                      A                      A
 Frequencies --    483.5124               592.5181               641.8868
 Red. masses --      3.0765                 3.4862                 3.8267
 Frc consts  --      0.4238                 0.7211                 0.9290
 IR Inten    --      0.4604                 4.6492                 4.4144

                     19                     20                     21
                      A                      A                      A
 Frequencies --    652.8505               703.9518               797.5211
 Red. masses --      4.5742                 2.8494                 1.3948
 Frc consts  --      1.1487                 0.8319                 0.5227
 IR Inten    --     48.8628                14.2874                 6.1696

                     22                     23                     24
                      A                      A                      A
 Frequencies --    807.1797               872.1859               895.5630
 Red. masses --      1.9046                 1.9264                 2.4205
 Frc consts  --      0.7311                 0.8634                 1.1438
 IR Inten    --      3.5130                 3.5852                 0.5619

                     25                     26                     27
                      A                      A                      A
 Frequencies --    916.7967               956.8179               995.7209
 Red. masses --      2.0445                 2.3056                 1.7716
 Frc consts  --      1.0125                 1.2436                 1.0349
 IR Inten    --      2.8959                 8.7729                 1.6712

                     28                     29                     30
                      A                      A                      A
 Frequencies --   1017.1336              1042.2587              1077.3408
 Red. masses --      1.7681                 2.4378                 2.0941
 Frc consts  --      1.0777                 1.5603                 1.4320
 IR Inten    --      0.7072                 6.5284                 0.8434

                     31                     32                     33
                      A                      A                      A
 Frequencies --   1082.3119              1118.2643              1126.3521
 Red. masses --      1.4986                 1.8270                 1.9136
 Frc consts  --      1.0343                 1.3461                 1.4304
 IR Inten    --     11.0034                22.0438                23.2364

                     34                     35                     36
                      A                      A                      A
 Frequencies --   1134.7364              1174.6891              1181.9363
 Red. masses --      1.3275                 1.5112                 1.4739
 Frc consts  --      1.0071                 1.2286                 1.2131
 IR Inten    --     12.0120                57.1392                 7.3483

                     37                     38                     39
                      A                      A                      A
 Frequencies --   1215.8976              1227.5720              1244.7649
 Red. masses --      1.6573                 1.6137                 1.4716
 Frc consts  --      1.4436                 1.4327                 1.3435
 IR Inten    --      1.3333                 7.8794                 7.2733

                     40                     41                     42
                      A                      A                      A
 Frequencies --   1284.3304              1305.2338              1331.1900
 Red. masses --      1.3958                 1.8891                 1.3221
 Frc consts  --      1.3565                 1.8962                 1.3804
 IR Inten    --      3.4100                 8.5422                 5.5919

                     43                     44                     45
                      A                      A                      A
 Frequencies --   1358.4020              1370.9024              1376.3143
 Red. masses --      1.5125                 1.5162                 1.6900
 Frc consts  --      1.6444                 1.6789                 1.8862
 IR Inten    --     14.2049                45.3020                 9.6747

                     46                     47                     48
                      A                      A                      A
 Frequencies --   1388.7501              1401.0157              1435.6681
 Red. masses --      1.4696                 1.5898                 1.2384
 Frc consts  --      1.6699                 1.8385                 1.5039
 IR Inten    --     18.7896                12.9592                 8.8076

                     49                     50                     51
                      A                      A                      A
 Frequencies --   1459.8341              1473.6360              1502.7925
 Red. masses --      1.4384                 1.4064                 1.1307
 Frc consts  --      1.8061                 1.7994                 1.5045
 IR Inten    --     17.6870                25.3239                 0.4078

                     52                     53                     54
                      A                      A                      A
 Frequencies --   1506.8580              1511.2087              1517.3859
 Red. masses --      1.0798                 1.1263                 1.0827
 Frc consts  --      1.4445                 1.5155                 1.4688
 IR Inten    --      6.6677                13.5198                 2.5679

                     55                     56                     57
                      A                      A                      A
 Frequencies --   1520.2486              1523.4615              1526.6799
 Red. masses --      1.1466                 1.0842                 1.0546
 Frc consts  --      1.5613                 1.4825                 1.4482
 IR Inten    --      4.9496                 6.1388                 8.6740

                     58                     59                     60
                      A                      A                      A
 Frequencies --   1530.7196              1533.0395              1551.1113
 Red. masses --      1.0627                 1.0484                 1.1863
 Frc consts  --      1.4671                 1.4517                 1.6817
 IR Inten    --      6.2919                14.6516                45.5312

                     61                     62                     63
                      A                      A                      A
 Frequencies --   1926.3760              2980.3932              2988.2456
 Red. masses --     10.6949                 1.0570                 1.0583
 Frc consts  --     23.3834                 5.5317                 5.5677
 IR Inten    --     72.7955                52.3076                96.3949

                     64                     65                     66
                      A                      A                      A
 Frequencies --   3012.7433              3036.4765              3038.3605
 Red. masses --      1.0594                 1.0829                 1.0936
 Frc consts  --      5.6655                 5.8827                 5.9485
 IR Inten    --     55.7931                19.6827                 9.7695

                     67                     68                     69
                      A                      A                      A
 Frequencies --   3040.6400              3046.3131              3050.6517
 Red. masses --      1.0589                 1.0416                 1.0678
 Frc consts  --      5.7683                 5.6953                 5.8547
 IR Inten    --     11.1370                64.7023                23.2139

                     70                     71                     72
                      A                      A                      A
 Frequencies --   3081.6279              3084.7571              3097.0305
 Red. masses --      1.1012                 1.1027                 1.0792
 Frc consts  --      6.1614                 6.1820                 6.0990
 IR Inten    --     41.9016                49.9757                23.6985

                     73                     74                     75
                      A                      A                      A
 Frequencies --   3101.8312              3111.0261              3123.6299
 Red. masses --      1.0755                 1.1017                 1.1025
 Frc consts  --      6.0969                 6.2824                 6.3377
 IR Inten    --     44.2141                37.9919                31.0080

                     76                     77                     78
                      A                      A                      A
 Frequencies --   3130.2844              3146.8399              3152.9510
 Red. masses --      1.0885                 1.1043                 1.0995
 Frc consts  --      6.2843                 6.4427                 6.4399
 IR Inten    --     55.5326                21.1968                22.9403

 - Thermochemistry -
 -------------------
 Temperature   298.150 Kelvin.  Pressure   1.00000 Atm.
 Atom     1 has atomic number  6 and mass  12.00000

 Molecular mass:   151.13610 amu.
 Principal axes and moments of inertia in atomic units:
                           1         2         3
     Eigenvalues --  1208.549391903.927232533.31994
           X            0.99999   0.00201   0.00444
           Y           -0.00193   0.99987  -0.01616
           Z           -0.00447   0.01615   0.99986
 This molecule is an asymmetric top.
 Rotational symmetry number  1.
 Warning -- assumption of classical behavior for rotation
           may cause significant error
 Rotational temperatures (Kelvin)      0.07167     0.04549     0.03419
 Rotational constants (GHZ):           1.49331     0.94790     0.71240
 Zero-point vibrational energy     666404.0 (Joules/Mol)
                                  159.27437 (Kcal/Mol)
 Warning -- explicit consideration of  17 degrees of freedom as
           vibrations may cause significant error
 Vibrational temperatures:    104.04   136.54   161.55   251.02   290.15
          (Kelvin)            301.86   330.89   356.10   377.97   428.44
                              443.77   543.96   594.24   612.69   671.27
                              695.67   852.50   923.53   939.31  1012.83
                             1147.45  1161.35  1254.88  1288.52  1319.07
                             1376.65  1432.62  1463.43  1499.58  1550.05
                             1557.21  1608.93  1620.57  1632.63  1690.12
                             1700.54  1749.41  1766.20  1790.94  1847.87
                             1877.94  1915.29  1954.44  1972.42  1980.21
                             1998.10  2015.75  2065.61  2100.38  2120.23
                             2162.18  2168.03  2174.29  2183.18  2187.30
                             2191.92  2196.55  2202.36  2205.70  2231.70
                             2771.63  4288.12  4299.42  4334.67  4368.81
                             4371.52  4374.80  4382.97  4389.21  4433.78
                             4438.28  4455.94  4462.84  4476.07  4494.21
                             4503.78  4527.60  4536.39

 Zero-point correction=                           0.253820 (Hartree/Particle)
 Thermal correction to Energy=                    0.265663
 Thermal correction to Enthalpy=                  0.266607
 Thermal correction to Gibbs Free Energy=         0.216988
 Sum of electronic and zero-point Energies=           -445.768457
 Sum of electronic and thermal Energies=              -445.756614
 Sum of electronic and thermal Enthalpies=            -445.755670
 Sum of electronic and thermal Free Energies=         -445.805290

                     E (Thermal)             CV                S
                      KCal/Mol        Cal/Mol-Kelvin    Cal/Mol-Kelvin
 Total                  166.706             45.380            104.434
 Electronic               0.000              0.000              0.000
 Translational            0.889              2.981             40.949
 Rotational               0.889              2.981             30.145
 Vibrational            164.929             39.418             33.339
 Vibration     1          0.598              1.967              4.089
 Vibration     2          0.603              1.953              3.556
 Vibration     3          0.607              1.939              3.229
 Vibration     4          0.627              1.874              2.387
 Vibration     5          0.639              1.838              2.118
 Vibration     6          0.642              1.826              2.045
 Vibration     7          0.652              1.795              1.879
 Vibration     8          0.661              1.767              1.748
 Vibration     9          0.670              1.741              1.644
 Vibration    10          0.691              1.678              1.429
 Vibration    11          0.698              1.658              1.371
 Vibration    12          0.748              1.517              1.047
 Vibration    13          0.777              1.442              0.916
 Vibration    14          0.788              1.414              0.872
 Vibration    15          0.824              1.324              0.747
 Vibration    16          0.840              1.287              0.701
 Vibration    17          0.950              1.048              0.463

 Optimization completed.
    -- Stationary point found.
 Normal termination of Gaussian 16 at Tue Dec  8 21:37:34 2020.

 ----------------------------------------------------------------------
 # B3LYP/6-311++G(d,p) empiricaldispersion=gd3bj scf=xqc pop=npa geom=c
 heck
 ----------------------------------------------------------------------

 ---------------------------------------
 CID_146791873_JID_1880_Energie_neutraal
 ---------------------------------------
 Structure from the checkpoint file:  "JID_1880.chk"
 Charge =  0 Multiplicity = 1

 SCF Done:  E(RB3LYP) =  -446.144297312     A.U. after   15 cycles
 Normal termination of Gaussian 16 at Tue Dec  8 21:40:50 2020.

 ----------------------------------------------------------------------
 # B3LYP/6-311++G(d,p) empiricaldispersion=gd3bj scf=xqc pop=npa geom=c
 heck
 ----------------------------------------------------------------------

 -------------------------------------
 CID_146791873_JID_1880_Energie_kation
 -------------------------------------
 Structure from the checkpoint file:  "JID_1880.chk"
 Charge =  1 Multiplicity = 2

 SCF Done:  E(UB3LYP) =  -445.882924233     A.U. after   22 cycles
 Normal termination of Gaussian 16 at Tue Dec  8 21:49:22 2020.
 Gaussian 16:  ES64L-G16RevA.03 25-Dec-2016

 ----------------------------------------------------------------------
 # B3LYP/6-311++G(d,p) empiricaldispersion=gd3bj scf=xqc pop=npa geom=c
 heck
 ----------------------------------------------------------------------

 ------------------------------------
 CID_146791873_JID_1880_Energie_anion
 ------------------------------------
 Structure from the checkpoint file:  "JID_1880.chk"
 Charge = -1 Multiplicity = 2

                         Standard orientation:
 ---------------------------------------------------------------------
 Center     Atomic      Atomic             Coordinates (Angstroms)
 Number     Number       Type             X           Y           Z
 ---------------------------------------------------------------------
      1          6           0       -0.246629    2.425760   -0.838306
      2          6           0        0.018416    1.324853    0.194866
      3          6           0        1.536593    1.218386    0.522823
      4          6           0        1.976889   -0.127983    1.150932
      5          6           0        2.448831   -1.165838    0.106356
      6          6           0        1.527108   -1.213681   -1.104307
      7          6           0        0.284516   -0.786923   -0.991204
      8          6           0       -0.510894   -0.051922   -0.205903
      9          7           0       -1.686082   -0.519034    0.380653
     10          6           0       -2.843499    0.368216    0.374454
     11          6           0       -2.007171   -1.903411    0.075829
     12          1           0        0.222002    2.161131   -1.792126
     13          1           0        0.172052    3.383070   -0.504942
     14          1           0       -1.317902    2.567314   -1.018689
     15          1           0       -0.495386    1.583686    1.129919
     16          1           0        2.111843    1.386035   -0.396446
     17          1           0        1.787868    2.047695    1.195606
     18          1           0        2.797783    0.043573    1.857496
     19          1           0        1.148332   -0.540917    1.739618
     20          1           0        3.445992   -0.874851   -0.255952
     21          1           0        2.578715   -2.151642    0.577001
     22          1           0        1.963703   -1.499639   -2.062372
     23          1           0       -3.299693    0.458855   -0.626292
     24          1           0       -3.598925   -0.019590    1.064992
     25          1           0       -2.559870    1.366976    0.711816
     26          1           0       -2.189998   -2.055930   -1.001950
     27          1           0       -1.172268   -2.545523    0.366570
     28          1           0       -2.896639   -2.201749    0.637940
 ---------------------------------------------------------------------

 SCF Done:  E(UB3LYP) =  -446.127953591     A.U. after   33 cycles
 SCF Done:  E(UB3LYP) =  -446.127953591     a.u. after    1 cycles

 The electronic state is 2-A.
 Alpha  occ. eigenvalues --  -14.22284 -10.09816 -10.08501 -10.08465 -10.07625
 Alpha  occ. eigenvalues --  -10.06649 -10.06352 -10.06074 -10.06001 -10.05412
 Alpha  occ. eigenvalues --  -10.03796  -0.83967  -0.72609  -0.67288  -0.64458
 Alpha  occ. eigenvalues --   -0.61036  -0.59496  -0.56069  -0.51072  -0.50286
 Alpha  occ. eigenvalues --   -0.45653  -0.40846  -0.37850  -0.36388  -0.35346
 Alpha  occ. eigenvalues --   -0.34761  -0.33582  -0.32911  -0.30803  -0.29623
 Alpha  occ. eigenvalues --   -0.28918  -0.28825  -0.27682  -0.27011  -0.25271
 Alpha  occ. eigenvalues --   -0.23972  -0.23137  -0.22169  -0.21794  -0.17343
 Alpha  occ. eigenvalues --   -0.13958  -0.09113   0.04733
 Alpha virt. eigenvalues --    0.06862   0.07519   0.08143   0.08496   0.09292
 Alpha virt. eigenvalues --    0.09682   0.09779   0.10408   0.11287   0.11879
 Alpha virt. eigenvalues --    0.12206   0.12513   0.12810   0.13575   0.14396

  Beta  occ. eigenvalues --  -14.22286 -10.09801 -10.08477 -10.08405 -10.07614
  Beta  occ. eigenvalues --  -10.06629 -10.06342 -10.06062 -10.05987 -10.05384
  Beta  occ. eigenvalues --  -10.03751  -0.83946  -0.72566  -0.67245  -0.64403
  Beta  occ. eigenvalues --   -0.60973  -0.59447  -0.56008  -0.51012  -0.50222
  Beta  occ. eigenvalues --   -0.45600  -0.40806  -0.37807  -0.36338  -0.35301
  Beta  occ. eigenvalues --   -0.34719  -0.33551  -0.32871  -0.30767  -0.29567
  Beta  occ. eigenvalues --   -0.28876  -0.28782  -0.27641  -0.26966  -0.25223
  Beta  occ. eigenvalues --   -0.23932  -0.23091  -0.22130  -0.21762  -0.17293
  Beta  occ. eigenvalues --   -0.13893  -0.08972
  Beta virt. eigenvalues --    0.06928   0.07864   0.08203   0.08596   0.08691
  Beta virt. eigenvalues --    0.09926   0.10138   0.10399   0.10775   0.11467
  Beta virt. eigenvalues --    0.12465   0.12573   0.12886   0.13210   0.13787

 Mulliken charges and spin densities:
               1          2
     1  C    0.755645  -1.435964
     2  C   -0.635269   0.800832
     3  C   -0.084205  -0.475876
     4  C   -0.249503   0.258002
     5  C    0.528148  -1.273442
     6  C    0.237193  -0.285677
     7  C   -0.611030   0.951434
     8  C   -0.418808  -0.156980
     9  N    0.032841   0.260168
    10  C    1.465115  -1.829945
    11  C    0.315668  -0.719650
    12  H    0.100818   0.055789
    13  H   -0.276456   0.411346
    14  H   -0.017427   0.163571
    15  H   -0.166828   0.345037
    16  H    0.052337   0.077534
    17  H   -0.169802   0.336110
    18  H   -0.378537   0.562064
    19  H    0.188406  -0.008454
    20  H   -0.013241   0.142740
    21  H   -0.094279   0.232215
    22  H   -0.085973   0.244625
    23  H   -0.317647   0.471474
    24  H   -0.410754   0.558529
    25  H   -0.514871   0.665375
    26  H   -0.021173   0.164156
    27  H   -0.025920   0.186026
    28  H   -0.184447   0.298961
 Sum of Mulliken charges =  -1.00000   1.00000

 Dipole moment (field-independent basis, Debye):
    X=              3.3623    Y=             -1.6701    Z=             -1.6823  Tot=              4.1139
 Quadrupole moment (field-independent basis, Debye-Ang):
   XX=           -134.0413   YY=           -113.8996   ZZ=           -102.3538
   XY=              3.4076   XZ=              1.1768   YZ=             -4.4355

 Summary of Natural Population Analysis:

                                       Natural Population
                Natural  -----------------------------------------------
    Atom  No    Charge         Core      Valence    Rydberg      Total
 -----------------------------------------------------------------------
      C    1   -0.28060      0.99964     2.27429    0.00667     3.28060
      C    2   -0.12104      0.99956     2.10991    0.01157     3.12104
      C    3   -0.18613      0.99962     2.17694    0.00957     3.18613
      C    4   -0.19326      0.99963     2.18530    0.00834     3.19326
      C    5   -0.20023      0.99962     2.19180    0.00882     3.20023
      C    6   -0.11976      0.99946     2.10914    0.01116     3.11976
      C    7   -0.03728      0.99931     2.02877    0.00920     3.03728
      C    8    0.08782      0.99938     1.89811    0.01469     2.91218
      N    9   -0.25767      0.99967     2.74459    0.01342     3.75767
      C   10   -0.17321      0.99963     2.16474    0.00884     3.17321
      C   11   -0.17763      0.99964     2.16897    0.00902     3.17763
      H   12    0.09893      0.00000     0.40010    0.00097     0.40107
      H   13    0.09849      0.00000     0.40046    0.00105     0.40151
      H   14    0.10128      0.00000     0.39771    0.00100     0.39872
      H   15    0.10475      0.00000     0.39270    0.00255     0.39525
      H   16    0.09464      0.00000     0.40390    0.00146     0.40536
      H   17    0.10139      0.00000     0.39751    0.00110     0.39861
      H   18    0.09909      0.00000     0.39991    0.00100     0.40091
      H   19    0.09836      0.00000     0.39982    0.00183     0.40164
      H   20    0.09600      0.00000     0.40236    0.00164     0.40400
      H   21    0.09879      0.00000     0.40021    0.00100     0.40121
      H   22    0.09406      0.00000     0.40485    0.00109     0.40594
      H   23    0.08626      0.00000     0.41175    0.00200     0.41374
      H   24    0.09820      0.00000     0.39961    0.00219     0.40180
      H   25    0.10054      0.00000     0.39748    0.00198     0.39946
      H   26    0.09027      0.00000     0.40830    0.00143     0.40973
      H   27    0.10069      0.00000     0.39819    0.00112     0.39931
      H   28    0.09726      0.00000     0.40160    0.00114     0.40274
 =======================================================================
   * Total *    0.00000     10.99515    30.86900    0.13585    42.00000

 Normal termination of Gaussian 16 at Tue Dec  8 22:00:08 2020.
