 Gaussian 16, Revision A.03,

 -----------------------------------------------------------
 # opt freq B3LYP/6-31G(d) empiricaldispersion=gd3bj scf=xqc
 -----------------------------------------------------------

 ------------------------------
 CID_54145827_JID_1920_neutraal
 ------------------------------
 Symbolic Z-matrix:
 Charge =  0 Multiplicity = 1

 SCF Done:  E(RB3LYP) =  -427.564651411     A.U. after   14 cycles
 SCF Done:  E(RB3LYP) =  -427.567307871     A.U. after   12 cycles
 SCF Done:  E(RB3LYP) =  -427.567565427     A.U. after   11 cycles
 SCF Done:  E(RB3LYP) =  -427.567598184     A.U. after   10 cycles
 SCF Done:  E(RB3LYP) =  -427.567603761     A.U. after    9 cycles
 SCF Done:  E(RB3LYP) =  -427.567605679     A.U. after    8 cycles
 SCF Done:  E(RB3LYP) =  -427.567605941     A.U. after    7 cycles
 Optimization completed.
    -- Stationary point found.
 Normal termination of Gaussian 16 at Tue Dec  8 21:40:56 2020.

 --------------------------------------------------------------------
 #N Geom=AllCheck Guess=TCheck SCRF=Check GenChk RB3LYP/6-31G(d) Freq
 --------------------------------------------------------------------

 Structure from the checkpoint file:  "JID_1920.chk"
 ------------------------------
 CID_54145827_JID_1920_neutraal
 ------------------------------
 Charge =  0 Multiplicity = 1

 SCF Done:  E(RB3LYP) =  -427.567605941     A.U. after    1 cycles

  Exact polarizability: 160.876 -16.815  99.063   8.386  -1.725  79.748
 Approx polarizability: 215.791 -41.970 161.810  13.752  -3.432 126.856

                      1                      2                      3
                      A                      A                      A
 Frequencies --     62.9879                98.1901               125.0147
 Red. masses --      3.1093                 3.1501                 1.9812
 Frc consts  --      0.0073                 0.0179                 0.0182
 IR Inten    --      0.0404                 0.3408                 0.1493

                      4                      5                      6
                      A                      A                      A
 Frequencies --    171.8225               218.0414               277.1526
 Red. masses --      3.0523                 2.6243                 3.5157
 Frc consts  --      0.0531                 0.0735                 0.1591
 IR Inten    --      0.4009                 0.1826                 0.9256

                      7                      8                      9
                      A                      A                      A
 Frequencies --    333.3678               387.0060               467.8638
 Red. masses --      2.8088                 2.2664                 2.1868
 Frc consts  --      0.1839                 0.2000                 0.2820
 IR Inten    --      1.1382                 0.7367                 2.9196

                     10                     11                     12
                      A                      A                      A
 Frequencies --    482.2911               510.1561               620.8957
 Red. masses --      2.5304                 2.3631                 2.5484
 Frc consts  --      0.3468                 0.3624                 0.5788
 IR Inten    --      0.8918                 0.5258                 1.6747

                     13                     14                     15
                      A                      A                      A
 Frequencies --    655.4683               689.4831               727.7132
 Red. masses --      2.1540                 2.1514                 1.6648
 Frc consts  --      0.5453                 0.6026                 0.5194
 IR Inten    --      1.7930                 3.4523                30.6073

                     16                     17                     18
                      A                      A                      A
 Frequencies --    779.0143               795.8776               847.9689
 Red. masses --      4.3522                 3.8636                 2.6639
 Frc consts  --      1.5561                 1.4419                 1.1286
 IR Inten    --      0.9989                 3.0426                 4.6325

                     19                     20                     21
                      A                      A                      A
 Frequencies --    862.2515               890.9145               916.3131
 Red. masses --      2.1464                 2.0658                 1.6092
 Frc consts  --      0.9402                 0.9661                 0.7961
 IR Inten    --      0.0337                 6.7032                22.9102

                     22                     23                     24
                      A                      A                      A
 Frequencies --    917.6031               926.1125               942.7037
 Red. masses --      1.9511                 1.7634                 1.9318
 Frc consts  --      0.9679                 0.8911                 1.0115
 IR Inten    --     10.9348                 5.4254                 1.3743

                     25                     26                     27
                      A                      A                      A
 Frequencies --    947.3300               957.2044               973.6510
 Red. masses --      1.9877                 2.1457                 1.6758
 Frc consts  --      1.0510                 1.1583                 0.9360
 IR Inten    --      1.1035                 1.7462                 1.6393

                     28                     29                     30
                      A                      A                      A
 Frequencies --    992.5993              1011.8793              1023.1954
 Red. masses --      1.1502                 2.0082                 1.5754
 Frc consts  --      0.6677                 1.2115                 0.9717
 IR Inten    --      4.7544                 4.1591                 1.6103

                     31                     32                     33
                      A                      A                      A
 Frequencies --   1054.1967              1057.5081              1095.3012
 Red. masses --      1.3645                 1.2445                 1.7837
 Frc consts  --      0.8934                 0.8200                 1.2608
 IR Inten    --      7.9659                22.2432                 4.0288

                     34                     35                     36
                      A                      A                      A
 Frequencies --   1133.7278              1150.3456              1177.8209
 Red. masses --      1.2973                 1.1796                 1.1883
 Frc consts  --      0.9825                 0.9197                 0.9713
 IR Inten    --      0.6743                 0.9819                 2.2476

                     37                     38                     39
                      A                      A                      A
 Frequencies --   1197.5275              1216.2097              1225.0711
 Red. masses --      1.8599                 1.9229                 1.3870
 Frc consts  --      1.5715                 1.6758                 1.2264
 IR Inten    --      1.6981                 2.0822                 1.2780

                     40                     41                     42
                      A                      A                      A
 Frequencies --   1278.5379              1300.0473              1303.6055
 Red. masses --      1.3456                 1.3933                 1.3118
 Frc consts  --      1.2960                 1.3874                 1.3135
 IR Inten    --      0.5455                 0.7426                 0.7895

                     43                     44                     45
                      A                      A                      A
 Frequencies --   1308.4941              1323.5174              1330.5155
 Red. masses --      1.4105                 1.5502                 1.4033
 Frc consts  --      1.4228                 1.6000                 1.4636
 IR Inten    --      0.3564                 0.2990                 4.9636

                     46                     47                     48
                      A                      A                      A
 Frequencies --   1337.2731              1357.0079              1375.1480
 Red. masses --      1.4005                 1.3158                 1.6921
 Frc consts  --      1.4756                 1.4276                 1.8853
 IR Inten    --      0.5475                 4.2823                 5.8572

                     49                     50                     51
                      A                      A                      A
 Frequencies --   1385.9028              1474.9002              1518.3007
 Red. masses --      1.5632                 1.2505                 1.0937
 Frc consts  --      1.7690                 1.6027                 1.4855
 IR Inten    --     11.5761                 1.2723                 1.6319

                     52                     53                     54
                      A                      A                      A
 Frequencies --   1533.3331              1660.6258              1689.1250
 Red. masses --      1.1066                 5.5875                 4.3301
 Frc consts  --      1.5329                 9.0784                 7.2790
 IR Inten    --      1.6106                 0.7488                 2.1254

                     55                     56                     57
                      A                      A                      A
 Frequencies --   1735.4630              3040.9985              3069.1514
 Red. masses --      5.1612                 1.0841                 1.0609
 Frc consts  --      9.1586                 5.9066                 5.8877
 IR Inten    --     30.2059                22.9574                31.8755

                     58                     59                     60
                      A                      A                      A
 Frequencies --   3078.0648              3119.0312              3120.9257
 Red. masses --      1.0584                 1.1025                 1.0908
 Frc consts  --      5.9084                 6.3191                 6.2596
 IR Inten    --     23.0654                38.5233                54.8953

                     61                     62                     63
                      A                      A                      A
 Frequencies --   3126.0283              3129.6621              3132.6052
 Red. masses --      1.0883                 1.0921                 1.1039
 Frc consts  --      6.2659                 6.3025                 6.3823
 IR Inten    --     20.6514                37.7734                26.7506

                     64                     65                     66
                      A                      A                      A
 Frequencies --   3147.4370              3163.3999              3168.8477
 Red. masses --      1.0831                 1.0671                 1.0868
 Frc consts  --      6.3216                 6.2919                 6.4298
 IR Inten    --     15.3770                 5.6052                23.5229

                     67                     68                     69
                      A                      A                      A
 Frequencies --   3203.8677              3228.3574              3245.9659
 Red. masses --      1.0859                 1.1056                 1.1154
 Frc consts  --      6.5671                 6.7892                 6.9244
 IR Inten    --     10.1922                27.2265                18.7275

 - Thermochemistry -
 -------------------
 Temperature   298.150 Kelvin.  Pressure   1.00000 Atm.
 Atom     1 has atomic number  6 and mass  12.00000

 Molecular mass:   146.10955 amu.
 Principal axes and moments of inertia in atomic units:
                           1         2         3
     Eigenvalues --   602.308413150.376183249.33268
           X            0.99998  -0.00570   0.00213
           Y            0.00576   0.99964  -0.02617
           Z           -0.00198   0.02618   0.99966
 This molecule is an asymmetric top.
 Rotational symmetry number  1.
 Warning -- assumption of classical behavior for rotation
           may cause significant error
 Rotational temperatures (Kelvin)      0.14380     0.02749     0.02666
 Rotational constants (GHZ):           2.99637     0.57287     0.55542
 Zero-point vibrational energy     579028.0 (Joules/Mol)
                                  138.39101 (Kcal/Mol)
 Warning -- explicit consideration of  11 degrees of freedom as
           vibrations may cause significant error
 Vibrational temperatures:     90.63   141.27   179.87   247.21   313.71
          (Kelvin)            398.76   479.64   556.82   673.15   693.91
                              734.00   893.33   943.07   992.01  1047.02
                             1120.83  1145.09  1220.04  1240.59  1281.83
                             1318.37  1320.23  1332.47  1356.34  1363.00
                             1377.20  1400.87  1428.13  1455.87  1472.15
                             1516.75  1521.52  1575.89  1631.18  1655.09
                             1694.62  1722.98  1749.85  1762.60  1839.53
                             1870.48  1875.60  1882.63  1904.25  1914.32
                             1924.04  1952.43  1978.53  1994.00  2122.05
                             2184.50  2206.12  2389.27  2430.27  2496.94
                             4375.32  4415.82  4428.65  4487.59  4490.32
                             4497.66  4502.89  4507.12  4528.46  4551.43
                             4559.27  4609.65  4644.89  4670.22

 Zero-point correction=                           0.220540 (Hartree/Particle)
 Thermal correction to Energy=                    0.230194
 Thermal correction to Enthalpy=                  0.231139
 Thermal correction to Gibbs Free Energy=         0.185352
 Sum of electronic and zero-point Energies=           -427.347066
 Sum of electronic and thermal Energies=              -427.337411
 Sum of electronic and thermal Enthalpies=            -427.336467
 Sum of electronic and thermal Free Energies=         -427.382254

                     E (Thermal)             CV                S
                      KCal/Mol        Cal/Mol-Kelvin    Cal/Mol-Kelvin
 Total                  144.449             38.824             96.366
 Electronic               0.000              0.000              0.000
 Translational            0.889              2.981             40.848
 Rotational               0.889              2.981             30.201
 Vibrational            142.672             32.862             25.317
 Vibration     1          0.597              1.972              4.361
 Vibration     2          0.604              1.950              3.490
 Vibration     3          0.610              1.928              3.021
 Vibration     4          0.626              1.877              2.415
 Vibration     5          0.646              1.814              1.975
 Vibration     6          0.678              1.716              1.551
 Vibration     7          0.715              1.609              1.244
 Vibration     8          0.755              1.498              1.012
 Vibration     9          0.825              1.321              0.744
 Vibration    10          0.839              1.289              0.704
 Vibration    11          0.865              1.227              0.633

                           ! Non-Optimized Parameters !
 Normal termination of Gaussian 16 at Tue Dec  8 21:46:49 2020.

 ----------------------------------------------------------------------
 # B3LYP/6-311++G(d,p) empiricaldispersion=gd3bj scf=xqc pop=npa geom=c
 heck
 ----------------------------------------------------------------------

 --------------------------------------
 CID_54145827_JID_1920_Energie_neutraal
 --------------------------------------
 Structure from the checkpoint file:  "JID_1920.chk"
 Charge =  0 Multiplicity = 1

 SCF Done:  E(RB3LYP) =  -427.682123659     A.U. after   14 cycles
 Normal termination of Gaussian 16 at Tue Dec  8 21:50:30 2020.

 ----------------------------------------------------------------------
 # B3LYP/6-311++G(d,p) empiricaldispersion=gd3bj scf=xqc pop=npa geom=c
 heck
 ----------------------------------------------------------------------

 ------------------------------------
 CID_54145827_JID_1920_Energie_kation
 ------------------------------------
 Structure from the checkpoint file:  "JID_1920.chk"
 Charge =  1 Multiplicity = 2

 SCF Done:  E(UB3LYP) =  -427.388839499     A.U. after   21 cycles
 Normal termination of Gaussian 16 at Tue Dec  8 21:56:04 2020.
 Gaussian 16:  ES64L-G16RevA.03 25-Dec-2016

 ----------------------------------------------------------------------
 # B3LYP/6-311++G(d,p) empiricaldispersion=gd3bj scf=xqc pop=npa geom=c
 heck
 ----------------------------------------------------------------------

 -----------------------------------
 CID_54145827_JID_1920_Energie_anion
 -----------------------------------
 Structure from the checkpoint file:  "JID_1920.chk"
 Charge = -1 Multiplicity = 2

                         Standard orientation:
 ---------------------------------------------------------------------
 Center     Atomic      Atomic             Coordinates (Angstroms)
 Number     Number       Type             X           Y           Z
 ---------------------------------------------------------------------
      1          6           0        4.361060   -0.638550    0.304372
      2          6           0        3.420284    0.256598   -0.028700
      3          6           0        2.006990   -0.052350   -0.183269
      4          6           0        1.077325    0.858117   -0.515039
      5          6           0       -0.398819    0.637850   -0.687123
      6          6           0       -1.243002    1.400037    0.402572
      7          6           0       -2.120835    0.266168    1.024777
      8          6           0       -1.107642   -0.901516    1.022108
      9          6           0       -0.895980   -0.840679   -0.509133
     10          6           0       -2.341944   -0.850341   -0.983651
     11          6           0       -3.071068   -0.193557   -0.071909
     12          1           0        4.113286   -1.682372    0.484131
     13          1           0        5.405153   -0.360068    0.407923
     14          1           0        3.707806    1.294347   -0.201046
     15          1           0        1.719798   -1.088567   -0.011436
     16          1           0        1.405744    1.887976   -0.671609
     17          1           0       -0.677892    1.001276   -1.684269
     18          1           0       -0.586819    1.833853    1.164576
     19          1           0       -1.846645    2.206180   -0.023375
     20          1           0       -2.576263    0.530131    1.982018
     21          1           0       -1.548557   -1.847128    1.350440
     22          1           0       -0.200617   -0.690563    1.598038
     23          1           0       -0.242528   -1.588941   -0.961080
     24          1           0       -2.670738   -1.224130   -1.947956
     25          1           0       -4.119943    0.077339   -0.136384
 ---------------------------------------------------------------------

 SCF Done:  E(UB3LYP) =  -427.665517669     A.U. after   33 cycles
 SCF Done:  E(UB3LYP) =  -427.665517669     a.u. after    1 cycles

 The electronic state is 2-A.
 Alpha  occ. eigenvalues --  -10.06783 -10.06698 -10.06682 -10.06064 -10.05653
 Alpha  occ. eigenvalues --  -10.05478 -10.05390 -10.05389 -10.05213 -10.05058
 Alpha  occ. eigenvalues --  -10.04668  -0.77452  -0.69555  -0.65209  -0.61701
 Alpha  occ. eigenvalues --   -0.59565  -0.58447  -0.50158  -0.45915  -0.45073
 Alpha  occ. eigenvalues --   -0.43177  -0.40625  -0.40273  -0.37330  -0.34775
 Alpha  occ. eigenvalues --   -0.34011  -0.30434  -0.28918  -0.28215  -0.27095
 Alpha  occ. eigenvalues --   -0.24898  -0.24187  -0.24148  -0.23031  -0.22881
 Alpha  occ. eigenvalues --   -0.21246  -0.20415  -0.19797  -0.13418  -0.11463
 Alpha  occ. eigenvalues --    0.05081
 Alpha virt. eigenvalues --    0.07013   0.07828   0.08046   0.08384   0.09024
 Alpha virt. eigenvalues --    0.09867   0.10329   0.10506   0.11269   0.11443
 Alpha virt. eigenvalues --    0.12149   0.12656   0.13166   0.14151   0.15290

  Beta  occ. eigenvalues --  -10.06781 -10.06696 -10.06687 -10.05997 -10.05644
  Beta  occ. eigenvalues --  -10.05459 -10.05372 -10.05333 -10.05083 -10.05002
  Beta  occ. eigenvalues --  -10.04540  -0.77421  -0.69330  -0.65033  -0.61624
  Beta  occ. eigenvalues --   -0.59492  -0.58359  -0.49918  -0.45834  -0.44907
  Beta  occ. eigenvalues --   -0.43071  -0.40569  -0.40206  -0.37261  -0.34676
  Beta  occ. eigenvalues --   -0.33927  -0.30337  -0.28870  -0.28136  -0.27023
  Beta  occ. eigenvalues --   -0.24744  -0.24148  -0.24093  -0.22988  -0.22775
  Beta  occ. eigenvalues --   -0.21210  -0.19888  -0.19733  -0.13339  -0.10704
  Beta virt. eigenvalues --    0.07428   0.08001   0.08441   0.08730   0.08926
  Beta virt. eigenvalues --    0.09620   0.10254   0.10506   0.11023   0.11535
  Beta virt. eigenvalues --    0.11716   0.12457   0.12771   0.13618   0.14308

 Mulliken charges and spin densities:
               1          2
     1  C   -0.611442   0.091431
     2  C    0.119428  -0.194052
     3  C   -0.114068  -0.160803
     4  C    0.328953  -0.127233
     5  C   -0.429620   0.601536
     6  C    1.262530  -1.927576
     7  C   -1.504726   1.905269
     8  C    0.569008  -1.370991
     9  C    0.850608  -0.563852
    10  C   -0.971157   0.565486
    11  C    1.627845  -1.999993
    12  H    0.035167   0.058074
    13  H    0.090449   0.015414
    14  H    0.003136   0.093796
    15  H    0.037134  -0.016622
    16  H    0.016060   0.138337
    17  H   -0.047155   0.260017
    18  H   -0.102945   0.263811
    19  H   -0.450586   0.603474
    20  H   -0.468251   0.697761
    21  H   -0.116407   0.260386
    22  H    0.249569  -0.109845
    23  H    0.248558  -0.014944
    24  H   -0.665849   0.809289
    25  H   -0.956238   1.121831
 Sum of Mulliken charges =  -1.00000   1.00000

 Dipole moment (field-independent basis, Debye):
    X=              5.2410    Y=             -1.8882    Z=              0.2528  Tot=              5.5765
 Quadrupole moment (field-independent basis, Debye-Ang):
   XX=           -144.8036   YY=            -97.7810   ZZ=            -98.1588
   XY=              6.1317   XZ=             -4.6060   YZ=             -2.4046

 Summary of Natural Population Analysis:

                                       Natural Population
                Natural  -----------------------------------------------
    Atom  No    Charge         Core      Valence    Rydberg      Total
 -----------------------------------------------------------------------
      C    1   -0.18219      0.99959     2.17444    0.00816     3.18219
      C    2   -0.08839      0.99956     2.07944    0.00939     3.08839
      C    3   -0.12287      0.99949     2.11507    0.00831     3.12287
      C    4   -0.03714      0.99953     2.02760    0.01002     3.03714
      C    5   -0.12688      0.99958     2.11548    0.01183     3.12688
      C    6   -0.17766      0.99961     2.16895    0.00910     3.17766
      C    7   -0.12861      0.99960     2.11559    0.01342     3.12861
      C    8   -0.18170      0.99963     2.17324    0.00884     3.18170
      C    9   -0.12723      0.99959     2.11510    0.01253     3.12723
      C   10   -0.09373      0.99952     2.08256    0.01166     3.09373
      C   11   -0.09281      0.99951     2.08155    0.01175     3.09281
      H   12    0.08524      0.00000     0.41375    0.00102     0.41476
      H   13    0.08688      0.00000     0.41221    0.00091     0.41312
      H   14    0.08751      0.00000     0.41102    0.00147     0.41249
      H   15    0.09061      0.00000     0.40743    0.00197     0.40939
      H   16    0.08715      0.00000     0.41126    0.00159     0.41285
      H   17    0.10647      0.00000     0.39215    0.00137     0.39353
      H   18    0.10076      0.00000     0.39797    0.00128     0.39924
      H   19    0.10331      0.00000     0.39437    0.00232     0.39669
      H   20    0.10320      0.00000     0.39551    0.00129     0.39680
      H   21    0.09961      0.00000     0.39936    0.00103     0.40039
      H   22    0.10033      0.00000     0.39832    0.00135     0.39967
      H   23    0.10310      0.00000     0.39527    0.00164     0.39690
      H   24    0.10123      0.00000     0.39747    0.00129     0.39877
      H   25    0.10383      0.00000     0.39367    0.00250     0.39617
 =======================================================================
   * Total *    0.00000     10.99522    28.86876    0.13602    40.00000

 Normal termination of Gaussian 16 at Tue Dec  8 22:03:33 2020.
