 Gaussian 16, Revision A.03,

 -----------------------------------------------------------
 # opt freq B3LYP/6-31G(d) empiricaldispersion=gd3bj scf=xqc
 -----------------------------------------------------------

 -------------------------------
 CID_116606661_JID_7482_neutraal
 -------------------------------
 Symbolic Z-matrix:
 Charge =  0 Multiplicity = 1

 SCF Done:  E(RB3LYP) =  -783.572362364     A.U. after   16 cycles
 SCF Done:  E(RB3LYP) =  -783.593027652     A.U. after   13 cycles
 SCF Done:  E(RB3LYP) =  -783.595139633     A.U. after   13 cycles
 SCF Done:  E(RB3LYP) =  -783.588196903     A.U. after   15 cycles
 SCF Done:  E(RB3LYP) =  -783.593493971     A.U. after   13 cycles
 SCF Done:  E(RB3LYP) =  -783.595648416     A.U. after   10 cycles
 SCF Done:  E(RB3LYP) =  -783.596217406     A.U. after   13 cycles
 SCF Done:  E(RB3LYP) =  -783.595540692     A.U. after   13 cycles
 SCF Done:  E(RB3LYP) =  -783.595727152     A.U. after   13 cycles
 SCF Done:  E(RB3LYP) =  -783.596437738     A.U. after    9 cycles
 SCF Done:  E(RB3LYP) =  -783.596658180     A.U. after   11 cycles
 SCF Done:  E(RB3LYP) =  -783.596674495     A.U. after   10 cycles
 SCF Done:  E(RB3LYP) =  -783.596674852     A.U. after    9 cycles
 SCF Done:  E(RB3LYP) =  -783.596675472     A.U. after    8 cycles
 SCF Done:  E(RB3LYP) =  -783.596675727     A.U. after    8 cycles
 SCF Done:  E(RB3LYP) =  -783.596675740     A.U. after    7 cycles
 Optimization completed.
    -- Stationary point found.
 Normal termination of Gaussian 16 at Fri Dec 11 12:14:13 2020.

 --------------------------------------------------------------------
 #N Geom=AllCheck Guess=TCheck SCRF=Check GenChk RB3LYP/6-31G(d) Freq
 --------------------------------------------------------------------

 Structure from the checkpoint file:  "JID_7482.chk"
 -------------------------------
 CID_116606661_JID_7482_neutraal
 -------------------------------
 Charge =  0 Multiplicity = 1

 SCF Done:  E(RB3LYP) =  -783.596675740     A.U. after    1 cycles

  Exact polarizability: 208.579 -20.117 134.058   9.558   8.630  97.306
 Approx polarizability: 310.808 -41.260 223.041  18.732  26.098 151.389

                      1                      2                      3
                      A                      A                      A
 Frequencies --     28.1950                34.8867                69.2292
 Red. masses --      5.8912                 4.8443                 4.2129
 Frc consts  --      0.0028                 0.0035                 0.0119
 IR Inten    --      0.2247                 0.4986                 0.0906

                      4                      5                      6
                      A                      A                      A
 Frequencies --     86.0745               122.5146               136.0486
 Red. masses --      4.4074                 5.2005                 4.6449
 Frc consts  --      0.0192                 0.0460                 0.0507
 IR Inten    --      0.8127                 1.3166                 6.2754

                      7                      8                      9
                      A                      A                      A
 Frequencies --    136.8208               191.8499               240.0311
 Red. masses --      3.5679                 4.0719                 4.5572
 Frc consts  --      0.0394                 0.0883                 0.1547
 IR Inten    --      0.8017                 1.8079                 0.8345

                     10                     11                     12
                      A                      A                      A
 Frequencies --    270.6035               288.6563               318.0147
 Red. masses --      3.1655                 1.5107                 2.6814
 Frc consts  --      0.1366                 0.0742                 0.1598
 IR Inten    --      9.0968                38.5386                11.2874

                     13                     14                     15
                      A                      A                      A
 Frequencies --    333.7593               345.3730               357.2574
 Red. masses --      2.4645                 5.6954                 3.1048
 Frc consts  --      0.1617                 0.4003                 0.2335
 IR Inten    --     14.5529                 5.2794                 1.4050

                     16                     17                     18
                      A                      A                      A
 Frequencies --    382.9112               406.4129               465.3035
 Red. masses --      5.5613                 4.4898                 3.2368
 Frc consts  --      0.4804                 0.4369                 0.4129
 IR Inten    --     11.9624                22.2802                 1.3434

                     19                     20                     21
                      A                      A                      A
 Frequencies --    477.4522               493.7703               506.9032
 Red. masses --      4.8579                 6.4298                 6.8246
 Frc consts  --      0.6525                 0.9236                 1.0332
 IR Inten    --      7.8587                 0.5599                 1.2450

                     22                     23                     24
                      A                      A                      A
 Frequencies --    531.0051               582.7864               597.1812
 Red. masses --      4.1699                 4.9191                 1.2001
 Frc consts  --      0.6927                 0.9844                 0.2522
 IR Inten    --      1.7371                 3.2886                42.4086

                     25                     26                     27
                      A                      A                      A
 Frequencies --    613.9500               617.8240               686.4584
 Red. masses --      1.2304                 4.6724                 2.8609
 Frc consts  --      0.2732                 1.0508                 0.7943
 IR Inten    --     58.3140                 3.2207                 7.6130

                     28                     29                     30
                      A                      A                      A
 Frequencies --    711.6180               742.5958               769.4650
 Red. masses --      5.0821                 3.1469                 4.1544
 Frc consts  --      1.5163                 1.0225                 1.4492
 IR Inten    --      1.4379                 6.5811                 5.7930

                     31                     32                     33
                      A                      A                      A
 Frequencies --    779.1325               847.5289               880.8008
 Red. masses --      4.5217                 1.4540                 2.4842
 Frc consts  --      1.6173                 0.6154                 1.1355
 IR Inten    --     15.5123                12.8148                11.0879

                     34                     35                     36
                      A                      A                      A
 Frequencies --    884.3556               909.7424               932.2777
 Red. masses --      2.1761                 2.5879                 2.2190
 Frc consts  --      1.0027                 1.2619                 1.1363
 IR Inten    --     18.1180                35.4555               139.3258

                     37                     38                     39
                      A                      A                      A
 Frequencies --    960.0517               963.5100               974.1343
 Red. masses --      2.5049                 2.0932                 1.3739
 Frc consts  --      1.3603                 1.1449                 0.7682
 IR Inten    --     83.3977                 3.6839                 2.5736

                     40                     41                     42
                      A                      A                      A
 Frequencies --    997.3456              1009.1538              1041.9832
 Red. masses --      3.5470                 2.4073                 2.3264
 Frc consts  --      2.0788                 1.4444                 1.4882
 IR Inten    --     88.7777                50.9944                19.8069

                     43                     44                     45
                      A                      A                      A
 Frequencies --   1085.2613              1100.1427              1138.1345
 Red. masses --      3.6273                 3.3591                 1.9718
 Frc consts  --      2.5171                 2.3954                 1.5048
 IR Inten    --     14.7746                80.7760                 1.4301

                     46                     47                     48
                      A                      A                      A
 Frequencies --   1139.7492              1151.3008              1196.3463
 Red. masses --      1.9604                 1.5283                 1.2684
 Frc consts  --      1.5004                 1.1935                 1.0696
 IR Inten    --     12.5345                67.3586                 1.5949

                     49                     50                     51
                      A                      A                      A
 Frequencies --   1204.6202              1243.8309              1258.8123
 Red. masses --      2.1677                 1.5087                 1.6057
 Frc consts  --      1.8533                 1.3752                 1.4991
 IR Inten    --     46.1603                 8.9984                48.2763

                     52                     53                     54
                      A                      A                      A
 Frequencies --   1279.5306              1301.0913              1307.5258
 Red. masses --      1.4622                 1.5307                 1.3218
 Frc consts  --      1.4105                 1.5267                 1.3314
 IR Inten    --      0.2528               132.3456                12.5535

                     55                     56                     57
                      A                      A                      A
 Frequencies --   1327.5086              1357.8388              1361.3585
 Red. masses --      2.0448                 1.5759                 1.6453
 Frc consts  --      2.1231                 1.7118                 1.7965
 IR Inten    --    281.5567               119.6920               118.9722

                     58                     59                     60
                      A                      A                      A
 Frequencies --   1377.6494              1411.1141              1430.2268
 Red. masses --      5.0667                 1.4154                 1.4675
 Frc consts  --      5.6657                 1.6606                 1.7687
 IR Inten    --     58.1817                 0.2142                 5.6640

                     61                     62                     63
                      A                      A                      A
 Frequencies --   1444.6540              1471.5793              1501.0476
 Red. masses --      1.3514                 4.0108                 1.0887
 Frc consts  --      1.6617                 5.1174                 1.4452
 IR Inten    --      7.6438                16.0955                 8.1237

                     64                     65                     66
                      A                      A                      A
 Frequencies --   1524.0897              1526.1341              1556.9160
 Red. masses --      1.1379                 1.1375                 2.8778
 Frc consts  --      1.5574                 1.5610                 4.1100
 IR Inten    --      7.4891                 4.5574                84.5666

                     67                     68                     69
                      A                      A                      A
 Frequencies --   1628.4174              1666.7647              1708.6662
 Red. masses --      7.8697                 6.2731                 1.0894
 Frc consts  --     12.2952                10.2678                 1.8739
 IR Inten    --    169.0362                54.5450                32.3525

                     70                     71                     72
                      A                      A                      A
 Frequencies --   1748.8909              2243.6661              3040.7227
 Red. masses --     10.9293                 5.9832                 1.0701
 Frc consts  --     19.6955                17.7460                 5.8295
 IR Inten    --    150.2014                 1.7467                44.3746

                     73                     74                     75
                      A                      A                      A
 Frequencies --   3044.6589              3054.5459              3091.1270
 Red. masses --      1.0620                 1.0650                 1.0974
 Frc consts  --      5.8002                 5.8545                 6.1778
 IR Inten    --     10.0383                48.2713                 4.6106

                     76                     77                     78
                      A                      A                      A
 Frequencies --   3114.7096              3136.3119              3137.6129
 Red. masses --      1.0872                 1.0981                 1.1010
 Frc consts  --      6.2142                 6.3640                 6.3863
 IR Inten    --     19.8099                32.8637                29.2956

                     79                     80                     81
                      A                      A                      A
 Frequencies --   3213.3001              3236.9732              3246.3947
 Red. masses --      1.0895                 1.0928                 1.0898
 Frc consts  --      6.6278                 6.7464                 6.7669
 IR Inten    --      4.4716                 3.0373                 1.1222

                     82                     83                     84
                      A                      A                      A
 Frequencies --   3446.6701              3498.2025              3530.3614
 Red. masses --      1.0503                 1.1600                 1.0904
 Frc consts  --      7.3514                 8.3634                 8.0067
 IR Inten    --      3.1485                46.4665                 2.2065

 - Thermochemistry -
 -------------------
 Temperature   298.150 Kelvin.  Pressure   1.00000 Atm.
 Atom     1 has atomic number  6 and mass  12.00000

 Molecular mass:   231.08954 amu.
 Principal axes and moments of inertia in atomic units:
                           1         2         3
     Eigenvalues --  1998.382476420.606637369.72478
           X            0.99999  -0.00418   0.00341
           Y            0.00418   0.99999   0.00212
           Z           -0.00342  -0.00210   0.99999
 This molecule is an asymmetric top.
 Rotational symmetry number  1.
 Warning -- assumption of classical behavior for rotation
           may cause significant error
 Rotational temperatures (Kelvin)      0.04334     0.01349     0.01175
 Rotational constants (GHZ):           0.90310     0.28109     0.24489
 Zero-point vibrational energy     629292.1 (Joules/Mol)
                                  150.40443 (Kcal/Mol)
 Warning -- explicit consideration of  26 degrees of freedom as
           vibrations may cause significant error
 Vibrational temperatures:     40.57    50.19    99.61   123.84   176.27
          (Kelvin)            195.74   196.85   276.03   345.35   389.34
                              415.31   457.55   480.21   496.91   514.01
                              550.92   584.74   669.47   686.95   710.43
                              729.32   764.00   838.50   859.21   883.34
                              888.91   987.66  1023.86  1068.43  1107.09
                             1121.00  1219.40  1267.28  1272.39  1308.92
                             1341.34  1381.30  1386.28  1401.56  1434.96
                             1451.95  1499.18  1561.45  1582.86  1637.52
                             1639.84  1656.47  1721.28  1733.18  1789.60
                             1811.15  1840.96  1871.98  1881.24  1909.99
                             1953.63  1958.69  1982.13  2030.28  2057.78
                             2078.53  2117.27  2159.67  2192.83  2195.77
                             2240.05  2342.93  2398.10  2458.39  2516.26
                             3228.14  4374.92  4380.59  4394.81  4447.44
                             4481.37  4512.45  4514.33  4623.22  4657.28
                             4670.84  4958.99  5033.13  5079.40

 Zero-point correction=                           0.239685 (Hartree/Particle)
 Thermal correction to Energy=                    0.255023
 Thermal correction to Enthalpy=                  0.255968
 Thermal correction to Gibbs Free Energy=         0.196213
 Sum of electronic and zero-point Energies=           -783.356991
 Sum of electronic and thermal Energies=              -783.341652
 Sum of electronic and thermal Enthalpies=            -783.340708
 Sum of electronic and thermal Free Energies=         -783.400462

                     E (Thermal)             CV                S
                      KCal/Mol        Cal/Mol-Kelvin    Cal/Mol-Kelvin
 Total                  160.030             58.948            125.764
 Electronic               0.000              0.000              0.000
 Translational            0.889              2.981             42.215
 Rotational               0.889              2.981             32.914
 Vibrational            158.252             52.986             50.635
 Vibration     1          0.593              1.984              5.953
 Vibration     2          0.594              1.983              5.530
 Vibration     3          0.598              1.969              4.175
 Vibration     4          0.601              1.959              3.747
 Vibration     5          0.610              1.930              3.060
 Vibration     6          0.614              1.917              2.859
 Vibration     7          0.614              1.917              2.848
 Vibration     8          0.634              1.851              2.210
 Vibration     9          0.657              1.779              1.803
 Vibration    10          0.674              1.727              1.592
 Vibration    11          0.685              1.695              1.482
 Vibration    12          0.704              1.639              1.320
 Vibration    13          0.715              1.608              1.242
 Vibration    14          0.724              1.585              1.187
 Vibration    15          0.732              1.560              1.134
 Vibration    16          0.752              1.507              1.028
 Vibration    17          0.771              1.456              0.939
 Vibration    18          0.823              1.327              0.751
 Vibration    19          0.834              1.300              0.717
 Vibration    20          0.849              1.264              0.674
 Vibration    21          0.862              1.235              0.641
 Vibration    22          0.886              1.181              0.585
 Vibration    23          0.940              1.069              0.480
 Vibration    24          0.955              1.038              0.455
 Vibration    25          0.973              1.002              0.426
 Vibration    26          0.978              0.994              0.420

 Optimization completed.
    -- Stationary point found.
 Normal termination of Gaussian 16 at Fri Dec 11 12:25:19 2020.

 ----------------------------------------------------------------------
 # B3LYP/6-311++G(d,p) empiricaldispersion=gd3bj scf=xqc pop=npa geom=c
 heck
 ----------------------------------------------------------------------

 ---------------------------------------
 CID_116606661_JID_7482_Energie_neutraal
 ---------------------------------------
 Structure from the checkpoint file:  "JID_7482.chk"
 Charge =  0 Multiplicity = 1

 SCF Done:  E(RB3LYP) =  -783.821524215     A.U. after   16 cycles
 Normal termination of Gaussian 16 at Fri Dec 11 12:31:00 2020.

 ----------------------------------------------------------------------
 # B3LYP/6-311++G(d,p) empiricaldispersion=gd3bj scf=xqc pop=npa geom=c
 heck
 ----------------------------------------------------------------------

 -------------------------------------
 CID_116606661_JID_7482_Energie_kation
 -------------------------------------
 Structure from the checkpoint file:  "JID_7482.chk"
 Charge =  1 Multiplicity = 2

 SCF Done:  E(UB3LYP) =  -783.523937174     A.U. after   31 cycles
 Normal termination of Gaussian 16 at Fri Dec 11 12:49:51 2020.
 Gaussian 16:  ES64L-G16RevA.03 25-Dec-2016

 ----------------------------------------------------------------------
 # B3LYP/6-311++G(d,p) empiricaldispersion=gd3bj scf=xqc pop=npa geom=c
 heck
 ----------------------------------------------------------------------

 ------------------------------------
 CID_116606661_JID_7482_Energie_anion
 ------------------------------------
 Structure from the checkpoint file:  "JID_7482.chk"
 Charge = -1 Multiplicity = 2

                         Standard orientation:
 ---------------------------------------------------------------------
 Center     Atomic      Atomic             Coordinates (Angstroms)
 Number     Number       Type             X           Y           Z
 ---------------------------------------------------------------------
      1          6           0        1.493297    2.561827   -1.593567
      2          6           0        2.363448    1.934523   -1.039853
      3          6           0        3.402928    1.176380   -0.350674
      4          6           0        2.875141    0.201144    0.735202
      5          6           0        2.048632   -0.915231    0.061842
      6          8           0        2.663061   -1.869234   -0.405083
      7          6           0        0.569629   -0.843123   -0.019096
      8          6           0       -0.166833    0.252655    0.451503
      9          6           0       -1.552232    0.269632    0.343891
     10          6           0       -2.224041   -0.817078   -0.243658
     11          6           0       -1.495073   -1.920859   -0.697480
     12          6           0       -0.114375   -1.933602   -0.587017
     13          8           0       -3.582644   -0.837031   -0.385902
     14          6           0       -4.211927    0.432307   -0.192190
     15          6           0       -3.621764    1.128371    1.021739
     16          8           0       -2.230645    1.367627    0.817460
     17          7           0        4.034238   -0.338421    1.446545
     18          1           0        0.721079    3.106961   -2.085998
     19          1           0        3.983177    0.588897   -1.074921
     20          1           0        4.106499    1.853373    0.146885
     21          1           0        2.271128    0.766715    1.448335
     22          1           0        0.308997    1.123540    0.883506
     23          1           0       -2.039760   -2.747351   -1.142404
     24          1           0        0.466935   -2.776059   -0.943364
     25          1           0       -5.277255    0.228828   -0.061410
     26          1           0       -4.068548    1.052521   -1.086644
     27          1           0       -4.083201    2.105306    1.183634
     28          1           0       -3.766545    0.507559    1.916583
     29          1           0        3.710037   -0.823990    2.282619
     30          1           0        4.428623   -1.069930    0.851714
 ---------------------------------------------------------------------

 SCF Done:  E(UB3LYP) =  -783.831934211     A.U. after   30 cycles

 The electronic state is 2-A.
 Alpha  occ. eigenvalues --  -19.03922 -19.03795 -18.93269 -14.17715 -10.12943
 Alpha  occ. eigenvalues --  -10.12875 -10.09965 -10.09225 -10.08148 -10.07877
 Alpha  occ. eigenvalues --  -10.07279 -10.06643 -10.05227 -10.04097 -10.03328
 Alpha  occ. eigenvalues --  -10.02818 -10.02764  -0.97433  -0.93860  -0.87515
 Alpha  occ. eigenvalues --   -0.77078  -0.72612  -0.67746  -0.66364  -0.62847
 Alpha  occ. eigenvalues --   -0.60943  -0.59291  -0.55850  -0.52283  -0.49458
 Alpha  occ. eigenvalues --   -0.46098  -0.43471  -0.42546  -0.41554  -0.39604
 Alpha  occ. eigenvalues --   -0.39326  -0.38048  -0.35300  -0.33924  -0.33299
 Alpha  occ. eigenvalues --   -0.33166  -0.31628  -0.31015  -0.30931  -0.29564
 Alpha  occ. eigenvalues --   -0.28445  -0.28084  -0.27679  -0.24971  -0.24660
 Alpha  occ. eigenvalues --   -0.23151  -0.22697  -0.22046  -0.19165  -0.18783
 Alpha  occ. eigenvalues --   -0.16494  -0.16321  -0.14075  -0.11436  -0.09616
 Alpha  occ. eigenvalues --   -0.09230   0.04019
 Alpha virt. eigenvalues --    0.06078   0.08501   0.08817   0.08942   0.09859
 Alpha virt. eigenvalues --    0.10103   0.10783   0.11170   0.11511   0.12091
 Alpha virt. eigenvalues --    0.12886   0.13005   0.13471   0.13884   0.14639

  Beta  occ. eigenvalues --  -19.03938 -19.03743 -18.92775 -14.17697 -10.12927
  Beta  occ. eigenvalues --  -10.12855 -10.10050 -10.08919 -10.08178 -10.07845
  Beta  occ. eigenvalues --  -10.06910 -10.06643 -10.05223 -10.04181 -10.03137
  Beta  occ. eigenvalues --  -10.02750 -10.02641  -0.97365  -0.93796  -0.86625
  Beta  occ. eigenvalues --   -0.76988  -0.72381  -0.67687  -0.66235  -0.62593
  Beta  occ. eigenvalues --   -0.60865  -0.59018  -0.55605  -0.52068  -0.49204
  Beta  occ. eigenvalues --   -0.45824  -0.43343  -0.42504  -0.41331  -0.39505
  Beta  occ. eigenvalues --   -0.39226  -0.37915  -0.35107  -0.33844  -0.33128
  Beta  occ. eigenvalues --   -0.33096  -0.31455  -0.30859  -0.30680  -0.29404
  Beta  occ. eigenvalues --   -0.28324  -0.27624  -0.27370  -0.24804  -0.24391
  Beta  occ. eigenvalues --   -0.22779  -0.21915  -0.21215  -0.19070  -0.17898
  Beta  occ. eigenvalues --   -0.16440  -0.16095  -0.13873  -0.10665  -0.09223
  Beta  occ. eigenvalues --   -0.08161
  Beta virt. eigenvalues --    0.06538   0.08502   0.08829   0.09115   0.09770
  Beta virt. eigenvalues --    0.10053   0.10206   0.10781   0.11196   0.11653
  Beta virt. eigenvalues --    0.12269   0.12894   0.13036   0.13446   0.13875

 Mulliken charges and spin densities:
               1          2
     1  C   -0.583351  -0.037346
     2  C    0.841987   0.014217
     3  C   -0.950324  -0.004347
     4  C   -0.322334   0.027130
     5  C    0.051488   0.207469
     6  O   -0.395001   0.177222
     7  C    0.582092  -0.029821
     8  C   -0.759719   0.145454
     9  C    0.239309  -0.189879
    10  C   -0.118183   0.198435
    11  C   -0.223158  -0.069052
    12  C   -0.136507   0.141912
    13  O   -0.171644   0.031769
    14  C   -0.032425  -0.191496
    15  C    0.042771  -0.319139
    16  O   -0.156406   0.027596
    17  N   -0.235099  -0.008547
    18  H    0.132815   0.019620
    19  H    0.173611  -0.008990
    20  H    0.145325   0.035020
    21  H    0.172688   0.020431
    22  H    0.110073  -0.003898
    23  H    0.139403   0.015021
    24  H    0.162936  -0.012257
    25  H   -0.224253   0.388745
    26  H    0.123128   0.029401
    27  H   -0.191731   0.351590
    28  H    0.110335   0.042136
    29  H    0.220389   0.003596
    30  H    0.251782  -0.001993
 Sum of Mulliken charges =  -1.00000   1.00000

 Dipole moment (field-independent basis, Debye):
    X=             -2.0199    Y=              2.0906    Z=              0.6552  Tot=              2.9799
 Quadrupole moment (field-independent basis, Debye-Ang):
   XX=           -156.2379   YY=           -124.5601   ZZ=           -111.2666
   XY=              2.7891   XZ=              2.7701   YZ=             -4.1068

 Summary of Natural Population Analysis:

                                       Natural Population
                Natural  -----------------------------------------------
    Atom  No    Charge         Core      Valence    Rydberg      Total
 -----------------------------------------------------------------------
      C    1   -0.13218      0.99926     2.12966    0.00326     3.13218
      C    2    0.00944      0.99938     1.98387    0.00731     2.99056
      C    3   -0.22957      0.99955     2.22129    0.00874     3.22957
      C    4   -0.04143      0.99958     2.02782    0.01403     3.04143
      C    5    0.31191      0.99960     1.66633    0.02216     2.68809
      O    6   -0.27011      0.99988     3.26390    0.00633     4.27011
      C    7   -0.07023      0.99948     2.05948    0.01128     3.07023
      C    8   -0.06212      0.99951     2.05365    0.00896     3.06212
      C    9    0.09567      0.99934     1.89194    0.01304     2.90433
      C   10    0.17424      0.99935     1.81272    0.01369     2.82576
      C   11   -0.14397      0.99954     2.13623    0.00819     3.14397
      C   12   -0.05086      0.99954     2.04314    0.00818     3.05086
      O   13   -0.27343      0.99986     3.26463    0.00894     4.27343
      C   14   -0.02384      0.99958     2.01170    0.01256     3.02384
      C   15   -0.02495      0.99958     2.01267    0.01270     3.02495
      O   16   -0.28170      0.99987     3.27264    0.00920     4.28170
      N   17   -0.42447      0.99977     2.91551    0.00918     3.92447
      H   18    0.10825      0.00000     0.39046    0.00130     0.39175
      H   19    0.11407      0.00000     0.38457    0.00137     0.38593
      H   20    0.11265      0.00000     0.38567    0.00168     0.38735
      H   21    0.09189      0.00000     0.40657    0.00154     0.40811
      H   22    0.09976      0.00000     0.39810    0.00214     0.40024
      H   23    0.09808      0.00000     0.40060    0.00132     0.40192
      H   24    0.10609      0.00000     0.39249    0.00142     0.39391
      H   25    0.09187      0.00000     0.40679    0.00134     0.40813
      H   26    0.08472      0.00000     0.41395    0.00133     0.41528
      H   27    0.09242      0.00000     0.40630    0.00128     0.40758
      H   28    0.08384      0.00000     0.41482    0.00134     0.41616
      H   29    0.17242      0.00000     0.32625    0.00133     0.32758
      H   30    0.18154      0.00000     0.31653    0.00193     0.31846
 =======================================================================
   * Total *    0.00000     16.99268    43.81026    0.19706    61.00000

 Normal termination of Gaussian 16 at Fri Dec 11 13:04:51 2020.
