 Gaussian 16, Revision A.03,

 -----------------------------------------------------------
 # opt freq B3LYP/6-31G(d) empiricaldispersion=gd3bj scf=xqc
 -----------------------------------------------------------

 ------------------------------
 CID_66557205_JID_6606_neutraal
 ------------------------------
 Symbolic Z-matrix:
 Charge =  0 Multiplicity = 1

 SCF Done:  E(RB3LYP) =  -694.799058153     A.U. after   14 cycles
 SCF Done:  E(RB3LYP) =  -694.803741741     A.U. after   12 cycles
 SCF Done:  E(RB3LYP) =  -694.804796170     A.U. after   11 cycles
 SCF Done:  E(RB3LYP) =  -694.805470291     A.U. after   11 cycles
 SCF Done:  E(RB3LYP) =  -694.805702514     A.U. after   11 cycles
 SCF Done:  E(RB3LYP) =  -694.805850671     A.U. after   11 cycles
 SCF Done:  E(RB3LYP) =  -694.805872873     A.U. after   10 cycles
 SCF Done:  E(RB3LYP) =  -694.805881683     A.U. after    9 cycles
 SCF Done:  E(RB3LYP) =  -694.805884083     A.U. after    8 cycles
 SCF Done:  E(RB3LYP) =  -694.805884165     A.U. after    7 cycles
 SCF Done:  E(RB3LYP) =  -694.805884309     A.U. after    7 cycles
 Optimization completed.
    -- Stationary point found.
 Normal termination of Gaussian 16 at Thu Dec 10 23:52:01 2020.

 --------------------------------------------------------------------
 #N Geom=AllCheck Guess=TCheck SCRF=Check GenChk RB3LYP/6-31G(d) Freq
 --------------------------------------------------------------------

 Structure from the checkpoint file:  "JID_6606.chk"
 ------------------------------
 CID_66557205_JID_6606_neutraal
 ------------------------------
 Charge =  0 Multiplicity = 1

 SCF Done:  E(RB3LYP) =  -694.805884309     A.U. after    1 cycles

  Exact polarizability: 176.525 -16.985 146.388  11.487  15.568 115.630
 Approx polarizability: 249.331 -33.892 239.852  28.892  33.880 177.912

                      1                      2                      3
                      A                      A                      A
 Frequencies --     39.8910                57.1884                86.0705
 Red. masses --      3.6441                 3.1992                 3.0207
 Frc consts  --      0.0034                 0.0062                 0.0132
 IR Inten    --      0.1413                 1.8156                 0.5356

                      4                      5                      6
                      A                      A                      A
 Frequencies --    111.2651               126.5960               174.8077
 Red. masses --      3.7168                 2.8020                 1.5055
 Frc consts  --      0.0271                 0.0265                 0.0271
 IR Inten    --      3.0842                 0.1270                 0.8997

                      7                      8                      9
                      A                      A                      A
 Frequencies --    195.0992               214.1564               231.6027
 Red. masses --      2.5833                 2.1805                 2.9241
 Frc consts  --      0.0579                 0.0589                 0.0924
 IR Inten    --      0.8803                 0.9997                 1.2652

                     10                     11                     12
                      A                      A                      A
 Frequencies --    245.5415               256.9270               295.3166
 Red. masses --      1.5717                 2.1609                 2.3371
 Frc consts  --      0.0558                 0.0840                 0.1201
 IR Inten    --      0.2585                 1.0820                 0.4394

                     13                     14                     15
                      A                      A                      A
 Frequencies --    314.4224               356.0928               389.6819
 Red. masses --      2.6841                 3.8590                 2.6590
 Frc consts  --      0.1563                 0.2883                 0.2379
 IR Inten    --      1.6887                 3.8966                 0.5198

                     16                     17                     18
                      A                      A                      A
 Frequencies --    414.4343               428.4925               446.3574
 Red. masses --      2.7511                 3.4051                 2.9654
 Frc consts  --      0.2784                 0.3684                 0.3481
 IR Inten    --      0.3409                 1.5203                 2.0831

                     19                     20                     21
                      A                      A                      A
 Frequencies --    462.3384               518.3012               531.1403
 Red. masses --      4.4131                 4.2063                 3.9729
 Frc consts  --      0.5558                 0.6657                 0.6604
 IR Inten    --      5.5677                 1.0068                 4.4143

                     22                     23                     24
                      A                      A                      A
 Frequencies --    570.4378               587.6830               601.0669
 Red. masses --      3.1854                 3.2663                 2.5866
 Frc consts  --      0.6107                 0.6647                 0.5506
 IR Inten    --      3.1885                 4.8412                 1.0406

                     25                     26                     27
                      A                      A                      A
 Frequencies --    655.8029               706.2563               731.0641
 Red. masses --      3.1160                 4.4355                 2.9548
 Frc consts  --      0.7896                 1.3035                 0.9304
 IR Inten    --      1.6410                13.5498                 0.7196

                     28                     29                     30
                      A                      A                      A
 Frequencies --    767.8373               775.5171               819.8971
 Red. masses --      3.6362                 3.1840                 1.5202
 Frc consts  --      1.2631                 1.1283                 0.6021
 IR Inten    --      0.8758                11.4573                 8.9188

                     31                     32                     33
                      A                      A                      A
 Frequencies --    837.3990               856.9971               881.0726
 Red. masses --      1.5784                 1.6629                 1.9711
 Frc consts  --      0.6521                 0.7196                 0.9015
 IR Inten    --     12.4647                28.4232                 2.5774

                     34                     35                     36
                      A                      A                      A
 Frequencies --    884.4928               922.1182               941.6942
 Red. masses --      2.2621                 2.6557                 1.2852
 Frc consts  --      1.0427                 1.3305                 0.6715
 IR Inten    --     20.8535                 2.0777                 0.0408

                     37                     38                     39
                      A                      A                      A
 Frequencies --    963.8553               998.6158              1014.0134
 Red. masses --      2.5188                 2.0517                 1.8165
 Frc consts  --      1.3787                 1.2055                 1.1005
 IR Inten    --      7.5664                 2.4833                 5.8641

                     40                     41                     42
                      A                      A                      A
 Frequencies --   1037.4041              1055.8415              1066.3203
 Red. masses --      1.9027                 2.7084                 2.4853
 Frc consts  --      1.2065                 1.7790                 1.6650
 IR Inten    --     17.0335                18.8414                12.8117

                     43                     44                     45
                      A                      A                      A
 Frequencies --   1086.6778              1092.9160              1130.8341
 Red. masses --      2.6362                 2.5714                 1.8895
 Frc consts  --      1.8342                 1.8096                 1.4236
 IR Inten    --     36.5107                58.5217                 1.9717

                     46                     47                     48
                      A                      A                      A
 Frequencies --   1136.8559              1185.9317              1187.3248
 Red. masses --      2.1328                 1.5664                 1.2724
 Frc consts  --      1.6241                 1.2980                 1.0568
 IR Inten    --     17.7189                 7.2246                 0.8151

                     49                     50                     51
                      A                      A                      A
 Frequencies --   1193.8447              1224.0132              1225.1713
 Red. masses --      1.6561                 1.3966                 1.3980
 Frc consts  --      1.3907                 1.2328                 1.2364
 IR Inten    --     13.1993                 2.8227                 1.8266

                     52                     53                     54
                      A                      A                      A
 Frequencies --   1242.7934              1248.4051              1279.8356
 Red. masses --      1.1942                 2.5360                 1.5195
 Frc consts  --      1.0867                 2.3287                 1.4664
 IR Inten    --      4.9803               259.6379                 2.4478

                     55                     56                     57
                      A                      A                      A
 Frequencies --   1289.1605              1324.6062              1329.9914
 Red. masses --      2.2016                 1.2819                 2.1440
 Frc consts  --      2.1558                 1.3252                 2.2344
 IR Inten    --     60.6482                24.3379                12.8191

                     58                     59                     60
                      A                      A                      A
 Frequencies --   1360.1339              1368.5550              1376.9837
 Red. masses --      2.4911                 1.2541                 1.4365
 Frc consts  --      2.7153                 1.3839                 1.6048
 IR Inten    --     16.4116                 7.0025                 7.8822

                     61                     62                     63
                      A                      A                      A
 Frequencies --   1389.1951              1413.6923              1430.5156
 Red. masses --      1.7559                 1.4417                 1.3454
 Frc consts  --      1.9965                 1.6976                 1.6221
 IR Inten    --     27.3614                 8.3950                13.7361

                     64                     65                     66
                      A                      A                      A
 Frequencies --   1444.6820              1469.7142              1501.3936
 Red. masses --      1.2541                 2.8912                 1.0896
 Frc consts  --      1.5421                 3.6796                 1.4471
 IR Inten    --      2.9649                33.9913                 4.4519

                     67                     68                     69
                      A                      A                      A
 Frequencies --   1504.7204              1512.6314              1515.2846
 Red. masses --      1.3229                 1.0786                 1.0856
 Frc consts  --      1.7648                 1.4540                 1.4687
 IR Inten    --      7.9600                 5.3754                 2.8796

                     70                     71                     72
                      A                      A                      A
 Frequencies --   1520.0722              1522.5387              1524.3351
 Red. masses --      1.0481                 1.0764                 1.1071
 Frc consts  --      1.4269                 1.4702                 1.5157
 IR Inten    --      5.8263                 3.4915                15.3165

                     73                     74                     75
                      A                      A                      A
 Frequencies --   1532.0583              1536.2076              1555.2813
 Red. masses --      1.1146                 1.0925                 2.3031
 Frc consts  --      1.5414                 1.5190                 3.2823
 IR Inten    --     16.7697                61.9967               126.6656

                     76                     77                     78
                      A                      A                      A
 Frequencies --   1644.5125              1669.4415              1754.5013
 Red. masses --      7.7544                 5.8794                 6.8358
 Frc consts  --     12.3559                 9.6544                12.3979
 IR Inten    --      3.3479                40.0553                 1.3881

                     79                     80                     81
                      A                      A                      A
 Frequencies --   3020.6020              3021.0505              3026.7733
 Red. masses --      1.0354                 1.0647                 1.0445
 Frc consts  --      5.5658                 5.7252                 5.6381
 IR Inten    --     53.7143                18.6344                22.8794

                     82                     83                     84
                      A                      A                      A
 Frequencies --   3033.6489              3038.0300              3061.4271
 Red. masses --      1.0658                 1.0637                 1.0726
 Frc consts  --      5.7792                 5.7846                 5.9229
 IR Inten    --     36.2849                70.9842                41.9552

                     85                     86                     87
                      A                      A                      A
 Frequencies --   3070.9692              3076.9900              3081.4439
 Red. masses --      1.0989                 1.1063                 1.0934
 Frc consts  --      6.1059                 6.1714                 6.1172
 IR Inten    --     28.9717                46.1612                25.3084

                     88                     89                     90
                      A                      A                      A
 Frequencies --   3098.3964              3109.4792              3126.0360
 Red. masses --      1.0931                 1.1001                 1.0986
 Frc consts  --      6.1826                 6.2672                 6.3254
 IR Inten    --     26.3784                55.5893                14.9211

                     91                     92                     93
                      A                      A                      A
 Frequencies --   3138.4643              3152.4996              3155.2822
 Red. masses --      1.0949                 1.0890                 1.0992
 Frc consts  --      6.3541                 6.3765                 6.4479
 IR Inten    --     11.0831                31.3421                31.0997

                     94                     95                     96
                      A                      A                      A
 Frequencies --   3198.1843              3210.6494              3218.7807
 Red. masses --      1.0882                 1.0891                 1.0942
 Frc consts  --      6.5580                 6.6143                 6.6794
 IR Inten    --     10.5490                 9.4532                 8.1264

 - Thermochemistry -
 -------------------
 Temperature   298.150 Kelvin.  Pressure   1.00000 Atm.
 Atom     1 has atomic number  6 and mass  12.00000

 Molecular mass:   218.13068 amu.
 Principal axes and moments of inertia in atomic units:
                           1         2         3
     Eigenvalues --  2106.534204779.333465203.21341
           X            0.99980  -0.01794  -0.00936
           Y            0.01856   0.99731   0.07089
           Z            0.00807  -0.07105   0.99744
 This molecule is an asymmetric top.
 Rotational symmetry number  1.
 Warning -- assumption of classical behavior for rotation
           may cause significant error
 Rotational temperatures (Kelvin)      0.04112     0.01812     0.01665
 Rotational constants (GHZ):           0.85673     0.37761     0.34685
 Zero-point vibrational energy     772396.6 (Joules/Mol)
                                  184.60722 (Kcal/Mol)
 Warning -- explicit consideration of  24 degrees of freedom as
           vibrations may cause significant error
 Vibrational temperatures:     57.39    82.28   123.84   160.09   182.14
          (Kelvin)            251.51   280.70   308.12   333.22   353.28
                              369.66   424.89   452.38   512.34   560.67
                              596.28   616.51   642.21   665.20   745.72
                              764.19   820.73   845.54   864.80   943.55
                             1016.15  1051.84  1104.75  1115.80  1179.65
                             1204.83  1233.03  1267.67  1272.59  1326.72
                             1354.89  1386.77  1436.79  1458.94  1492.59
                             1519.12  1534.20  1563.49  1572.46  1627.02
                             1635.68  1706.29  1708.30  1717.68  1761.08
                             1762.75  1788.10  1796.18  1841.40  1854.81
                             1905.81  1913.56  1956.93  1969.05  1981.17
                             1998.74  2033.99  2058.19  2078.58  2114.59
                             2160.17  2164.96  2176.34  2180.16  2187.04
                             2190.59  2193.18  2204.29  2210.26  2237.70
                             2366.09  2401.95  2524.34  4345.97  4346.62
                             4354.85  4364.74  4371.05  4404.71  4418.44
                             4427.10  4433.51  4457.90  4473.85  4497.67
                             4515.55  4535.74  4539.75  4601.47  4619.41
                             4631.11

 Zero-point correction=                           0.294190 (Hartree/Particle)
 Thermal correction to Energy=                    0.309064
 Thermal correction to Enthalpy=                  0.310008
 Thermal correction to Gibbs Free Energy=         0.252602
 Sum of electronic and zero-point Energies=           -694.511694
 Sum of electronic and thermal Energies=              -694.496820
 Sum of electronic and thermal Enthalpies=            -694.495876
 Sum of electronic and thermal Free Energies=         -694.553282

                     E (Thermal)             CV                S
                      KCal/Mol        Cal/Mol-Kelvin    Cal/Mol-Kelvin
 Total                  193.941             58.545            120.822
 Electronic               0.000              0.000              0.000
 Translational            0.889              2.981             42.043
 Rotational               0.889              2.981             32.327
 Vibrational            192.163             52.583             46.452
 Vibration     1          0.594              1.981              5.264
 Vibration     2          0.596              1.975              4.552
 Vibration     3          0.601              1.959              3.747
 Vibration     4          0.607              1.940              3.247
 Vibration     5          0.611              1.927              2.997
 Vibration     6          0.627              1.873              2.383
 Vibration     7          0.636              1.847              2.179
 Vibration     8          0.644              1.819              2.008
 Vibration     9          0.653              1.793              1.866
 Vibration    10          0.660              1.770              1.762
 Vibration    11          0.667              1.751              1.683
 Vibration    12          0.690              1.682              1.443
 Vibration    13          0.702              1.646              1.339
 Vibration    14          0.732              1.563              1.139
 Vibration    15          0.758              1.492              1.001
 Vibration    16          0.778              1.439              0.911
 Vibration    17          0.790              1.408              0.864
 Vibration    18          0.806              1.369              0.807
 Vibration    19          0.820              1.334              0.759
 Vibration    20          0.873              1.209              0.614
 Vibration    21          0.886              1.181              0.585
 Vibration    22          0.927              1.095              0.503
 Vibration    23          0.945              1.058              0.471
 Vibration    24          0.959              1.030              0.448

                           ! Non-Optimized Parameters !
 Normal termination of Gaussian 16 at Fri Dec 11 00:04:10 2020.

 ----------------------------------------------------------------------
 # B3LYP/6-311++G(d,p) empiricaldispersion=gd3bj scf=xqc pop=npa geom=c
 heck
 ----------------------------------------------------------------------

 --------------------------------------
 CID_66557205_JID_6606_Energie_neutraal
 --------------------------------------
 Structure from the checkpoint file:  "JID_6606.chk"
 Charge =  0 Multiplicity = 1

 SCF Done:  E(RB3LYP) =  -694.992413740     A.U. after   15 cycles
 Normal termination of Gaussian 16 at Fri Dec 11 00:10:02 2020.

 ----------------------------------------------------------------------
 # B3LYP/6-311++G(d,p) empiricaldispersion=gd3bj scf=xqc pop=npa geom=c
 heck
 ----------------------------------------------------------------------

 ------------------------------------
 CID_66557205_JID_6606_Energie_kation
 ------------------------------------
 Structure from the checkpoint file:  "JID_6606.chk"
 Charge =  1 Multiplicity = 2

 SCF Done:  E(UB3LYP) =  -694.719841482     A.U. after   22 cycles
 Normal termination of Gaussian 16 at Fri Dec 11 00:21:56 2020.
 Gaussian 16:  ES64L-G16RevA.03 25-Dec-2016

 ----------------------------------------------------------------------
 # B3LYP/6-311++G(d,p) empiricaldispersion=gd3bj scf=xqc pop=npa geom=c
 heck
 ----------------------------------------------------------------------

 -----------------------------------
 CID_66557205_JID_6606_Energie_anion
 -----------------------------------
 Structure from the checkpoint file:  "JID_6606.chk"
 Charge = -1 Multiplicity = 2

                         Standard orientation:
 ---------------------------------------------------------------------
 Center     Atomic      Atomic             Coordinates (Angstroms)
 Number     Number       Type             X           Y           Z
 ---------------------------------------------------------------------
      1          6           0       -2.337751   -0.254409    2.431732
      2          6           0       -2.209922   -0.708406    0.999185
      3          6           0       -1.393737   -1.716859    0.667540
      4          6           0       -1.095220   -2.248183   -0.715602
      5          6           0       -0.450441   -1.224082   -1.706954
      6          6           0        0.386968   -0.181758   -1.013802
      7          6           0       -0.151078    1.079713   -0.741277
      8          6           0        0.582885    2.022531   -0.015623
      9          6           0        1.851725    1.714048    0.455258
     10          6           0        2.405791    0.455565    0.185258
     11          6           0        1.674633   -0.480771   -0.549966
     12          8           0        3.663984    0.242951    0.678931
     13          6           0        4.263741   -1.015994    0.435516
     14          8           0       -1.389083    1.421200   -1.259838
     15          6           0       -2.490576    1.455965   -0.351739
     16          6           0       -3.042879    0.064264    0.002005
     17          1           0       -3.377619   -0.323591    2.780575
     18          1           0       -2.038128    0.796332    2.546036
     19          1           0       -1.711196   -0.851083    3.101174
     20          1           0       -0.829360   -2.180710    1.475420
     21          1           0       -0.416022   -3.100145   -0.604864
     22          1           0       -2.004249   -2.647824   -1.185707
     23          1           0        0.156796   -1.778870   -2.431872
     24          1           0       -1.235721   -0.714627   -2.267792
     25          1           0        0.151333    3.002797    0.164164
     26          1           0        2.437800    2.432842    1.018367
     27          1           0        2.085631   -1.461557   -0.763108
     28          1           0        3.679851   -1.834254    0.878596
     29          1           0        4.384126   -1.205535   -0.639700
     30          1           0        5.247226   -0.977951    0.907450
     31          1           0       -2.211057    2.005711    0.557328
     32          1           0       -3.261133    2.032322   -0.872503
     33          1           0       -4.047162    0.218705    0.424149
     34          1           0       -3.175161   -0.495520   -0.929651
 ---------------------------------------------------------------------

 SCF Done:  E(UB3LYP) =  -694.978525544     A.U. after   33 cycles
 SCF Done:  E(UB3LYP) =  -694.978525544     a.u. after    1 cycles

 The electronic state is 2-A.
 Alpha  occ. eigenvalues --  -19.05630 -19.03985 -10.13620 -10.13072 -10.12257
 Alpha  occ. eigenvalues --  -10.12252 -10.08325 -10.08008 -10.07827 -10.07777
 Alpha  occ. eigenvalues --  -10.07633 -10.07545 -10.07394 -10.07349 -10.06852
 Alpha  occ. eigenvalues --  -10.06295  -0.97202  -0.95626  -0.76121  -0.72891
 Alpha  occ. eigenvalues --   -0.69613  -0.66128  -0.64658  -0.63362  -0.60116
 Alpha  occ. eigenvalues --   -0.58460  -0.54515  -0.52905  -0.50269  -0.47506
 Alpha  occ. eigenvalues --   -0.43801  -0.42451  -0.41531  -0.40431  -0.37954
 Alpha  occ. eigenvalues --   -0.37172  -0.36987  -0.35950  -0.34715  -0.33257
 Alpha  occ. eigenvalues --   -0.33063  -0.32419  -0.31695  -0.30867  -0.30403
 Alpha  occ. eigenvalues --   -0.29561  -0.28256  -0.27349  -0.26968  -0.26817
 Alpha  occ. eigenvalues --   -0.25059  -0.23569  -0.23340  -0.22699  -0.21260
 Alpha  occ. eigenvalues --   -0.18575  -0.15575  -0.14298  -0.11679   0.04242
 Alpha virt. eigenvalues --    0.05662   0.06934   0.07459   0.07733   0.08054
 Alpha virt. eigenvalues --    0.08465   0.08902   0.09527   0.09694   0.10238
 Alpha virt. eigenvalues --    0.10786   0.10879   0.11486   0.11697   0.12142

  Beta  occ. eigenvalues --  -19.05621 -19.03983 -10.13622 -10.13057 -10.12254
  Beta  occ. eigenvalues --  -10.12207 -10.08321 -10.07994 -10.07829 -10.07754
  Beta  occ. eigenvalues --  -10.07625 -10.07526 -10.07385 -10.07327 -10.06829
  Beta  occ. eigenvalues --  -10.06280  -0.97182  -0.95620  -0.76102  -0.72868
  Beta  occ. eigenvalues --   -0.69587  -0.66100  -0.64622  -0.63328  -0.60062
  Beta  occ. eigenvalues --   -0.58421  -0.54468  -0.52864  -0.50233  -0.47472
  Beta  occ. eigenvalues --   -0.43773  -0.42421  -0.41498  -0.40402  -0.37920
  Beta  occ. eigenvalues --   -0.37141  -0.36955  -0.35918  -0.34677  -0.33229
  Beta  occ. eigenvalues --   -0.33031  -0.32388  -0.31673  -0.30834  -0.30372
  Beta  occ. eigenvalues --   -0.29533  -0.28226  -0.27320  -0.26938  -0.26789
  Beta  occ. eigenvalues --   -0.25029  -0.23540  -0.23312  -0.22672  -0.21230
  Beta  occ. eigenvalues --   -0.18558  -0.15516  -0.14266  -0.11652
  Beta virt. eigenvalues --    0.06334   0.06868   0.07272   0.07807   0.08116
  Beta virt. eigenvalues --    0.08232   0.08961   0.09318   0.09749   0.09979
  Beta virt. eigenvalues --    0.10611   0.11107   0.11150   0.11825   0.11859

 Mulliken charges and spin densities:
               1          2
     1  C    0.990988  -1.622216
     2  C   -0.009978   0.791269
     3  C   -0.107145  -0.008750
     4  C    0.430263  -1.039426
     5  C    0.069425  -0.376516
     6  C    0.920753   0.479598
     7  C   -0.530613  -0.424944
     8  C    0.074848  -0.145913
     9  C   -0.235250   0.389751
    10  C   -0.463372  -0.494133
    11  C    0.102758  -0.120631
    12  O   -0.221308   0.061100
    13  C    0.926915  -1.310836
    14  O   -0.119227   0.018395
    15  C    0.278637  -0.536242
    16  C   -1.145331   0.408366
    17  H   -0.159369   0.304838
    18  H    0.055782   0.078062
    19  H   -0.087637   0.231867
    20  H   -0.154618   0.323973
    21  H   -0.179399   0.329194
    22  H   -0.058912   0.218804
    23  H   -0.107470   0.285443
    24  H    0.210209  -0.019162
    25  H    0.034280   0.138526
    26  H    0.069410   0.115154
    27  H    0.000040   0.216112
    28  H   -0.299209   0.464673
    29  H   -0.353710   0.512042
    30  H   -0.405618   0.574617
    31  H    0.079323   0.010638
    32  H   -0.337394   0.520388
    33  H   -0.422249   0.595295
    34  H    0.154180   0.030664
 Sum of Mulliken charges =  -1.00000   1.00000

 Dipole moment (field-independent basis, Debye):
    X=             -1.7630    Y=              3.6105    Z=             -0.8882  Tot=              4.1149
 Quadrupole moment (field-independent basis, Debye-Ang):
   XX=           -184.1668   YY=           -140.4518   ZZ=           -133.5347
   XY=             13.2419   XZ=              3.1559   YZ=              3.5824

 Summary of Natural Population Analysis:

                                       Natural Population
                Natural  -----------------------------------------------
    Atom  No    Charge         Core      Valence    Rydberg      Total
 -----------------------------------------------------------------------
      C    1   -0.29355      0.99962     2.28808    0.00584     3.29355
      C    2   -0.01023      0.99947     2.00010    0.01065     3.01023
      C    3   -0.09001      0.99944     2.08025    0.01031     3.09001
      C    4   -0.20482      0.99961     2.19615    0.00906     3.20482
      C    5   -0.19666      0.99959     2.18791    0.00916     3.19666
      C    6   -0.01787      0.99947     2.00781    0.01059     3.01787
      C    7    0.13900      0.99929     1.84898    0.01273     2.86100
      C    8   -0.10994      0.99951     2.10206    0.00837     3.10994
      C    9   -0.11900      0.99953     2.11035    0.00912     3.11900
      C   10    0.15816      0.99938     1.82868    0.01378     2.84184
      C   11   -0.13641      0.99947     2.12856    0.00838     3.13641
      O   12   -0.27461      0.99986     3.26496    0.00979     4.27461
      C   13   -0.10073      0.99960     2.09194    0.00919     3.10073
      O   14   -0.29593      0.99986     3.28720    0.00887     4.29593
      C   15   -0.00174      0.99955     1.98918    0.01301     3.00174
      C   16   -0.22017      0.99958     2.21083    0.00976     3.22017
      H   17    0.10030      0.00000     0.39855    0.00115     0.39970
      H   18    0.09963      0.00000     0.39908    0.00129     0.40037
      H   19    0.10315      0.00000     0.39595    0.00091     0.39685
      H   20    0.09536      0.00000     0.40354    0.00110     0.40464
      H   21    0.10276      0.00000     0.39574    0.00150     0.39724
      H   22    0.10170      0.00000     0.39720    0.00109     0.39830
      H   23    0.10347      0.00000     0.39541    0.00111     0.39653
      H   24    0.10691      0.00000     0.39142    0.00168     0.39309
      H   25    0.10257      0.00000     0.39644    0.00099     0.39743
      H   26    0.10429      0.00000     0.39465    0.00106     0.39571
      H   27    0.10772      0.00000     0.39052    0.00177     0.39228
      H   28    0.08691      0.00000     0.41092    0.00217     0.41309
      H   29    0.08531      0.00000     0.41280    0.00189     0.41469
      H   30    0.09331      0.00000     0.40532    0.00136     0.40669
      H   31    0.08087      0.00000     0.41769    0.00144     0.41913
      H   32    0.09015      0.00000     0.40852    0.00133     0.40985
      H   33    0.10560      0.00000     0.39244    0.00196     0.39440
      H   34    0.10449      0.00000     0.39416    0.00135     0.39551
 =======================================================================
   * Total *   -0.00000     15.99283    42.82339    0.18377    59.00000

 Normal termination of Gaussian 16 at Fri Dec 11 00:40:02 2020.
