 Gaussian 16, Revision A.03,

 -----------------------------------------------------------
 # opt freq B3LYP/6-31G(d) empiricaldispersion=gd3bj scf=xqc
 -----------------------------------------------------------

 -----------------------------
 CID_12697562_JID_262_neutraal
 -----------------------------
 Symbolic Z-matrix:
 Charge =  0 Multiplicity = 1

 SCF Done:  E(RB3LYP) =  -427.788463326     A.U. after   13 cycles
 SCF Done:  E(RB3LYP) =  -427.794127838     A.U. after   11 cycles
 SCF Done:  E(RB3LYP) =  -427.794591844     A.U. after   11 cycles
 SCF Done:  E(RB3LYP) =  -427.794642103     A.U. after   10 cycles
 SCF Done:  E(RB3LYP) =  -427.794638606     A.U. after   10 cycles
 SCF Done:  E(RB3LYP) =  -427.794657839     A.U. after    9 cycles
 SCF Done:  E(RB3LYP) =  -427.794663789     A.U. after    9 cycles
 SCF Done:  E(RB3LYP) =  -427.794672488     A.U. after   10 cycles
 SCF Done:  E(RB3LYP) =  -427.794710084     A.U. after   11 cycles
 SCF Done:  E(RB3LYP) =  -427.794537917     A.U. after   12 cycles
 SCF Done:  E(RB3LYP) =  -427.795091533     A.U. after   11 cycles
 SCF Done:  E(RB3LYP) =  -427.795141752     A.U. after   11 cycles
 SCF Done:  E(RB3LYP) =  -427.795156883     A.U. after   10 cycles
 SCF Done:  E(RB3LYP) =  -427.795158027     A.U. after   10 cycles
 SCF Done:  E(RB3LYP) =  -427.795159021     A.U. after    9 cycles
 Optimization completed.
    -- Stationary point found.

 1\1\GINC-NODE113\FOpt\RB3LYP\6-31G(d)\C9H16O1\VSC10255\08-Dec-2020\0\\
 # opt freq B3LYP/6-31G(d) empiricaldispersion=gd3bj scf=xqc\\CID_12697
 562_JID_262_neutraal\\0,1\C,0.9279203643,-0.058105113,0.0888120482\C,0
 .6142660588,-0.7044735375,1.4412783959\C,1.1509909932,0.0776087816,2.6
 49535582\C,0.6583996203,1.5295287815,2.7605394383\C,-0.8687489986,1.69
 60354466,2.8149772171\C,-1.5417639538,0.9708520023,3.9694873536\C,-2.9
 193901333,0.478984855,3.812559861\O,-1.8163099203,-0.4333742942,3.7331
 812057\C,-1.0181443773,1.2620782028,5.3390707282\C,-1.6675218291,1.982

 Normal termination of Gaussian 16 at Tue Dec  8 10:25:30 2020.

 --------------------------------------------------------------------
 #N Geom=AllCheck Guess=TCheck SCRF=Check GenChk RB3LYP/6-31G(d) Freq
 --------------------------------------------------------------------

 Structure from the checkpoint file:  "JID_262.chk"
 -----------------------------
 CID_12697562_JID_262_neutraal
 -----------------------------
 Charge =  0 Multiplicity = 1

 SCF Done:  E(RB3LYP) =  -427.795159021     A.U. after    1 cycles

  Exact polarizability: 116.465   3.710  90.207  -3.028   5.160  77.468
 Approx polarizability: 147.758   4.717 128.364  -9.559   5.068 116.919

                      1                      2                      3
                      A                      A                      A
 Frequencies --     49.4276                59.7251                71.6599
 Red. masses --      3.5750                 3.0862                 2.7563
 Frc consts  --      0.0051                 0.0065                 0.0083
 IR Inten    --      0.2526                 0.1810                 0.0487

                      4                      5                      6
                      A                      A                      A
 Frequencies --    113.2853               152.8746               197.3297
 Red. masses --      2.6420                 2.7386                 1.6124
 Frc consts  --      0.0200                 0.0377                 0.0370
 IR Inten    --      1.7532                 0.4697                 0.6241

                      7                      8                      9
                      A                      A                      A
 Frequencies --    252.0729               271.5383               293.4077
 Red. masses --      2.2686                 1.9416                 1.8949
 Frc consts  --      0.0849                 0.0843                 0.0961
 IR Inten    --      1.5364                 3.4904                 0.6030

                     10                     11                     12
                      A                      A                      A
 Frequencies --    327.2797               352.0018               385.0810
 Red. masses --      1.9102                 2.1674                 2.4385
 Frc consts  --      0.1206                 0.1582                 0.2130
 IR Inten    --      2.3564                 0.8476                 6.2216

                     13                     14                     15
                      A                      A                      A
 Frequencies --    428.4318               503.7582               589.7591
 Red. masses --      2.1578                 2.5189                 2.4143
 Frc consts  --      0.2334                 0.3766                 0.4948
 IR Inten    --      0.0892                 1.2855                 7.2091

                     16                     17                     18
                      A                      A                      A
 Frequencies --    676.5882               701.6015               752.4488
 Red. masses --      2.5937                 1.8177                 1.4678
 Frc consts  --      0.6995                 0.5272                 0.4896
 IR Inten    --      4.9493                 3.5921                14.3603

                     19                     20                     21
                      A                      A                      A
 Frequencies --    781.2669               830.1981               859.2295
 Red. masses --      2.0295                 3.4625                 1.5288
 Frc consts  --      0.7299                 1.4060                 0.6650
 IR Inten    --      5.3211                13.8116                 4.7098

                     22                     23                     24
                      A                      A                      A
 Frequencies --    899.3010               920.3832               957.4849
 Red. masses --      1.8924                 1.5312                 1.3582
 Frc consts  --      0.9017                 0.7642                 0.7336
 IR Inten    --      7.9333                 1.6545                30.0162

                     25                     26                     27
                      A                      A                      A
 Frequencies --    959.7166               975.0951              1001.2201
 Red. masses --      2.8414                 1.5031                 1.7306
 Frc consts  --      1.5419                 0.8420                 1.0221
 IR Inten    --     20.9271                 0.2824                 2.3474

                     28                     29                     30
                      A                      A                      A
 Frequencies --   1032.2871              1039.8887              1087.8507
 Red. masses --      1.1022                 1.6264                 2.0220
 Frc consts  --      0.6920                 1.0362                 1.4099
 IR Inten    --     11.8411                 1.6773                 3.6782

                     31                     32                     33
                      A                      A                      A
 Frequencies --   1096.4739              1130.5091              1138.0723
 Red. masses --      1.5370                 1.6767                 1.3756
 Frc consts  --      1.0887                 1.2625                 1.0497
 IR Inten    --      8.6183                 0.3797                 2.4517

                     34                     35                     36
                      A                      A                      A
 Frequencies --   1150.1211              1168.9190              1205.3918
 Red. masses --      1.9172                 1.3742                 1.5194
 Frc consts  --      1.4942                 1.1063                 1.3007
 IR Inten    --      6.3800                 0.1755                 1.8296

                     37                     38                     39
                      A                      A                      A
 Frequencies --   1253.3322              1272.4002              1306.8586
 Red. masses --      1.3805                 1.9975                 1.2403
 Frc consts  --      1.2777                 1.9054                 1.2481
 IR Inten    --      0.0280                12.3127                 2.2818

                     40                     41                     42
                      A                      A                      A
 Frequencies --   1338.2478              1344.0726              1364.8546
 Red. masses --      1.3874                 1.1556                 1.6686
 Frc consts  --      1.4640                 1.2300                 1.8313
 IR Inten    --      3.2028                 1.2132                 6.3748

                     43                     44                     45
                      A                      A                      A
 Frequencies --   1387.2845              1410.1174              1419.3905
 Red. masses --      1.3816                 1.5633                 1.3838
 Frc consts  --      1.5667                 1.8315                 1.6426
 IR Inten    --      4.6447                 8.1336                 3.4999

                     46                     47                     48
                      A                      A                      A
 Frequencies --   1435.6369              1443.5592              1478.1244
 Red. masses --      1.8050                 1.2775                 1.2885
 Frc consts  --      2.1919                 1.5685                 1.6587
 IR Inten    --      2.3766                 4.4544                 9.1750

                     49                     50                     51
                      A                      A                      A
 Frequencies --   1500.9642              1514.8725              1526.3338
 Red. masses --      1.0910                 1.0775                 1.0819
 Frc consts  --      1.4482                 1.4569                 1.4851
 IR Inten    --      4.1154                 2.2308                 5.2042

                     52                     53                     54
                      A                      A                      A
 Frequencies --   1529.3267              1537.7297              1545.0493
 Red. masses --      1.0473                 1.0571                 1.0870
 Frc consts  --      1.4432                 1.4727                 1.5288
 IR Inten    --      4.9766                 4.5719                 4.1553

                     55                     56                     57
                      A                      A                      A
 Frequencies --   1550.9896              1731.2094              3026.8393
 Red. masses --      1.3120                 4.6984                 1.0652
 Frc consts  --      1.8596                 8.2966                 5.7499
 IR Inten    --      2.6943                 0.9784                20.6820

                     58                     59                     60
                      A                      A                      A
 Frequencies --   3038.6061              3041.6165              3044.2454
 Red. masses --      1.0516                 1.0494                 1.0642
 Frc consts  --      5.7208                 5.7202                 5.8108
 IR Inten    --     22.1601                17.7499                57.7954

                     61                     62                     63
                      A                      A                      A
 Frequencies --   3050.0927              3066.2587              3079.6020
 Red. masses --      1.0649                 1.0994                 1.0978
 Frc consts  --      5.8370                 6.0903                 6.1342
 IR Inten    --     14.7431                 4.3452                40.1779

                     64                     65                     66
                      A                      A                      A
 Frequencies --   3089.6359              3092.1226              3106.6484
 Red. masses --      1.0974                 1.0998                 1.0511
 Frc consts  --      6.1721                 6.1953                 5.9772
 IR Inten    --     36.0973                48.1542                26.3750

                     67                     68                     69
                      A                      A                      A
 Frequencies --   3110.2555              3111.2504              3158.9588
 Red. masses --      1.0996                 1.1021                 1.0598
 Frc consts  --      6.2673                 6.2858                 6.2308
 IR Inten    --     56.0553                57.2445                12.8268

                     70                     71                     72
                      A                      A                      A
 Frequencies --   3170.4047              3190.7370              3241.3884
 Red. masses --      1.0902                 1.1201                 1.1162
 Frc consts  --      6.4561                 6.7190                 6.9094
 IR Inten    --      4.8718                28.7153                16.0455

 - Thermochemistry -
 -------------------
 Temperature   298.150 Kelvin.  Pressure   1.00000 Atm.
 Atom     1 has atomic number  6 and mass  12.00000

 Molecular mass:   140.12012 amu.
 Principal axes and moments of inertia in atomic units:
                           1         2         3
     Eigenvalues --   737.913562411.908512685.70810
           X            0.99999   0.00478  -0.00058
           Y           -0.00475   0.99865   0.05165
           Z            0.00083  -0.05165   0.99866
 This molecule is an asymmetric top.
 Rotational symmetry number  1.
 Warning -- assumption of classical behavior for rotation
           may cause significant error
 Rotational temperatures (Kelvin)      0.11738     0.03591     0.03225
 Rotational constants (GHZ):           2.44574     0.74826     0.67198
 Zero-point vibrational energy     615602.5 (Joules/Mol)
                                  147.13252 (Kcal/Mol)
 Warning -- explicit consideration of  15 degrees of freedom as
           vibrations may cause significant error
 Vibrational temperatures:     71.12    85.93   103.10   162.99   219.95
          (Kelvin)            283.91   362.68   390.68   422.15   470.88
                              506.45   554.05   616.42   724.80   848.53
                              973.46  1009.45  1082.61  1124.07  1194.47
                             1236.24  1293.89  1324.23  1377.61  1380.82
                             1402.94  1440.53  1485.23  1496.17  1565.17
                             1577.58  1626.55  1637.43  1654.77  1681.81
                             1734.29  1803.27  1830.70  1880.28  1925.44
                             1933.82  1963.72  1995.99  2028.84  2042.19
                             2065.56  2076.96  2126.69  2159.55  2179.56
                             2196.05  2200.36  2212.45  2222.98  2231.53
                             2490.82  4354.95  4371.88  4376.21  4379.99
                             4388.40  4411.66  4430.86  4445.30  4448.87
                             4469.77  4474.96  4476.40  4545.04  4561.51
                             4590.76  4663.63

 Zero-point correction=                           0.234471 (Hartree/Particle)
 Thermal correction to Energy=                    0.245930
 Thermal correction to Enthalpy=                  0.246874
 Thermal correction to Gibbs Free Energy=         0.196847
 Sum of electronic and zero-point Energies=           -427.560688
 Sum of electronic and thermal Energies=              -427.549229
 Sum of electronic and thermal Enthalpies=            -427.548285
 Sum of electronic and thermal Free Energies=         -427.598312

                     E (Thermal)             CV                S
                      KCal/Mol        Cal/Mol-Kelvin    Cal/Mol-Kelvin
 Total                  154.324             42.377            105.292
 Electronic               0.000              0.000              0.000
 Translational            0.889              2.981             40.724
 Rotational               0.889              2.981             29.948
 Vibrational            152.546             36.416             34.620
 Vibration     1          0.595              1.978              4.840
 Vibration     2          0.597              1.974              4.466
 Vibration     3          0.598              1.968              4.107
 Vibration     4          0.607              1.938              3.212
 Vibration     5          0.619              1.899              2.636
 Vibration     6          0.637              1.844              2.158
 Vibration     7          0.664              1.759              1.716
 Vibration     8          0.675              1.726              1.586
 Vibration     9          0.688              1.686              1.454
 Vibration    10          0.711              1.621              1.273
 Vibration    11          0.729              1.571              1.157
 Vibration    12          0.754              1.502              1.019
 Vibration    13          0.790              1.408              0.864
 Vibration    14          0.859              1.242              0.649
 Vibration    15          0.947              1.054              0.468

 Optimization completed.
    -- Stationary point found.

 1\1\GINC-NODE113\Freq\RB3LYP\6-31G(d)\C9H16O1\VSC10255\08-Dec-2020\0\\
 #N Geom=AllCheck Guess=TCheck SCRF=Check GenChk RB3LYP/6-31G(d) Freq\\
 CID_12697562_JID_262_neutraal\\0,1\C,0.9279203643,-0.058105113,0.08881
 20482\C,0.6142660588,-0.7044735375,1.4412783959\C,1.1509909932,0.07760
 87816,2.649535582\C,0.6583996203,1.5295287815,2.7605394383\C,-0.868748
 9986,1.6960354466,2.8149772171\C,-1.5417639538,0.9708520023,3.96948735
 36\C,-2.9193901333,0.478984855,3.812559861\O,-1.8163099203,-0.43337429
 42,3.7331812057\C,-1.0181443773,1.2620782028,5.3390707282\C,-1.6675218

 Normal termination of Gaussian 16 at Tue Dec  8 10:30:37 2020.

 ----------------------------------------------------------------------
 # B3LYP/6-311++G(d,p) empiricaldispersion=gd3bj scf=xqc pop=npa geom=c
 heck
 ----------------------------------------------------------------------

 -------------------------------------
 CID_12697562_JID_262_Energie_neutraal
 -------------------------------------
 Structure from the checkpoint file:  "JID_262.chk"
 Charge =  0 Multiplicity = 1

 SCF Done:  E(RB3LYP) =  -427.917274233     A.U. after   13 cycles
 Normal termination of Gaussian 16 at Tue Dec  8 10:33:05 2020.

 ----------------------------------------------------------------------
 # B3LYP/6-311++G(d,p) empiricaldispersion=gd3bj scf=xqc pop=npa geom=c
 heck
 ----------------------------------------------------------------------

 -----------------------------------
 CID_12697562_JID_262_Energie_kation
 -----------------------------------
 Structure from the checkpoint file:  "JID_262.chk"
 Charge =  1 Multiplicity = 2

 SCF Done:  E(UB3LYP) =  -427.570019906     A.U. after   24 cycles
 Normal termination of Gaussian 16 at Tue Dec  8 10:39:43 2020.
 Gaussian 16:  ES64L-G16RevA.03 25-Dec-2016

 ----------------------------------
 CID_12697562_JID_262_Energie_anion
 ----------------------------------
 Structure from the checkpoint file:  "JID_262.chk"
 Charge = -1 Multiplicity = 2

                         Standard orientation:
 ---------------------------------------------------------------------
 Center     Atomic      Atomic             Coordinates (Angstroms)
 Number     Number       Type             X           Y           Z
 ---------------------------------------------------------------------
      1          6           0        3.508487    0.272637    0.422317
      2          6           0        2.425404    0.389837   -0.654034
      3          6           0        1.538928   -0.857278   -0.789960
      4          6           0        0.804178   -1.280808    0.492150
      5          6           0       -0.102559   -0.203368    1.108446
      6          6           0       -1.198986    0.302575    0.184540
      7          6           0       -1.683030    1.684994    0.322500
      8          8           0       -0.787859    1.339102   -0.742636
      9          6           0       -2.092912   -0.730798   -0.421914
     10          6           0       -3.362849   -0.923455   -0.069150
     11          1           0        3.078075    0.184897    1.426738
     12          1           0        4.161632    1.152522    0.422602
     13          1           0        4.138741   -0.610464    0.256706
     14          1           0        1.790587    1.261119   -0.458414
     15          1           0        2.902739    0.577321   -1.624801
     16          1           0        0.807306   -0.674906   -1.586876
     17          1           0        2.156513   -1.703381   -1.123224
     18          1           0        0.204379   -2.175301    0.279255
     19          1           0        1.533665   -1.586807    1.252167
     20          1           0       -0.580917   -0.612495    2.008426
     21          1           0        0.495935    0.657626    1.427469
     22          1           0       -2.696569    1.936222    0.012638
     23          1           0       -1.259806    2.327134    1.095592
     24          1           0       -1.635778   -1.360538   -1.183732
     25          1           0       -3.971944   -1.698364   -0.526215
     26          1           0       -3.841647   -0.313420    0.693392
 ---------------------------------------------------------------------

 SCF Done:  E(UB3LYP) =  -427.898702685     A.U. after   33 cycles
 SCF Done:  E(UB3LYP) =  -427.898702685     a.u. after    1 cycles

 The electronic state is 2-A.
 Alpha  occ. eigenvalues --  -19.03053 -10.13244 -10.11658 -10.07882 -10.06996
 Alpha  occ. eigenvalues --  -10.06727 -10.06142 -10.05759 -10.05543 -10.05195
 Alpha  occ. eigenvalues --   -0.97058  -0.70923  -0.68479  -0.64909  -0.59611
 Alpha  occ. eigenvalues --   -0.56009  -0.53927  -0.51247  -0.46013  -0.43461
 Alpha  occ. eigenvalues --   -0.39609  -0.38117  -0.36690  -0.35601  -0.34199
 Alpha  occ. eigenvalues --   -0.31705  -0.30867  -0.30035  -0.29292  -0.27513
 Alpha  occ. eigenvalues --   -0.26305  -0.25905  -0.24594  -0.22261  -0.21690
 Alpha  occ. eigenvalues --   -0.21357  -0.19479  -0.17488  -0.16874   0.04817
 Alpha virt. eigenvalues --    0.06675   0.07232   0.08273   0.08583   0.08843
 Alpha virt. eigenvalues --    0.09331   0.10170   0.10600   0.11211   0.11336
 Alpha virt. eigenvalues --    0.12334   0.13090   0.13573   0.14043   0.14501

  Beta  occ. eigenvalues --  -19.03046 -10.13245 -10.11628 -10.07874 -10.06945
  Beta  occ. eigenvalues --  -10.06703 -10.06125 -10.05750 -10.05535 -10.05158
  Beta  occ. eigenvalues --   -0.97043  -0.70895  -0.68448  -0.64870  -0.59566
  Beta  occ. eigenvalues --   -0.55959  -0.53866  -0.51175  -0.45957  -0.43406
  Beta  occ. eigenvalues --   -0.39580  -0.38069  -0.36653  -0.35559  -0.34160
  Beta  occ. eigenvalues --   -0.31676  -0.30818  -0.29994  -0.29252  -0.27480
  Beta  occ. eigenvalues --   -0.26265  -0.25871  -0.24566  -0.22235  -0.21663
  Beta  occ. eigenvalues --   -0.21327  -0.19448  -0.17434  -0.16849
  Beta virt. eigenvalues --    0.07071   0.07775   0.08114   0.08679   0.08843
  Beta virt. eigenvalues --    0.09476   0.10090   0.10603   0.11168   0.11619
  Beta virt. eigenvalues --    0.11738   0.12796   0.13611   0.13907   0.14528

 Mulliken charges and spin densities:
               1          2
     1  C    0.996080  -1.623503
     2  C   -0.632735   0.379382
     3  C   -0.143161   0.061385
     4  C   -0.286068   0.030533
     5  C    1.942177  -2.508512
     6  C   -0.445925   0.727887
     7  C    0.609221  -0.882193
     8  O   -0.096781   0.014344
     9  C   -2.476483   2.636706
    10  C    1.960514  -2.726554
    11  H   -0.232063   0.368185
    12  H   -0.199213   0.326884
    13  H   -0.293437   0.429872
    14  H    0.181763   0.012143
    15  H   -0.069714   0.199100
    16  H    0.052893   0.101877
    17  H   -0.261635   0.418343
    18  H   -0.041054   0.205281
    19  H   -0.054237   0.214311
    20  H   -0.179754   0.373526
    21  H    0.221054  -0.100884
    22  H   -0.012676   0.178597
    23  H   -0.489424   0.643414
    24  H   -0.181147   0.373159
    25  H   -0.333416   0.464444
    26  H   -0.534778   0.682271
 Sum of Mulliken charges =  -1.00000   1.00000

 Dipole moment (field-independent basis, Debye):
    X=              0.9903    Y=              0.4024    Z=             -1.8864  Tot=              2.1682
 Quadrupole moment (field-independent basis, Debye-Ang):
   XX=           -141.3912   YY=           -100.6353   ZZ=            -97.4518
   XY=             -0.8567   XZ=              0.2635   YZ=             -2.6432

 Summary of Natural Population Analysis:

                                       Natural Population
                Natural  -----------------------------------------------
    Atom  No    Charge         Core      Valence    Rydberg      Total
 -----------------------------------------------------------------------
      C    1   -0.28781      0.99967     2.28331    0.00483     3.28781
      C    2   -0.19525      0.99964     2.18679    0.00882     3.19525
      C    3   -0.19028      0.99962     2.18198    0.00867     3.19028
      C    4   -0.19155      0.99962     2.18336    0.00857     3.19155
      C    5   -0.19643      0.99958     2.18702    0.00982     3.19643
      C    6    0.09227      0.99952     1.88921    0.01900     2.90773
      C    7   -0.02434      0.99950     2.01180    0.01305     3.02434
      O    8   -0.28584      0.99992     3.27952    0.00640     4.28584
      C    9   -0.09847      0.99952     2.08716    0.01179     3.09847
      C   10   -0.17102      0.99956     2.16430    0.00717     3.17102
      H   11    0.09651      0.00000     0.40227    0.00122     0.40349
      H   12    0.09775      0.00000     0.40129    0.00096     0.40225
      H   13    0.09495      0.00000     0.40370    0.00135     0.40505
      H   14    0.10181      0.00000     0.39646    0.00173     0.39819
      H   15    0.09286      0.00000     0.40617    0.00097     0.40714
      H   16    0.09716      0.00000     0.40124    0.00160     0.40284
      H   17    0.09390      0.00000     0.40502    0.00108     0.40610
      H   18    0.09816      0.00000     0.40047    0.00137     0.40184
      H   19    0.09929      0.00000     0.39949    0.00122     0.40071
      H   20    0.10654      0.00000     0.39208    0.00138     0.39346
      H   21    0.10324      0.00000     0.39504    0.00172     0.39676
      H   22    0.09043      0.00000     0.40835    0.00122     0.40957
      H   23    0.08862      0.00000     0.40986    0.00152     0.41138
      H   24    0.09846      0.00000     0.40023    0.00131     0.40154
      H   25    0.09505      0.00000     0.40342    0.00152     0.40495
      H   26    0.09398      0.00000     0.40372    0.00230     0.40602
 =======================================================================
   * Total *    0.00000      9.99615    28.88329    0.12056    39.00000

 Normal termination of Gaussian 16 at Tue Dec  8 10:51:57 2020.
