 Gaussian 16, Revision A.03,

 -----------------------------------------------------------
 # opt freq B3LYP/6-31G(d) empiricaldispersion=gd3bj scf=xqc
 -----------------------------------------------------------

 ------------------------------
 CID_82776007_JID_9994_neutraal
 ------------------------------
 Symbolic Z-matrix:
 Charge =  0 Multiplicity = 1

 SCF Done:  E(RB3LYP) =  -939.020197296     A.U. after   15 cycles
 SCF Done:  E(RB3LYP) =  -939.015831697     A.U. after   14 cycles
 SCF Done:  E(RB3LYP) =  -939.024910366     A.U. after   13 cycles
 SCF Done:  E(RB3LYP) =  -939.026533753     A.U. after   12 cycles
 SCF Done:  E(RB3LYP) =  -939.028579923     A.U. after   12 cycles
 SCF Done:  E(RB3LYP) =  -939.029920786     A.U. after   13 cycles
 SCF Done:  E(RB3LYP) =  -939.031818365     A.U. after   15 cycles
 SCF Done:  E(RB3LYP) =  -939.034472921     A.U. after   13 cycles
 SCF Done:  E(RB3LYP) =  -939.035909215     A.U. after   13 cycles
 SCF Done:  E(RB3LYP) =  -939.035840973     A.U. after   13 cycles
 SCF Done:  E(RB3LYP) =  -939.036886623     A.U. after    9 cycles
 SCF Done:  E(RB3LYP) =  -939.036889868     A.U. after   10 cycles
 SCF Done:  E(RB3LYP) =  -939.036890739     A.U. after    8 cycles
 SCF Done:  E(RB3LYP) =  -939.036891024     A.U. after    8 cycles
 Optimization completed.
    -- Stationary point found.
 Normal termination of Gaussian 16 at Sun Dec 13 20:56:26 2020.

 --------------------------------------------------------------------
 #N Geom=AllCheck Guess=TCheck SCRF=Check GenChk RB3LYP/6-31G(d) Freq
 --------------------------------------------------------------------

 Structure from the checkpoint file:  "JID_9994.chk"
 ------------------------------
 CID_82776007_JID_9994_neutraal
 ------------------------------
 Charge =  0 Multiplicity = 1

 SCF Done:  E(RB3LYP) =  -939.036891024     A.U. after    1 cycles

  Exact polarizability: 162.634   1.034 159.797 -12.550   4.963 126.916
 Approx polarizability: 211.418  -3.423 241.833 -29.392  15.480 203.919

                      1                      2                      3
                      A                      A                      A
 Frequencies --     26.5327                53.2736                61.3539
 Red. masses --      4.0894                 3.9967                 2.8600
 Frc consts  --      0.0017                 0.0067                 0.0063
 IR Inten    --      1.0075                 0.3211                 0.0694

                      4                      5                      6
                      A                      A                      A
 Frequencies --     66.1050                83.9011               104.1739
 Red. masses --      4.6162                 3.7276                 7.0128
 Frc consts  --      0.0119                 0.0155                 0.0448
 IR Inten    --      1.5927                 0.2475                 1.3155

                      7                      8                      9
                      A                      A                      A
 Frequencies --    125.1947               128.1144               143.7893
 Red. masses --      6.4817                 3.6609                 4.7969
 Frc consts  --      0.0599                 0.0354                 0.0584
 IR Inten    --      0.1628                 0.8783                10.9391

                     10                     11                     12
                      A                      A                      A
 Frequencies --    154.1114               191.5886               226.1002
 Red. masses --      4.2097                 6.0270                 1.2292
 Frc consts  --      0.0589                 0.1303                 0.0370
 IR Inten    --      0.2474                 5.8075                 3.6373

                     13                     14                     15
                      A                      A                      A
 Frequencies --    229.7217               245.1663               274.9229
 Red. masses --      1.1785                 1.5017                 2.3184
 Frc consts  --      0.0366                 0.0532                 0.1032
 IR Inten    --      0.1161                 0.1009                 3.8035

                     16                     17                     18
                      A                      A                      A
 Frequencies --    287.1298               300.4605               311.2725
 Red. masses --      1.6203                 4.1044                 2.4441
 Frc consts  --      0.0787                 0.2183                 0.1395
 IR Inten    --      1.7898                 5.3724                 1.2842

                     19                     20                     21
                      A                      A                      A
 Frequencies --    321.1969               351.6316               365.5266
 Red. masses --      2.5661                 2.9573                 3.0245
 Frc consts  --      0.1560                 0.2154                 0.2381
 IR Inten    --     10.1280                 2.2301                 6.9974

                     22                     23                     24
                      A                      A                      A
 Frequencies --    379.4791               395.5521               425.5166
 Red. masses --      4.2979                 2.4213                 4.3304
 Frc consts  --      0.3647                 0.2232                 0.4620
 IR Inten    --      7.8623                 5.3304                11.4374

                     25                     26                     27
                      A                      A                      A
 Frequencies --    456.3036               460.8552               467.9930
 Red. masses --      2.5838                 3.0560                 3.6065
 Frc consts  --      0.3170                 0.3824                 0.4654
 IR Inten    --      4.6041                 2.1604                 5.3828

                     28                     29                     30
                      A                      A                      A
 Frequencies --    479.3412               576.7014               598.3782
 Red. masses --      3.9709                 3.5176                 3.0167
 Frc consts  --      0.5376                 0.6893                 0.6364
 IR Inten    --      8.3344                11.2195                11.1343

                     31                     32                     33
                      A                      A                      A
 Frequencies --    608.1504               615.1756               635.1787
 Red. masses --      3.6494                 2.0705                 1.6964
 Frc consts  --      0.7952                 0.4617                 0.4033
 IR Inten    --      4.0398                33.2726                79.6504

                     34                     35                     36
                      A                      A                      A
 Frequencies --    639.2451               650.6446               736.5695
 Red. masses --      3.5762                 3.5320                 3.8067
 Frc consts  --      0.8610                 0.8810                 1.2168
 IR Inten    --      7.4306                19.9851                 4.1555

                     37                     38                     39
                      A                      A                      A
 Frequencies --    766.6904               799.2061               826.0321
 Red. masses --      3.3650                 1.3275                 3.1183
 Frc consts  --      1.1654                 0.4996                 1.2536
 IR Inten    --      9.8713                 3.4034                 3.1413

                     40                     41                     42
                      A                      A                      A
 Frequencies --    845.7996               862.5285               919.1758
 Red. masses --      3.4389                 2.7779                 2.2754
 Frc consts  --      1.4495                 1.2176                 1.1327
 IR Inten    --      2.9185                10.8080                 2.4931

                     43                     44                     45
                      A                      A                      A
 Frequencies --    923.8664               945.4702               953.7579
 Red. masses --      1.7993                 2.6226                 2.2669
 Frc consts  --      0.9048                 1.3813                 1.2150
 IR Inten    --      1.4776                 5.9324                 9.4609

                     46                     47                     48
                      A                      A                      A
 Frequencies --    963.8303               966.2653               984.6640
 Red. masses --      1.7117                 1.4543                 2.2394
 Frc consts  --      0.9369                 0.8000                 1.2792
 IR Inten    --      0.5502                 0.3066                10.4541

                     49                     50                     51
                      A                      A                      A
 Frequencies --   1013.1285              1048.6431              1058.9826
 Red. masses --      2.1522                 1.6920                 2.4735
 Frc consts  --      1.3015                 1.0963                 1.6343
 IR Inten    --      6.0900                 2.5775                18.4691

                     52                     53                     54
                      A                      A                      A
 Frequencies --   1063.5992              1096.3449              1123.2994
 Red. masses --      3.7477                 3.5275                 3.2277
 Frc consts  --      2.4979                 2.4981                 2.3996
 IR Inten    --     60.3285                 9.5694               138.8518

                     55                     56                     57
                      A                      A                      A
 Frequencies --   1132.1288              1139.2359              1172.3114
 Red. masses --      1.9565                 3.5001                 1.8702
 Frc consts  --      1.4775                 2.6764                 1.5144
 IR Inten    --     16.1987                87.3608                13.6897

                     58                     59                     60
                      A                      A                      A
 Frequencies --   1178.9521              1184.5544              1208.8891
 Red. masses --      1.5905                 1.3680                 1.7258
 Frc consts  --      1.3025                 1.1309                 1.4860
 IR Inten    --      3.1897                78.4474                 5.5186

                     61                     62                     63
                      A                      A                      A
 Frequencies --   1214.4283              1263.6751              1290.5185
 Red. masses --      1.8872                 1.5939                 1.5817
 Frc consts  --      1.6398                 1.4997                 1.5521
 IR Inten    --      3.7582                49.1877                80.4733

                     64                     65                     66
                      A                      A                      A
 Frequencies --   1304.9624              1307.5638              1328.3950
 Red. masses --      1.9560                 2.0949                 1.6014
 Frc consts  --      1.9626                 2.1103                 1.6649
 IR Inten    --    150.7731                19.8816                33.6622

                     67                     68                     69
                      A                      A                      A
 Frequencies --   1335.8405              1342.7635              1349.9658
 Red. masses --      1.7646                 1.1950                 1.5946
 Frc consts  --      1.8552                 1.2695                 1.7122
 IR Inten    --      7.9072                 7.7787               161.3241

                     70                     71                     72
                      A                      A                      A
 Frequencies --   1362.2652              1377.1982              1393.9430
 Red. masses --      1.5151                 2.0336                 2.2248
 Frc consts  --      1.6566                 2.2725                 2.5470
 IR Inten    --     11.4769                38.7829                75.0727

                     73                     74                     75
                      A                      A                      A
 Frequencies --   1404.0796              1422.1668              1431.9495
 Red. masses --      1.4143                 1.3121                 1.8828
 Frc consts  --      1.6428                 1.5635                 2.2746
 IR Inten    --     24.6248                10.8807               103.7271

                     76                     77                     78
                      A                      A                      A
 Frequencies --   1433.3936              1445.8121              1453.9945
 Red. masses --      1.2426                 1.3570                 1.2249
 Frc consts  --      1.5042                 1.6713                 1.5257
 IR Inten    --      6.8414                 8.3114                 8.8386

                     79                     80                     81
                      A                      A                      A
 Frequencies --   1481.8130              1490.4028              1497.4406
 Red. masses --      1.0810                 1.2094                 1.0851
 Frc consts  --      1.3985                 1.5829                 1.4336
 IR Inten    --      1.4558               128.7576                 5.1102

                     82                     83                     84
                      A                      A                      A
 Frequencies --   1505.7555              1512.6467              1516.1200
 Red. masses --      1.0926                 1.1004                 1.0456
 Frc consts  --      1.4596                 1.4834                 1.4161
 IR Inten    --     19.1396                32.4176                 8.4407

                     85                     86                     87
                      A                      A                      A
 Frequencies --   1516.6967              1521.9466              1524.5824
 Red. masses --      1.0460                 1.0832                 1.0631
 Frc consts  --      1.4177                 1.4782                 1.4559
 IR Inten    --      0.5101                 2.2736                 5.0281

                     88                     89                     90
                      A                      A                      A
 Frequencies --   1536.5855              1540.3596              1540.6145
 Red. masses --      1.0627                 1.0611                 1.0590
 Frc consts  --      1.4783                 1.4834                 1.4809
 IR Inten    --      2.4834                 5.0663                 7.3969

                     91                     92                     93
                      A                      A                      A
 Frequencies --   1747.1110              1795.5251              1808.6162
 Red. masses --     11.0251                10.6565                11.0542
 Frc consts  --     19.8277                20.2417                21.3044
 IR Inten    --    365.9482               126.4149               197.9613

                     94                     95                     96
                      A                      A                      A
 Frequencies --   3038.8996              3044.2795              3050.6343
 Red. masses --      1.0663                 1.0358                 1.0396
 Frc consts  --      5.8018                 5.6560                 5.7002
 IR Inten    --      8.0109                26.4361                14.4448

                     97                     98                     99
                      A                      A                      A
 Frequencies --   3057.0304              3061.3011              3084.7862
 Red. masses --      1.0621                 1.0365                 1.0671
 Frc consts  --      5.8482                 5.7232                 5.9830
 IR Inten    --      1.3502                20.0833                 6.2156

                    100                    101                    102
                      A                      A                      A
 Frequencies --   3091.1350              3106.9295              3107.9834
 Red. masses --      1.0835                 1.0676                 1.0627
 Frc consts  --      6.0995                 6.0716                 6.0481
 IR Inten    --     19.3507                18.7065                11.7639

                    103                    104                    105
                      A                      A                      A
 Frequencies --   3113.6815              3114.9921              3117.6568
 Red. masses --      1.1028                 1.1026                 1.1015
 Frc consts  --      6.2992                 6.3035                 6.3079
 IR Inten    --      8.8413                16.0158                25.3797

                    106                    107                    108
                      A                      A                      A
 Frequencies --   3119.5132              3122.8132              3125.4196
 Red. masses --      1.0993                 1.0975                 1.0977
 Frc consts  --      6.3030                 6.3060                 6.3174
 IR Inten    --      8.1772                34.9662                23.2441

                    109                    110                    111
                      A                      A                      A
 Frequencies --   3126.9451              3147.5608              3150.1976
 Red. masses --      1.1002                 1.1005                 1.0992
 Frc consts  --      6.3381                 6.4238                 6.4271
 IR Inten    --     27.8893                 9.4027                12.4720

                    112                    113                    114
                      A                      A                      A
 Frequencies --   3170.4170              3188.0905              3636.6446
 Red. masses --      1.1088                 1.0985                 1.0649
 Frc consts  --      6.5664                 6.5781                 8.2975
 IR Inten    --     20.6893                 3.8856               165.0341

 - Thermochemistry -
 -------------------
 Temperature   298.150 Kelvin.  Pressure   1.00000 Atm.
 Atom     1 has atomic number  6 and mass  12.00000

 Molecular mass:   271.14197 amu.
 Principal axes and moments of inertia in atomic units:
                           1         2         3
     Eigenvalues --  3473.042205786.208797632.75308
           X            0.99999   0.00357  -0.00291
           Y           -0.00361   0.99991  -0.01297
           Z            0.00287   0.01298   0.99991
 This molecule is an asymmetric top.
 Rotational symmetry number  1.
 Warning -- assumption of classical behavior for rotation
           may cause significant error
 Rotational temperatures (Kelvin)      0.02494     0.01497     0.01135
 Rotational constants (GHZ):           0.51964     0.31190     0.23645
 Zero-point vibrational energy     897975.3 (Joules/Mol)
                                  214.62125 (Kcal/Mol)
 Warning -- explicit consideration of  32 degrees of freedom as
           vibrations may cause significant error
 Vibrational temperatures:     38.17    76.65    88.27    95.11   120.71
          (Kelvin)            149.88   180.13   184.33   206.88   221.73
                              275.65   325.31   330.52   352.74   395.55
                              413.12   432.30   447.85   462.13   505.92
                              525.91   545.99   569.11   612.22   656.52
                              663.07   673.34   689.67   829.74   860.93
                              874.99   885.10   913.88   919.73   936.13
                             1059.76  1103.10  1149.88  1188.48  1216.92
                             1240.99  1322.49  1329.24  1360.32  1372.24
                             1386.74  1390.24  1416.71  1457.67  1508.76
                             1523.64  1530.28  1577.40  1616.18  1628.88
                             1639.11  1686.69  1696.25  1704.31  1739.32
                             1747.29  1818.15  1856.77  1877.55  1881.29
                             1911.26  1921.98  1931.94  1942.30  1960.00
                             1981.48  2005.57  2020.16  2046.18  2060.26
                             2062.33  2080.20  2091.97  2132.00  2144.36
                             2154.48  2166.45  2176.36  2181.36  2182.19
                             2189.74  2193.53  2210.80  2216.23  2216.60
                             2513.70  2583.36  2602.20  4372.30  4380.04
                             4389.18  4398.38  4404.53  4438.32  4447.45
                             4470.18  4471.69  4479.89  4481.78  4485.61
                             4488.28  4493.03  4496.78  4498.98  4528.64
                             4532.43  4561.52  4586.95  5232.32

 Zero-point correction=                           0.342021 (Hartree/Particle)
 Thermal correction to Energy=                    0.361524
 Thermal correction to Enthalpy=                  0.362469
 Thermal correction to Gibbs Free Energy=         0.294355
 Sum of electronic and zero-point Energies=           -938.694870
 Sum of electronic and thermal Energies=              -938.675367
 Sum of electronic and thermal Enthalpies=            -938.674423
 Sum of electronic and thermal Free Energies=         -938.742536

                     E (Thermal)             CV                S
                      KCal/Mol        Cal/Mol-Kelvin    Cal/Mol-Kelvin
 Total                  226.860             74.116            143.357
 Electronic               0.000              0.000              0.000
 Translational            0.889              2.981             42.691
 Rotational               0.889              2.981             33.394
 Vibrational            225.082             68.155             67.271
 Vibration     1          0.593              1.984              6.073
 Vibration     2          0.596              1.976              4.692
 Vibration     3          0.597              1.973              4.413
 Vibration     4          0.598              1.970              4.266
 Vibration     5          0.601              1.960              3.797
 Vibration     6          0.605              1.946              3.375
 Vibration     7          0.610              1.928              3.019
 Vibration     8          0.611              1.925              2.974
 Vibration     9          0.616              1.909              2.753
 Vibration    10          0.620              1.898              2.621
 Vibration    11          0.634              1.852              2.212
 Vibration    12          0.650              1.801              1.910
 Vibration    13          0.652              1.796              1.881
 Vibration    14          0.660              1.771              1.765
 Vibration    15          0.677              1.720              1.565
 Vibration    16          0.684              1.698              1.491
 Vibration    17          0.693              1.673              1.414
 Vibration    18          0.700              1.652              1.356
 Vibration    19          0.707              1.633              1.304
 Vibration    20          0.728              1.572              1.159
 Vibration    21          0.739              1.543              1.099
 Vibration    22          0.749              1.514              1.041
 Vibration    23          0.762              1.480              0.979
 Vibration    24          0.787              1.415              0.873
 Vibration    25          0.815              1.347              0.777
 Vibration    26          0.819              1.337              0.764
 Vibration    27          0.825              1.321              0.743
 Vibration    28          0.836              1.296              0.712
 Vibration    29          0.933              1.082              0.492
 Vibration    30          0.956              1.035              0.452
 Vibration    31          0.967              1.015              0.436
 Vibration    32          0.975              1.000              0.424

 Optimization completed.
    -- Stationary point found.
 Normal termination of Gaussian 16 at Sun Dec 13 21:17:49 2020.

 ----------------------------------------------------------------------
 # B3LYP/6-311++G(d,p) empiricaldispersion=gd3bj scf=xqc pop=npa geom=c
 heck
 ----------------------------------------------------------------------

 --------------------------------------
 CID_82776007_JID_9994_Energie_neutraal
 --------------------------------------
 Structure from the checkpoint file:  "JID_9994.chk"
 Charge =  0 Multiplicity = 1

 SCF Done:  E(RB3LYP) =  -939.316047668     A.U. after   15 cycles
 Normal termination of Gaussian 16 at Sun Dec 13 21:25:57 2020.

 ----------------------------------------------------------------------
 # B3LYP/6-311++G(d,p) empiricaldispersion=gd3bj scf=xqc pop=npa geom=c
 heck
 ----------------------------------------------------------------------

 ------------------------------------
 CID_82776007_JID_9994_Energie_kation
 ------------------------------------
 Structure from the checkpoint file:  "JID_9994.chk"
 Charge =  1 Multiplicity = 2

 SCF Done:  E(UB3LYP) =  -938.974970201     A.U. after   33 cycles
 SCF Done:  E(UB3LYP) =  -938.979187917     a.u. after   16 cycles
 Normal termination of Gaussian 16 at Mon Dec 14 01:48:26 2020.
 Gaussian 16:  ES64L-G16RevA.03 25-Dec-2016

 ----------------------------------------------------------------------
 # B3LYP/6-311++G(d,p) empiricaldispersion=gd3bj scf=xqc pop=npa geom=c
 heck
 ----------------------------------------------------------------------

 -----------------------------------
 CID_82776007_JID_9994_Energie_anion
 -----------------------------------
 Structure from the checkpoint file:  "JID_9994.chk"
 Charge = -1 Multiplicity = 2

                         Standard orientation:
 ---------------------------------------------------------------------
 Center     Atomic      Atomic             Coordinates (Angstroms)
 Number     Number       Type             X           Y           Z
 ---------------------------------------------------------------------
      1          6           0        4.039218   -2.413085    0.484276
      2          6           0        3.146216   -1.712890   -0.525808
      3          8           0        2.895470   -0.335521   -0.142933
      4          6           0        1.924869   -0.126886    0.764699
      5          8           0        1.296508   -1.017148    1.308057
      6          6           0        1.697305    1.349133    0.988935
      7          6           0        1.430057    2.173157   -0.294993
      8          6           0        0.401328    1.526304   -1.257315
      9          7           0       -0.596637    0.645854   -0.620423
     10          6           0       -0.604423   -0.718287   -0.992599
     11          8           0        0.158999   -1.132319   -1.845880
     12          6           0       -1.553761   -1.629706   -0.252415
     13          6           0       -2.855667   -0.955461    0.199964
     14          6           0       -2.442014    0.280841    1.008660
     15          6           0       -1.474434    1.201712    0.301173
     16          8           0       -1.427105    2.398219    0.568658
     17          6           0       -3.656831   -1.914128    1.089289
     18          6           0       -3.704816   -0.545622   -1.015559
     19          8           0        1.084732    3.498708    0.049512
     20          1           0        4.976583   -1.864083    0.621222
     21          1           0        4.280073   -3.421434    0.128888
     22          1           0        3.533231   -2.498856    1.449253
     23          1           0        3.627707   -1.629001   -1.502109
     24          1           0        2.186175   -2.217187   -0.645169
     25          1           0        0.859088    1.454228    1.680227
     26          1           0        2.580083    1.781602    1.471697
     27          1           0        2.367693    2.248407   -0.853480
     28          1           0       -0.115754    2.330270   -1.787033
     29          1           0        0.909529    0.893351   -1.981560
     30          1           0       -0.993525   -1.990583    0.620913
     31          1           0       -1.739195   -2.488845   -0.902777
     32          1           0       -1.934212   -0.038542    1.930385
     33          1           0       -3.299675    0.889585    1.308289
     34          1           0       -4.576038   -1.436735    1.447974
     35          1           0       -3.941088   -2.814341    0.532548
     36          1           0       -3.072858   -2.226405    1.962613
     37          1           0       -3.169356    0.144687   -1.677002
     38          1           0       -3.981477   -1.425599   -1.606638
     39          1           0       -4.627726   -0.050730   -0.693332
     40          1           0        0.156086    3.453227    0.348894
 ---------------------------------------------------------------------

 SCF Done:  E(UB3LYP) =  -939.310046581     A.U. after   33 cycles
 SCF Done:  E(UB3LYP) =  -939.310046581     a.u. after    1 cycles

 The electronic state is 2-A.
 Alpha  occ. eigenvalues --  -19.07076 -19.01131 -19.00805 -18.98402 -18.98139
 Alpha  occ. eigenvalues --  -14.24990 -10.20328 -10.15872 -10.15085 -10.13069
 Alpha  occ. eigenvalues --  -10.13023 -10.10118 -10.09265 -10.08196 -10.07374
 Alpha  occ. eigenvalues --  -10.07111 -10.07051 -10.06515 -10.06513  -1.00948
 Alpha  occ. eigenvalues --   -0.94841  -0.92980  -0.92081  -0.91589  -0.82540
 Alpha  occ. eigenvalues --   -0.74139  -0.69851  -0.66578  -0.63527  -0.62454
 Alpha  occ. eigenvalues --   -0.59868  -0.59434  -0.56118  -0.52577  -0.51809
 Alpha  occ. eigenvalues --   -0.46519  -0.45989  -0.42184  -0.41620  -0.40649
 Alpha  occ. eigenvalues --   -0.39688  -0.38939  -0.37882  -0.36741  -0.36074
 Alpha  occ. eigenvalues --   -0.35713  -0.34690  -0.34257  -0.33975  -0.32690
 Alpha  occ. eigenvalues --   -0.31670  -0.31437  -0.30766  -0.30329  -0.29661
 Alpha  occ. eigenvalues --   -0.28814  -0.28582  -0.28294  -0.27933  -0.26882
 Alpha  occ. eigenvalues --   -0.26170  -0.25257  -0.25128  -0.24736  -0.23678
 Alpha  occ. eigenvalues --   -0.23086  -0.22721  -0.21062  -0.19197  -0.16888
 Alpha  occ. eigenvalues --   -0.16523  -0.16071  -0.14721   0.04457
 Alpha virt. eigenvalues --    0.06024   0.06432   0.08193   0.08290   0.08809
 Alpha virt. eigenvalues --    0.08911   0.09219   0.09595   0.10368   0.10544
 Alpha virt. eigenvalues --    0.11225   0.11467   0.11619   0.11905   0.12128

  Beta  occ. eigenvalues --  -19.07079 -19.01104 -19.00801 -18.98215 -18.97885
  Beta  occ. eigenvalues --  -14.25091 -10.20308 -10.15636 -10.14737 -10.13072
  Beta  occ. eigenvalues --  -10.13020 -10.10113 -10.09253 -10.08194 -10.07347
  Beta  occ. eigenvalues --  -10.07132 -10.07062 -10.06495 -10.06490  -1.00928
  Beta  occ. eigenvalues --   -0.94478  -0.92610  -0.92048  -0.91479  -0.82431
  Beta  occ. eigenvalues --   -0.74106  -0.69826  -0.66540  -0.63430  -0.62208
  Beta  occ. eigenvalues --   -0.59836  -0.59390  -0.56081  -0.52305  -0.51648
  Beta  occ. eigenvalues --   -0.46405  -0.45946  -0.42087  -0.41525  -0.40567
  Beta  occ. eigenvalues --   -0.39541  -0.38888  -0.37718  -0.36676  -0.35998
  Beta  occ. eigenvalues --   -0.35458  -0.34544  -0.34194  -0.33743  -0.32424
  Beta  occ. eigenvalues --   -0.31595  -0.31190  -0.30602  -0.30280  -0.29511
  Beta  occ. eigenvalues --   -0.28730  -0.28402  -0.28147  -0.27730  -0.26855
  Beta  occ. eigenvalues --   -0.26019  -0.25208  -0.24976  -0.24108  -0.23639
  Beta  occ. eigenvalues --   -0.22830  -0.22543  -0.21012  -0.19137  -0.16820
  Beta  occ. eigenvalues --   -0.16244  -0.15758  -0.14543
  Beta virt. eigenvalues --    0.06393   0.06787   0.08339   0.08464   0.08953
  Beta virt. eigenvalues --    0.09137   0.09493   0.09546   0.09766   0.10348
  Beta virt. eigenvalues --    0.10747   0.11256   0.11468   0.11735   0.12042

 Mulliken charges and spin densities:
               1          2
     1  C    0.434380  -0.881266
     2  C   -0.345103   0.302461
     3  O    0.126568   0.002675
     4  C   -0.857185   0.168894
     5  O   -0.129389   0.008271
     6  C    0.404647  -0.342109
     7  C   -0.737978   0.029808
     8  C    0.125428  -0.063406
     9  N    0.153460  -0.016728
    10  C   -0.319916   0.094520
    11  O   -0.251621   0.067401
    12  C   -0.012995  -0.691471
    13  C   -0.626197   1.594771
    14  C    0.478161  -1.167823
    15  C   -0.545518   0.554852
    16  O   -0.325586   0.099816
    17  C    0.220787  -0.728097
    18  C    0.003383  -0.599305
    19  O   -0.161403   0.004704
    20  H   -0.070880   0.213100
    21  H   -0.180339   0.314931
    22  H   -0.058881   0.235297
    23  H   -0.019814   0.179049
    24  H    0.323156  -0.112745
    25  H    0.194857   0.048461
    26  H    0.106798   0.096893
    27  H    0.177411   0.015965
    28  H    0.198409   0.022782
    29  H    0.174944   0.021253
    30  H    0.342465  -0.089108
    31  H    0.047365   0.159476
    32  H   -0.024135   0.246109
    33  H    0.243067  -0.020635
    34  H   -0.147363   0.288821
    35  H   -0.145522   0.281181
    36  H   -0.116119   0.257853
    37  H    0.146281   0.013411
    38  H   -0.081297   0.227482
    39  H   -0.013230   0.156532
    40  H    0.268906   0.005924
 Sum of Mulliken charges =  -1.00000   1.00000

 Dipole moment (field-independent basis, Debye):
    X=              1.1120    Y=              0.8472    Z=             -1.2840  Tot=              1.8982
 Quadrupole moment (field-independent basis, Debye-Ang):
   XX=           -178.7744   YY=           -166.2694   ZZ=           -143.5984
   XY=              0.4722   XZ=              1.6016   YZ=             -2.0448

 Summary of Natural Population Analysis:

                                       Natural Population
                Natural  -----------------------------------------------
    Atom  No    Charge         Core      Valence    Rydberg      Total
 -----------------------------------------------------------------------
      C    1   -0.30107      0.99966     2.29687    0.00454     3.30107
      C    2   -0.01899      0.99957     2.00740    0.01201     3.01899
      O    3   -0.28491      0.99986     3.27584    0.00921     4.28491
      C    4    0.41311      0.99968     1.56138    0.02583     2.58689
      O    5   -0.31154      0.99987     3.30603    0.00565     4.31154
      C    6   -0.25040      0.99955     2.23996    0.01088     3.25040
      C    7    0.06440      0.99957     1.92201    0.01402     2.93560
      C    8   -0.10475      0.99959     2.09527    0.00990     3.10475
      N    9   -0.28472      0.99960     2.77637    0.00875     3.78472
      C   10    0.39293      0.99966     1.58447    0.02294     2.60707
      O   11   -0.29966      0.99987     3.29452    0.00527     4.29966
      C   12   -0.23709      0.99954     2.22720    0.01035     3.23709
      C   13   -0.04164      0.99958     2.03249    0.00956     3.04164
      C   14   -0.23322      0.99955     2.22333    0.01033     3.23322
      C   15    0.40603      0.99965     1.57152    0.02280     2.59397
      O   16   -0.31532      0.99986     3.31024    0.00522     4.31532
      C   17   -0.28176      0.99963     2.27506    0.00707     3.28176
      C   18   -0.28590      0.99963     2.27956    0.00672     3.28590
      O   19   -0.38370      0.99989     3.37672    0.00709     4.38370
      H   20    0.09847      0.00000     0.40036    0.00116     0.40153
      H   21    0.10140      0.00000     0.39765    0.00095     0.39860
      H   22    0.10723      0.00000     0.39187    0.00090     0.39277
      H   23    0.08889      0.00000     0.41008    0.00103     0.41111
      H   24    0.10461      0.00000     0.39393    0.00146     0.39539
      H   25    0.11554      0.00000     0.38338    0.00108     0.38446
      H   26    0.11466      0.00000     0.38423    0.00111     0.38534
      H   27    0.08959      0.00000     0.40919    0.00122     0.41041
      H   28    0.10443      0.00000     0.39445    0.00112     0.39557
      H   29    0.11979      0.00000     0.37884    0.00137     0.38021
      H   30    0.12315      0.00000     0.37544    0.00141     0.37685
      H   31    0.11131      0.00000     0.38764    0.00105     0.38869
      H   32    0.11846      0.00000     0.38018    0.00136     0.38154
      H   33    0.11180      0.00000     0.38726    0.00094     0.38820
      H   34    0.09969      0.00000     0.39931    0.00100     0.40031
      H   35    0.09955      0.00000     0.39955    0.00090     0.40045
      H   36    0.10129      0.00000     0.39781    0.00090     0.39871
      H   37    0.10260      0.00000     0.39653    0.00087     0.39740
      H   38    0.09999      0.00000     0.39918    0.00083     0.40001
      H   39    0.09925      0.00000     0.40000    0.00075     0.40075
      H   40    0.24651      0.00000     0.25055    0.00295     0.25349
 =======================================================================
   * Total *   -0.00000     18.99382    53.77368    0.23251    73.00000

 Normal termination of Gaussian 16 at Mon Dec 14 02:14:01 2020.
