 Gaussian 16, Revision A.03,

 -----------------------------------------------------------
 # opt freq B3LYP/6-31G(d) empiricaldispersion=gd3bj scf=xqc
 -----------------------------------------------------------

 ------------------------------
 CID_62077368_JID_3240_neutraal
 ------------------------------
 Symbolic Z-matrix:
 Charge =  0 Multiplicity = 1

 SCF Done:  E(RB3LYP) =  -898.404132001     A.U. after   15 cycles
 SCF Done:  E(RB3LYP) =  -898.409745000     A.U. after   12 cycles
 SCF Done:  E(RB3LYP) =  -898.411133475     A.U. after   11 cycles
 SCF Done:  E(RB3LYP) =  -898.411622302     A.U. after   12 cycles
 SCF Done:  E(RB3LYP) =  -898.411691867     A.U. after   11 cycles
 SCF Done:  E(RB3LYP) =  -898.411838935     A.U. after   10 cycles
 SCF Done:  E(RB3LYP) =  -898.411876699     A.U. after   10 cycles
 SCF Done:  E(RB3LYP) =  -898.411883368     A.U. after    9 cycles
 SCF Done:  E(RB3LYP) =  -898.411885717     A.U. after    8 cycles
 SCF Done:  E(RB3LYP) =  -898.411887305     A.U. after    9 cycles
 SCF Done:  E(RB3LYP) =  -898.411895100     A.U. after   11 cycles
 SCF Done:  E(RB3LYP) =  -898.411897276     A.U. after   11 cycles
 SCF Done:  E(RB3LYP) =  -898.411900679     A.U. after   10 cycles
 SCF Done:  E(RB3LYP) =  -898.411902325     A.U. after   11 cycles
 SCF Done:  E(RB3LYP) =  -898.411902659     A.U. after    9 cycles
 Optimization completed.
    -- Stationary point found.
 Normal termination of Gaussian 16 at Mon Dec 14 16:34:43 2020.

 --------------------------------------------------------------------
 #N Geom=AllCheck Guess=TCheck SCRF=Check GenChk RB3LYP/6-31G(d) Freq
 --------------------------------------------------------------------

 Structure from the checkpoint file:  "JID_3240.chk"
 ------------------------------
 CID_62077368_JID_3240_neutraal
 ------------------------------
 Charge =  0 Multiplicity = 1

 SCF Done:  E(RB3LYP) =  -898.411902659     A.U. after    1 cycles

  Exact polarizability: 172.766   0.130 132.761   0.354  -0.590  92.644
 Approx polarizability: 231.751  -1.991 229.951  -0.598   0.692 138.776

 ******    1 imaginary frequencies (negative Signs) ******

                      1                      2                      3
                      A                      A                      A
 Frequencies --     -3.1834                42.0893                79.1092
 Red. masses --      3.1411                 1.8119                 2.9014
 Frc consts  --      0.0000                 0.0019                 0.0107
 IR Inten    --      0.0325                14.0830                 7.2032

                      4                      5                      6
                      A                      A                      A
 Frequencies --    121.6130               132.2412               180.3495
 Red. masses --      3.3178                 3.6238                 2.1415
 Frc consts  --      0.0289                 0.0373                 0.0410
 IR Inten    --      4.0680                 0.0249                11.0969

                      7                      8                      9
                      A                      A                      A
 Frequencies --    206.1032               228.6103               244.0455
 Red. masses --      2.8884                 1.0866                 2.2600
 Frc consts  --      0.0723                 0.0335                 0.0793
 IR Inten    --      3.1112                 1.4169                 5.1061

                     10                     11                     12
                      A                      A                      A
 Frequencies --    267.3700               279.7730               290.9646
 Red. masses --      2.5858                 1.0952                 1.2108
 Frc consts  --      0.1089                 0.0505                 0.0604
 IR Inten    --      0.5049                 0.3326                 0.0793

                     13                     14                     15
                      A                      A                      A
 Frequencies --    309.3747               337.2928               347.6896
 Red. masses --      2.5529                 3.4110                 2.8264
 Frc consts  --      0.1440                 0.2286                 0.2013
 IR Inten    --      2.3054                 0.3053                 0.3028

                     16                     17                     18
                      A                      A                      A
 Frequencies --    393.4561               396.8528               438.4986
 Red. masses --      2.9748                 3.0178                 4.1058
 Frc consts  --      0.2713                 0.2800                 0.4651
 IR Inten    --      1.1803                 7.7305                 6.7787

                     19                     20                     21
                      A                      A                      A
 Frequencies --    461.0073               528.0066               559.1866
 Red. masses --      5.1731                 3.2994                 3.3094
 Frc consts  --      0.6478                 0.5420                 0.6097
 IR Inten    --      3.2851                 2.0065                 4.0755

                     22                     23                     24
                      A                      A                      A
 Frequencies --    618.9430               668.2651               681.1276
 Red. masses --      5.6855                 5.6827                 5.9571
 Frc consts  --      1.2833                 1.4952                 1.6283
 IR Inten    --     14.7951                 9.5876                 8.4583

                     25                     26                     27
                      A                      A                      A
 Frequencies --    710.7372               741.4734               794.1797
 Red. masses --      3.5715                 1.7501                 1.3005
 Frc consts  --      1.0630                 0.5669                 0.4833
 IR Inten    --    118.3928               148.5678                 0.3991

                     28                     29                     30
                      A                      A                      A
 Frequencies --    821.2898               828.6679               865.4007
 Red. masses --      1.5295                 2.2927                 2.5524
 Frc consts  --      0.6078                 0.9276                 1.1262
 IR Inten    --      6.2525                 3.8355                 7.3137

                     31                     32                     33
                      A                      A                      A
 Frequencies --    917.5291               942.9432               949.7457
 Red. masses --      2.9843                 1.7915                 2.6794
 Frc consts  --      1.4802                 0.9385                 1.4240
 IR Inten    --      4.5596                 0.4621                17.0138

                     34                     35                     36
                      A                      A                      A
 Frequencies --    956.3086               979.9956              1038.5264
 Red. masses --      1.7178                 1.2000                 2.2374
 Frc consts  --      0.9256                 0.6790                 1.4218
 IR Inten    --      3.3296                 0.0721                51.2313

                     37                     38                     39
                      A                      A                      A
 Frequencies --   1059.6623              1064.5302              1074.6807
 Red. masses --      1.3916                 1.3845                 1.4442
 Frc consts  --      0.9207                 0.9244                 0.9827
 IR Inten    --      1.3283                 4.4853                 5.2645

                     40                     41                     42
                      A                      A                      A
 Frequencies --   1078.8440              1086.0608              1144.6009
 Red. masses --      1.4589                 1.6662                 1.0914
 Frc consts  --      1.0004                 1.1579                 0.8424
 IR Inten    --     19.9866                26.7134                 0.4826

                     43                     44                     45
                      A                      A                      A
 Frequencies --   1215.0202              1219.3280              1234.5501
 Red. masses --      1.3942                 3.1406                 2.8800
 Frc consts  --      1.2127                 2.7511                 2.5862
 IR Inten    --      0.6162                 0.2232                 6.2107

                     46                     47                     48
                      A                      A                      A
 Frequencies --   1241.5694              1256.3163              1269.1528
 Red. masses --      2.6143                 1.8236                 3.0764
 Frc consts  --      2.3743                 1.6958                 2.9196
 IR Inten    --      4.1680                 6.6221                11.7121

                     49                     50                     51
                      A                      A                      A
 Frequencies --   1302.4460              1329.9160              1424.2645
 Red. masses --      3.0098                 2.3126                 1.2146
 Frc consts  --      3.0082                 2.4099                 1.4516
 IR Inten    --     31.2400                17.7799                 5.0607

                     52                     53                     54
                      A                      A                      A
 Frequencies --   1427.7914              1454.8609              1456.4135
 Red. masses --      1.2250                 2.4403                 1.2345
 Frc consts  --      1.4714                 3.0432                 1.5428
 IR Inten    --      6.6137                14.6848                 1.5124

                     55                     56                     57
                      A                      A                      A
 Frequencies --   1506.9502              1507.5852              1513.6626
 Red. masses --      1.0484                 1.0849                 1.0470
 Frc consts  --      1.4028                 1.4527                 1.4134
 IR Inten    --      0.1706                 1.5690                 0.1206

                     58                     59                     60
                      A                      A                      A
 Frequencies --   1515.8965              1528.4769              1533.8536
 Red. masses --      1.0473                 1.0530                 1.0515
 Frc consts  --      1.4180                 1.4494                 1.4575
 IR Inten    --      0.8326                 5.0082                 9.0010

                     61                     62                     63
                      A                      A                      A
 Frequencies --   1537.5915              1544.3545              1582.0022
 Red. masses --      1.3303                 1.1184                 6.3889
 Frc consts  --      1.8530                 1.5716                 9.4209
 IR Inten    --     11.7445                11.0919                35.4215

                     64                     65                     66
                      A                      A                      A
 Frequencies --   1608.2567              1695.3133              3044.7345
 Red. masses --      6.9717                 1.1378                 1.0346
 Frc consts  --     10.6243                 1.9268                 5.6508
 IR Inten    --     59.5227                65.2468                21.3441

                     67                     68                     69
                      A                      A                      A
 Frequencies --   3048.5046              3059.4847              3110.9010
 Red. masses --      1.0352                 1.0374                 1.1022
 Frc consts  --      5.6680                 5.7211                 6.2849
 IR Inten    --     21.5544                30.9740                 5.0379

                     70                     71                     72
                      A                      A                      A
 Frequencies --   3116.8248              3122.8392              3127.1536
 Red. masses --      1.1016                 1.1029                 1.1024
 Frc consts  --      6.3054                 6.3371                 6.3519
 IR Inten    --     56.4820                 4.4226                29.4860

                     73                     74                     75
                      A                      A                      A
 Frequencies --   3128.9911              3144.8628              3150.1366
 Red. masses --      1.1022                 1.0538                 1.1012
 Frc consts  --      6.3579                 6.1406                 6.4385
 IR Inten    --     51.8456                19.4627                20.4898

                     76                     77                     78
                      A                      A                      A
 Frequencies --   3154.6153              3190.7101              3217.6022
 Red. masses --      1.0565                 1.0900                 1.1179
 Frc consts  --      6.1948                 6.5382                 6.8189
 IR Inten    --     12.7658                 2.6077                 5.8170

                     79                     80                     81
                      A                      A                      A
 Frequencies --   3235.8720              3534.2212              3633.3306
 Red. masses --      1.1153                 1.0499                 1.0945
 Frc consts  --      6.8806                 7.7269                 8.5130
 IR Inten    --     20.9154                 8.0403                14.7754

 - Thermochemistry -
 -------------------
 Temperature   298.150 Kelvin.  Pressure   1.00000 Atm.
 Atom     1 has atomic number  6 and mass  12.00000

 Molecular mass:   196.10342 amu.
 Principal axes and moments of inertia in atomic units:
                           1         2         3
     Eigenvalues --  1324.051184157.519224937.28980
           X            0.99998  -0.00539   0.00159
           Y            0.00540   0.99997  -0.00633
           Z           -0.00155   0.00634   0.99998
 This molecule is an asymmetric top.
 Rotational symmetry number  1.
 Warning -- assumption of classical behavior for rotation
           may cause significant error
 Rotational temperatures (Kelvin)      0.06542     0.02083     0.01754
 Rotational constants (GHZ):           1.36304     0.43409     0.36553
    1 imaginary frequencies ignored.
 Zero-point vibrational energy     650729.7 (Joules/Mol)
                                  155.52812 (Kcal/Mol)
 Warning -- explicit consideration of  21 degrees of freedom as
           vibrations may cause significant error
 Vibrational temperatures:     60.56   113.82   174.97   190.27   259.48
          (Kelvin)            296.54   328.92   351.13   384.69   402.53
                              418.63   445.12   485.29   500.25   566.10
                              570.98   630.90   663.29   759.68   804.54
                              890.52   961.48   979.99  1022.59  1066.81
                             1142.65  1181.65  1192.27  1245.12  1320.12
                             1356.68  1366.47  1375.91  1410.00  1494.21
                             1524.62  1531.62  1546.23  1552.22  1562.60
                             1646.83  1748.14  1754.34  1776.24  1786.34
                             1807.56  1826.03  1873.93  1913.45  2049.20
                             2054.27  2093.22  2095.45  2168.17  2169.08
                             2177.82  2181.04  2199.14  2206.87  2212.25
                             2221.98  2276.15  2313.92  2439.18  4380.69
                             4386.12  4401.92  4475.89  4484.42  4493.07
                             4499.28  4501.92  4524.76  4532.34  4538.79
                             4590.72  4629.41  4655.70  5084.96  5227.55

 Zero-point correction=                           0.247850 (Hartree/Particle)
 Thermal correction to Energy=                    0.261346
 Thermal correction to Enthalpy=                  0.262290
 Thermal correction to Gibbs Free Energy=         0.208380
 Sum of electronic and zero-point Energies=           -898.164053
 Sum of electronic and thermal Energies=              -898.150557
 Sum of electronic and thermal Enthalpies=            -898.149613
 Sum of electronic and thermal Free Energies=         -898.203523

                     E (Thermal)             CV                S
                      KCal/Mol        Cal/Mol-Kelvin    Cal/Mol-Kelvin
 Total                  163.997             52.446            113.463
 Electronic               0.000              0.000              0.000
 Translational            0.889              2.981             41.725
 Rotational               0.889              2.981             31.675
 Vibrational            162.219             46.484             40.062
 Vibration     1          0.595              1.980              5.158
 Vibration     2          0.600              1.963              3.913
 Vibration     3          0.609              1.931              3.075
 Vibration     4          0.612              1.921              2.913
 Vibration     5          0.629              1.866              2.325
 Vibration     6          0.641              1.831              2.078
 Vibration     7          0.651              1.797              1.890
 Vibration     8          0.659              1.773              1.773
 Vibration     9          0.672              1.733              1.613
 Vibration    10          0.680              1.711              1.535
 Vibration    11          0.687              1.691              1.468
 Vibration    12          0.699              1.656              1.366
 Vibration    13          0.718              1.601              1.225
 Vibration    14          0.725              1.580              1.177
 Vibration    15          0.761              1.484              0.987
 Vibration    16          0.763              1.477              0.974
 Vibration    17          0.799              1.386              0.831
 Vibration    18          0.819              1.337              0.763
 Vibration    19          0.883              1.188              0.592
 Vibration    20          0.915              1.120              0.525
 Vibration    21          0.979              0.992              0.418

                           ! Non-Optimized Parameters !
 Normal termination of Gaussian 16 at Mon Dec 14 16:41:56 2020.

 ----------------------------------------------------------------------
 # B3LYP/6-311++G(d,p) empiricaldispersion=gd3bj scf=xqc pop=npa geom=c
 heck
 ----------------------------------------------------------------------

 --------------------------------------
 CID_62077368_JID_3240_Energie_neutraal
 --------------------------------------
 Structure from the checkpoint file:  "JID_3240.chk"
 Charge =  0 Multiplicity = 1

 SCF Done:  E(RB3LYP) =  -898.578671804     A.U. after   16 cycles
 Normal termination of Gaussian 16 at Mon Dec 14 16:45:45 2020.

 ----------------------------------------------------------------------
 # B3LYP/6-311++G(d,p) empiricaldispersion=gd3bj scf=xqc pop=npa geom=c
 heck
 ----------------------------------------------------------------------

 ------------------------------------
 CID_62077368_JID_3240_Energie_kation
 ------------------------------------
 Structure from the checkpoint file:  "JID_3240.chk"
 Charge =  1 Multiplicity = 2

 SCF Done:  E(UB3LYP) =  -898.314034708     A.U. after   20 cycles
 Normal termination of Gaussian 16 at Mon Dec 14 16:52:32 2020.
 Gaussian 16:  ES64L-G16RevA.03 25-Dec-2016

 ----------------------------------------------------------------------
 # B3LYP/6-311++G(d,p) empiricaldispersion=gd3bj scf=xqc pop=npa geom=c
 heck
 ----------------------------------------------------------------------

 -----------------------------------
 CID_62077368_JID_3240_Energie_anion
 -----------------------------------
 Structure from the checkpoint file:  "JID_3240.chk"
 Charge = -1 Multiplicity = 2

                         Standard orientation:
 ---------------------------------------------------------------------
 Center     Atomic      Atomic             Coordinates (Angstroms)
 Number     Number       Type             X           Y           Z
 ---------------------------------------------------------------------
      1          6           0        2.670838   -1.891798   -0.384079
      2          6           0        2.499719   -0.411878   -0.003510
      3          6           0        3.038221   -0.181609    1.426313
      4          6           0        3.282009    0.471378   -0.994071
      5          6           0        1.025144   -0.065737   -0.035411
      6          7           0        0.050877   -0.916944   -0.020560
      7          6           0       -1.204559   -0.328579   -0.002646
      8          6           0       -1.182265    1.047191    0.000899
      9         16           0        0.470707    1.625646   -0.011317
     10          7           0       -2.233738    1.969642    0.096524
     11          6           0       -2.378163   -1.242063    0.015700
     12          6           0       -3.663494   -0.913542    0.747223
     13          6           0       -3.652375   -0.969470   -0.759090
     14          1           0        3.731680   -2.163179   -0.339255
     15          1           0        2.304599   -2.080132   -1.397958
     16          1           0        2.110717   -2.537570    0.296261
     17          1           0        4.101446   -0.444581    1.477567
     18          1           0        2.930564    0.866202    1.726942
     19          1           0        2.493606   -0.799637    2.147418
     20          1           0        2.907829    0.343902   -2.015279
     21          1           0        3.208175    1.534076   -0.735614
     22          1           0        4.343591    0.200249   -0.979659
     23          1           0       -3.124590    1.585314   -0.193862
     24          1           0       -2.059119    2.833947   -0.405235
     25          1           0       -2.062024   -2.279850    0.050093
     26          1           0       -4.160101   -1.715945    1.285076
     27          1           0       -3.730742    0.051242    1.241324
     28          1           0       -3.719965   -0.046546   -1.329661
     29          1           0       -4.137399   -1.810084   -1.246811
 ---------------------------------------------------------------------

 SCF Done:  E(UB3LYP) =  -898.565387574     A.U. after   33 cycles
 SCF Done:  E(UB3LYP) =  -898.565387595     a.u. after    2 cycles

 The electronic state is 2-A.
 Alpha  occ. eigenvalues --  -88.76759 -14.21816 -14.20328 -10.12834 -10.12199
 Alpha  occ. eigenvalues --  -10.10381 -10.09008 -10.08371 -10.07543 -10.07424
 Alpha  occ. eigenvalues --  -10.07070 -10.07013 -10.06431  -7.85421  -5.81701
 Alpha  occ. eigenvalues --   -5.81361  -5.80986  -0.85941  -0.80912  -0.76174
 Alpha  occ. eigenvalues --   -0.72989  -0.67168  -0.62569  -0.59829  -0.59427
 Alpha  occ. eigenvalues --   -0.52103  -0.50840  -0.50585  -0.45762  -0.43748
 Alpha  occ. eigenvalues --   -0.39931  -0.39051  -0.38387  -0.36035  -0.35297
 Alpha  occ. eigenvalues --   -0.35093  -0.32963  -0.31705  -0.30312  -0.29551
 Alpha  occ. eigenvalues --   -0.28943  -0.27628  -0.27120  -0.25660  -0.24791
 Alpha  occ. eigenvalues --   -0.24553  -0.23942  -0.22559  -0.21166  -0.20429
 Alpha  occ. eigenvalues --   -0.16532  -0.15859  -0.09249   0.04456
 Alpha virt. eigenvalues --    0.05758   0.06967   0.08154   0.08350   0.08584
 Alpha virt. eigenvalues --    0.08766   0.09187   0.09692   0.10756   0.11281
 Alpha virt. eigenvalues --    0.11629   0.11827   0.12297   0.12456   0.12908

  Beta  occ. eigenvalues --  -88.76751 -14.21727 -14.20328 -10.12818 -10.12170
  Beta  occ. eigenvalues --  -10.10379 -10.09009 -10.08367 -10.07529 -10.07386
  Beta  occ. eigenvalues --  -10.07054 -10.06994 -10.06421  -7.85411  -5.81691
  Beta  occ. eigenvalues --   -5.81354  -5.80979  -0.85908  -0.80799  -0.76153
  Beta  occ. eigenvalues --   -0.72973  -0.67111  -0.62521  -0.59796  -0.59399
  Beta  occ. eigenvalues --   -0.52060  -0.50777  -0.50505  -0.45681  -0.43702
  Beta  occ. eigenvalues --   -0.39856  -0.39017  -0.38310  -0.35986  -0.35275
  Beta  occ. eigenvalues --   -0.35047  -0.32918  -0.31675  -0.30267  -0.29521
  Beta  occ. eigenvalues --   -0.28913  -0.27611  -0.27087  -0.25618  -0.24766
  Beta  occ. eigenvalues --   -0.24527  -0.23907  -0.22503  -0.21132  -0.20396
  Beta  occ. eigenvalues --   -0.16522  -0.15828  -0.09182
  Beta virt. eigenvalues --    0.06290   0.07026   0.08025   0.08286   0.08535
  Beta virt. eigenvalues --    0.08824   0.09224   0.09466   0.10087   0.10836
  Beta virt. eigenvalues --    0.11370   0.11888   0.12219   0.12636   0.12781

 Mulliken charges and spin densities:
               1          2
     1  C   -0.250291  -0.410338
     2  C   -0.964796   2.009944
     3  C    0.032231  -0.551121
     4  C    0.125857  -0.718371
     5  C    0.921594  -1.338185
     6  N    0.177512   0.056972
     7  C    3.212181  -3.856362
     8  C   -1.259807   1.542408
     9  S   -0.706012   0.231117
    10  N   -0.309815   0.076804
    11  C   -1.839072   1.794682
    12  C    0.539718  -0.914434
    13  C    0.942875  -1.257593
    14  H   -0.008327   0.151030
    15  H    0.069306   0.081246
    16  H    0.139109   0.014928
    17  H   -0.201909   0.356187
    18  H    0.004302   0.141817
    19  H    0.090091   0.070443
    20  H    0.032491   0.120733
    21  H   -0.131984   0.255892
    22  H   -0.229922   0.390044
    23  H    0.239749  -0.015196
    24  H   -0.751787   1.029598
    25  H   -0.022674   0.284694
    26  H   -0.040600   0.178428
    27  H   -0.090532   0.248716
    28  H   -0.503010   0.664333
    29  H   -0.216478   0.361584
 Sum of Mulliken charges =  -1.00000   1.00000

 Dipole moment (field-independent basis, Debye):
    X=              3.6035    Y=             -3.6927    Z=              2.0611  Tot=              5.5560
 Quadrupole moment (field-independent basis, Debye-Ang):
   XX=           -166.2861   YY=           -133.9433   ZZ=           -116.4159
   XY=              9.4837   XZ=             -7.7126   YZ=              3.5553

 Summary of Natural Population Analysis:

                                       Natural Population
                Natural  -----------------------------------------------
    Atom  No    Charge         Core      Valence    Rydberg      Total
 -----------------------------------------------------------------------
      C    1   -0.27886      0.99964     2.27269    0.00653     3.27886
      C    2   -0.06962      0.99953     2.05902    0.01108     3.06962
      C    3   -0.27953      0.99963     2.27274    0.00716     3.27953
      C    4   -0.28288      0.99963     2.27567    0.00758     3.28288
      C    5    0.05335      0.99953     1.92849    0.01863     2.94665
      N    6   -0.24023      0.99962     2.73024    0.01036     3.74023
      C    7    0.01896      0.99940     1.96510    0.01655     2.98104
      C    8    0.00525      0.99944     1.97930    0.01601     2.99475
      S    9    0.16901      4.99941     2.81380    0.01778     7.83099
      N   10   -0.40244      0.99971     2.88938    0.01335     3.90244
      C   11   -0.11769      0.99957     2.10619    0.01193     3.11769
      C   12   -0.19865      0.99963     2.19131    0.00772     3.19865
      C   13   -0.19608      0.99963     2.18686    0.00959     3.19608
      H   14    0.09507      0.00000     0.40405    0.00088     0.40493
      H   15    0.10333      0.00000     0.39570    0.00097     0.39667
      H   16    0.10752      0.00000     0.39134    0.00114     0.39248
      H   17    0.09790      0.00000     0.40121    0.00089     0.40210
      H   18    0.10143      0.00000     0.39774    0.00083     0.39857
      H   19    0.10263      0.00000     0.39656    0.00081     0.39737
      H   20    0.10338      0.00000     0.39570    0.00092     0.39662
      H   21    0.10138      0.00000     0.39764    0.00098     0.39862
      H   22    0.09939      0.00000     0.39969    0.00092     0.40061
      H   23    0.19160      0.00000     0.30363    0.00477     0.30840
      H   24    0.19372      0.00000     0.29299    0.01329     0.30628
      H   25    0.11156      0.00000     0.38707    0.00137     0.38844
      H   26    0.10030      0.00000     0.39883    0.00087     0.39970
      H   27    0.10488      0.00000     0.39391    0.00121     0.39512
      H   28    0.10281      0.00000     0.39521    0.00198     0.39719
      H   29    0.10250      0.00000     0.39639    0.00110     0.39750
 =======================================================================
   * Total *   -0.00000     16.99436    35.81845    0.18719    53.00000

 Normal termination of Gaussian 16 at Mon Dec 14 17:12:46 2020.
