 Gaussian 16, Revision A.03,

 -----------------------------------------------------------
 # opt freq B3LYP/6-31G(d) empiricaldispersion=gd3bj scf=xqc
 -----------------------------------------------------------

 ------------------------------
 CID_12595033_JID_6534_neutraal
 ------------------------------
 Symbolic Z-matrix:
 Charge =  0 Multiplicity = 1

 SCF Done:  E(RB3LYP) =  -724.510664527     A.U. after   15 cycles
 SCF Done:  E(RB3LYP) =  -724.518532726     A.U. after   13 cycles
 SCF Done:  E(RB3LYP) =  -724.512742513     A.U. after   15 cycles
 SCF Done:  E(RB3LYP) =  -724.520567482     A.U. after   12 cycles
 SCF Done:  E(RB3LYP) =  -724.521430146     A.U. after   12 cycles
 SCF Done:  E(RB3LYP) =  -724.522282733     A.U. after   12 cycles
 SCF Done:  E(RB3LYP) =  -724.522612547     A.U. after   12 cycles
 SCF Done:  E(RB3LYP) =  -724.522917049     A.U. after   12 cycles
 SCF Done:  E(RB3LYP) =  -724.523124399     A.U. after   12 cycles
 SCF Done:  E(RB3LYP) =  -724.523100344     A.U. after   12 cycles
 SCF Done:  E(RB3LYP) =  -724.524186077     A.U. after    9 cycles
 SCF Done:  E(RB3LYP) =  -724.524192515     A.U. after   10 cycles
 SCF Done:  E(RB3LYP) =  -724.524193830     A.U. after    8 cycles
 SCF Done:  E(RB3LYP) =  -724.524196362     A.U. after   10 cycles
 SCF Done:  E(RB3LYP) =  -724.524196825     A.U. after    8 cycles
 SCF Done:  E(RB3LYP) =  -724.524196895     A.U. after    7 cycles
 Optimization completed.
    -- Stationary point found.
 Normal termination of Gaussian 16 at Thu Dec 10 23:35:48 2020.

 --------------------------------------------------------------------
 #N Geom=AllCheck Guess=TCheck SCRF=Check GenChk RB3LYP/6-31G(d) Freq
 --------------------------------------------------------------------

 Structure from the checkpoint file:  "JID_6534.chk"
 ------------------------------
 CID_12595033_JID_6534_neutraal
 ------------------------------
 Charge =  0 Multiplicity = 1

 SCF Done:  E(RB3LYP) =  -724.524196895     A.U. after    1 cycles

  Exact polarizability: 224.963   1.548 139.189 -13.721   2.803  76.484
 Approx polarizability: 347.550   0.016 242.674 -33.004   6.957 117.227

                      1                      2                      3
                      A                      A                      A
 Frequencies --     46.4168                51.7819                65.1856
 Red. masses --      7.2541                 5.2405                 4.0758
 Frc consts  --      0.0092                 0.0083                 0.0102
 IR Inten    --      1.5234                 5.0943                 1.1399

                      4                      5                      6
                      A                      A                      A
 Frequencies --     71.0148               118.7271               159.9567
 Red. masses --      4.0674                 4.5674                 2.0762
 Frc consts  --      0.0121                 0.0379                 0.0313
 IR Inten    --      0.6503                 0.7404                 1.9851

                      7                      8                      9
                      A                      A                      A
 Frequencies --    179.4133               206.9879               273.0234
 Red. masses --      1.5613                 3.6201                 3.3095
 Frc consts  --      0.0296                 0.0914                 0.1453
 IR Inten    --      1.7723                 0.7448                 0.0581

                     10                     11                     12
                      A                      A                      A
 Frequencies --    306.8334               315.6307               357.1147
 Red. masses --      3.6874                 5.2445                 5.4471
 Frc consts  --      0.2045                 0.3078                 0.4093
 IR Inten    --      3.6217                 1.9587                 5.3823

                     13                     14                     15
                      A                      A                      A
 Frequencies --    361.4099               433.7732               457.1066
 Red. masses --      5.2977                 3.1792                 1.3460
 Frc consts  --      0.4077                 0.3525                 0.1657
 IR Inten    --      3.8878                 6.2788                66.3873

                     16                     17                     18
                      A                      A                      A
 Frequencies --    482.3232               493.2058               500.6155
 Red. masses --      2.5867                 2.1510                 1.7734
 Frc consts  --      0.3545                 0.3083                 0.2619
 IR Inten    --     26.7144                50.7746                64.9989

                     19                     20                     21
                      A                      A                      A
 Frequencies --    544.7781               545.1671               571.5672
 Red. masses --      3.3019                 4.2200                 4.0162
 Frc consts  --      0.5774                 0.7390                 0.7730
 IR Inten    --     18.9287                17.6168                 3.2011

                     22                     23                     24
                      A                      A                      A
 Frequencies --    601.1229               618.8117               642.6412
 Red. masses --      4.6588                 2.8878                 7.1971
 Frc consts  --      0.9919                 0.6515                 1.7512
 IR Inten    --      3.9773                34.7530                 8.0801

                     25                     26                     27
                      A                      A                      A
 Frequencies --    690.0366               763.9723               773.7702
 Red. masses --      5.2972                 2.7510                 1.8549
 Frc consts  --      1.4861                 0.9460                 0.6543
 IR Inten    --      6.2028                 8.8657                28.1187

                     28                     29                     30
                      A                      A                      A
 Frequencies --    780.4282               809.3092               830.3962
 Red. masses --      3.8486                 3.2161                 4.8363
 Frc consts  --      1.3811                 1.2411                 1.9649
 IR Inten    --      6.7079                10.6024                 7.2610

                     31                     32                     33
                      A                      A                      A
 Frequencies --    883.9199               901.1202               930.7457
 Red. masses --      1.5397                 3.5763                 3.2089
 Frc consts  --      0.7088                 1.7110                 1.6378
 IR Inten    --      2.2436                 3.3439                 2.4666

                     34                     35                     36
                      A                      A                      A
 Frequencies --    945.6137               969.4811              1001.1307
 Red. masses --      1.8280                 1.3677                 1.2831
 Frc consts  --      0.9631                 0.7574                 0.7577
 IR Inten    --      7.0649                 3.6601                 0.0429

                     37                     38                     39
                      A                      A                      A
 Frequencies --   1011.7665              1042.6753              1047.7374
 Red. masses --      1.7997                 1.6184                 2.1834
 Frc consts  --      1.0855                 1.0367                 1.4122
 IR Inten    --     37.3301                26.5490                 2.4525

                     40                     41                     42
                      A                      A                      A
 Frequencies --   1072.9293              1078.2962              1146.1929
 Red. masses --      4.0795                 1.8247                 2.0506
 Frc consts  --      2.7670                 1.2500                 1.5873
 IR Inten    --     73.7280                 8.5712                 3.5446

                     43                     44                     45
                      A                      A                      A
 Frequencies --   1179.7151              1185.5112              1216.3490
 Red. masses --      1.4496                 1.3365                 1.3226
 Frc consts  --      1.1886                 1.1067                 1.1529
 IR Inten    --     12.8444                 1.1085                17.7170

                     46                     47                     48
                      A                      A                      A
 Frequencies --   1237.5343              1289.6292              1293.0907
 Red. masses --      1.4978                 3.1714                 2.1889
 Frc consts  --      1.3515                 3.1076                 2.1564
 IR Inten    --     27.6359                 7.4971                10.6669

                     49                     50                     51
                      A                      A                      A
 Frequencies --   1331.7669              1357.9284              1370.6718
 Red. masses --      3.1726                 2.2101                 1.3672
 Frc consts  --      3.3153                 2.4011                 1.5134
 IR Inten    --    289.8655                35.2884                 2.8967

                     52                     53                     54
                      A                      A                      A
 Frequencies --   1388.7733              1408.9300              1438.5669
 Red. masses --      2.4832                 5.5348                 1.3398
 Frc consts  --      2.8217                 6.4734                 1.6337
 IR Inten    --     24.2665                41.4813                47.6628

                     55                     56                     57
                      A                      A                      A
 Frequencies --   1450.1052              1455.3058              1479.9898
 Red. masses --      1.4681                 2.0699                 3.1486
 Frc consts  --      1.8188                 2.5829                 4.0634
 IR Inten    --     51.2354               103.1334                30.2745

                     58                     59                     60
                      A                      A                      A
 Frequencies --   1504.9380              1512.5647              1521.4791
 Red. masses --      1.0620                 3.1404                 1.0496
 Frc consts  --      1.4171                 4.2332                 1.4315
 IR Inten    --     15.3246                17.1604                14.9353

                     61                     62                     63
                      A                      A                      A
 Frequencies --   1543.8428              1548.3013              1614.8751
 Red. masses --      1.0932                 3.2079                 7.4018
 Frc consts  --      1.5352                 4.5308                11.3728
 IR Inten    --      3.6288                18.3830                 5.0545

                     64                     65                     66
                      A                      A                      A
 Frequencies --   1656.3770              1679.9315              1807.4573
 Red. masses --      6.8265                 5.9999                 8.4805
 Frc consts  --     11.0349                 9.9764                16.3233
 IR Inten    --     12.6499                 2.3837               457.4035

                     67                     68                     69
                      A                      A                      A
 Frequencies --   3011.7271              3062.7404              3124.9141
 Red. masses --      1.0731                 1.0388                 1.1004
 Frc consts  --      5.7351                 5.7413                 6.3312
 IR Inten    --     52.2118                 5.9399                 2.8439

                     70                     71                     72
                      A                      A                      A
 Frequencies --   3165.1045              3180.4174              3186.1184
 Red. masses --      1.0909                 1.1014                 1.0872
 Frc consts  --      6.4390                 6.5638                 6.5026
 IR Inten    --     18.2774                 8.8085                 1.2814

                     73                     74                     75
                      A                      A                      A
 Frequencies --   3192.3946              3197.7572              3211.6976
 Red. masses --      1.0914                 1.0893                 1.0939
 Frc consts  --      6.5533                 6.5625                 6.6483
 IR Inten    --      6.8807                11.2260                21.8236

                     76                     77                     78
                      A                      A                      A
 Frequencies --   3222.8817              3583.5052              3689.9347
 Red. masses --      1.0960                 1.0756                 1.0653
 Frc consts  --      6.7072                 8.1383                 8.5458
 IR Inten    --     14.1281                27.1072                22.0156

 - Thermochemistry -
 -------------------
 Temperature   298.150 Kelvin.  Pressure   1.00000 Atm.
 Atom     1 has atomic number  6 and mass  12.00000

 Molecular mass:   216.08988 amu.
 Principal axes and moments of inertia in atomic units:
                           1         2         3
     Eigenvalues --  1770.063475283.533026512.24298
           X            0.99995   0.01003   0.00187
           Y           -0.01002   0.99994  -0.00447
           Z           -0.00191   0.00445   0.99999
 This molecule is an asymmetric top.
 Rotational symmetry number  1.
 Warning -- assumption of classical behavior for rotation
           may cause significant error
 Rotational temperatures (Kelvin)      0.04893     0.01639     0.01330
 Rotational constants (GHZ):           1.01959     0.34158     0.27713
 Zero-point vibrational energy     588484.7 (Joules/Mol)
                                  140.65122 (Kcal/Mol)
 Warning -- explicit consideration of  23 degrees of freedom as
           vibrations may cause significant error
 Vibrational temperatures:     66.78    74.50    93.79   102.17   170.82
          (Kelvin)            230.14   258.14   297.81   392.82   441.46
                              454.12   513.81   519.99   624.10   657.67
                              693.96   709.61   720.27   783.81   784.37
                              822.36   864.88   890.33   924.62   992.81
                             1099.19  1113.28  1122.86  1164.42  1194.75
                             1271.76  1296.51  1339.14  1360.53  1394.87
                             1440.40  1455.71  1500.18  1507.46  1543.71
                             1551.43  1649.12  1697.35  1705.69  1750.05
                             1780.54  1855.49  1860.47  1916.12  1953.76
                             1972.09  1998.14  2027.14  2069.78  2086.38
                             2093.86  2129.38  2165.27  2176.24  2189.07
                             2221.25  2227.66  2323.45  2383.16  2417.05
                             2600.53  4333.20  4406.60  4496.05  4553.88
                             4575.91  4584.11  4593.14  4600.86  4620.92
                             4637.01  5155.86  5308.99

 Zero-point correction=                           0.224142 (Hartree/Particle)
 Thermal correction to Energy=                    0.238082
 Thermal correction to Enthalpy=                  0.239026
 Thermal correction to Gibbs Free Energy=         0.182599
 Sum of electronic and zero-point Energies=           -724.300055
 Sum of electronic and thermal Energies=              -724.286115
 Sum of electronic and thermal Enthalpies=            -724.285171
 Sum of electronic and thermal Free Energies=         -724.341598

                     E (Thermal)             CV                S
                      KCal/Mol        Cal/Mol-Kelvin    Cal/Mol-Kelvin
 Total                  149.399             53.726            118.762
 Electronic               0.000              0.000              0.000
 Translational            0.889              2.981             42.015
 Rotational               0.889              2.981             32.477
 Vibrational            147.621             47.765             44.270
 Vibration     1          0.595              1.979              4.964
 Vibration     2          0.596              1.977              4.748
 Vibration     3          0.597              1.971              4.294
 Vibration     4          0.598              1.968              4.125
 Vibration     5          0.609              1.934              3.121
 Vibration     6          0.622              1.891              2.550
 Vibration     7          0.629              1.868              2.335
 Vibration     8          0.641              1.830              2.070
 Vibration     9          0.676              1.723              1.577
 Vibration    10          0.697              1.661              1.379
 Vibration    11          0.703              1.644              1.333
 Vibration    12          0.732              1.561              1.135
 Vibration    13          0.736              1.552              1.116
 Vibration    14          0.795              1.397              0.846
 Vibration    15          0.815              1.345              0.775
 Vibration    16          0.839              1.289              0.704
 Vibration    17          0.849              1.265              0.675
 Vibration    18          0.856              1.249              0.657
 Vibration    19          0.900              1.151              0.555
 Vibration    20          0.900              1.150              0.554
 Vibration    21          0.928              1.093              0.501
 Vibration    22          0.959              1.029              0.448
 Vibration    23          0.979              0.992              0.418

 Optimization completed.
    -- Stationary point found.
 Normal termination of Gaussian 16 at Thu Dec 10 23:44:26 2020.

 ----------------------------------------------------------------------
 # B3LYP/6-311++G(d,p) empiricaldispersion=gd3bj scf=xqc pop=npa geom=c
 heck
 ----------------------------------------------------------------------

 --------------------------------------
 CID_12595033_JID_6534_Energie_neutraal
 --------------------------------------
 Structure from the checkpoint file:  "JID_6534.chk"
 Charge =  0 Multiplicity = 1

 SCF Done:  E(RB3LYP) =  -724.730940675     A.U. after   16 cycles
 Normal termination of Gaussian 16 at Thu Dec 10 23:47:50 2020.

 ----------------------------------------------------------------------
 # B3LYP/6-311++G(d,p) empiricaldispersion=gd3bj scf=xqc pop=npa geom=c
 heck
 ----------------------------------------------------------------------

 ------------------------------------
 CID_12595033_JID_6534_Energie_kation
 ------------------------------------
 Structure from the checkpoint file:  "JID_6534.chk"
 Charge =  1 Multiplicity = 2

 SCF Done:  E(UB3LYP) =  -724.417907786     A.U. after   28 cycles
 Normal termination of Gaussian 16 at Thu Dec 10 23:55:52 2020.
 Gaussian 16:  ES64L-G16RevA.03 25-Dec-2016

 ----------------------------------------------------------------------
 # B3LYP/6-311++G(d,p) empiricaldispersion=gd3bj scf=xqc pop=npa geom=c
 heck
 ----------------------------------------------------------------------

 -----------------------------------
 CID_12595033_JID_6534_Energie_anion
 -----------------------------------
 Structure from the checkpoint file:  "JID_6534.chk"
 Charge = -1 Multiplicity = 2

                         Standard orientation:
 ---------------------------------------------------------------------
 Center     Atomic      Atomic             Coordinates (Angstroms)
 Number     Number       Type             X           Y           Z
 ---------------------------------------------------------------------
      1          6           0        2.760620   -0.361760    1.538168
      2          6           0        3.068202   -1.025360    0.209320
      3          8           0        4.134832   -1.557823   -0.049186
      4          7           0        2.047592   -1.017358   -0.732784
      5          6           0        0.731510   -0.519707   -0.543163
      6          6           0       -0.332815   -1.379175   -0.374638
      7          6           0       -1.631715   -0.867104   -0.153957
      8          6           0       -2.774206   -1.687741    0.030846
      9          6           0       -4.002707   -1.119771    0.278314
     10          6           0       -4.140480    0.289244    0.350438
     11          6           0       -3.050480    1.110629    0.173618
     12          6           0       -1.771484    0.554625   -0.083743
     13          7           0       -0.713689    1.390844   -0.269649
     14          6           0        0.480895    0.885808   -0.513665
     15          6           0        1.562274    1.928600   -0.721287
     16          8           0        1.655274    2.780119    0.412804
     17          1           0        2.545405    0.706808    1.429395
     18          1           0        3.628589   -0.492043    2.184937
     19          1           0        1.883326   -0.823836    2.004836
     20          1           0        2.249209   -1.574702   -1.554624
     21          1           0       -0.166952   -2.453475   -0.390141
     22          1           0       -2.660963   -2.767398   -0.022289
     23          1           0       -4.874886   -1.750875    0.420408
     24          1           0       -5.118117    0.719740    0.546428
     25          1           0       -3.132389    2.191546    0.220707
     26          1           0        2.541594    1.474163   -0.867159
     27          1           0        1.313870    2.504085   -1.626492
     28          1           0        0.735452    3.023491    0.620578
 ---------------------------------------------------------------------

 SCF Done:  E(UB3LYP) =  -724.758632962     A.U. after   21 cycles

 The electronic state is 2-A.
 Alpha  occ. eigenvalues --  -19.00161 -18.97789 -14.21941 -14.14613 -10.16231
 Alpha  occ. eigenvalues --  -10.09219 -10.06945 -10.06558 -10.06105 -10.05828
 Alpha  occ. eigenvalues --  -10.04520 -10.03661 -10.03560 -10.03052 -10.02521
 Alpha  occ. eigenvalues --  -10.02378  -0.92930  -0.90426  -0.81483  -0.78991
 Alpha  occ. eigenvalues --   -0.70864  -0.65749  -0.62647  -0.62333  -0.59856
 Alpha  occ. eigenvalues --   -0.56365  -0.50640  -0.48283  -0.46828  -0.45656
 Alpha  occ. eigenvalues --   -0.41046  -0.40008  -0.38304  -0.36588  -0.35431
 Alpha  occ. eigenvalues --   -0.34460  -0.32938  -0.31460  -0.30628  -0.29795
 Alpha  occ. eigenvalues --   -0.29476  -0.29127  -0.28415  -0.27340  -0.26613
 Alpha  occ. eigenvalues --   -0.25465  -0.23608  -0.22239  -0.21564  -0.20313
 Alpha  occ. eigenvalues --   -0.17649  -0.16274  -0.15287  -0.14951  -0.11893
 Alpha  occ. eigenvalues --   -0.10914  -0.10120   0.03065
 Alpha virt. eigenvalues --    0.08509   0.09133   0.09589   0.10232   0.10454
 Alpha virt. eigenvalues --    0.11129   0.11505   0.12277   0.12417   0.12665
 Alpha virt. eigenvalues --    0.13301   0.13614   0.14122   0.14541   0.15825

  Beta  occ. eigenvalues --  -19.00141 -18.97780 -14.21954 -14.14141 -10.16219
  Beta  occ. eigenvalues --  -10.09231 -10.06902 -10.06608 -10.05957 -10.05825
  Beta  occ. eigenvalues --  -10.04612 -10.03617 -10.03472 -10.02810 -10.02176
  Beta  occ. eigenvalues --  -10.02062  -0.92909  -0.90376  -0.81255  -0.78535
  Beta  occ. eigenvalues --   -0.70478  -0.65183  -0.62604  -0.62051  -0.59414
  Beta  occ. eigenvalues --   -0.56197  -0.50245  -0.47935  -0.46566  -0.45451
  Beta  occ. eigenvalues --   -0.40795  -0.39846  -0.38154  -0.36467  -0.35299
  Beta  occ. eigenvalues --   -0.34319  -0.32819  -0.31308  -0.30539  -0.29691
  Beta  occ. eigenvalues --   -0.29297  -0.29021  -0.28367  -0.26812  -0.26008
  Beta  occ. eigenvalues --   -0.25372  -0.23421  -0.22049  -0.21332  -0.19269
  Beta  occ. eigenvalues --   -0.16421  -0.16129  -0.14983  -0.14528  -0.11312
  Beta  occ. eigenvalues --   -0.10212  -0.08287
  Beta virt. eigenvalues --    0.08461   0.08838   0.09262   0.09611   0.10274
  Beta virt. eigenvalues --    0.10513   0.11104   0.11650   0.12402   0.12674
  Beta virt. eigenvalues --    0.12814   0.13369   0.13752   0.14125   0.15156

 Mulliken charges and spin densities:
               1          2
     1  C   -0.399280   0.004280
     2  C   -0.000347   0.006197
     3  O   -0.369443   0.003654
     4  N   -0.172951  -0.011963
     5  C   -0.085577  -0.002938
     6  C   -0.011665   0.415976
     7  C    0.710492  -0.075412
     8  C   -0.112361   0.162296
     9  C   -0.406335   0.050365
    10  C   -0.204995   0.085230
    11  C   -0.308151   0.110037
    12  C   -0.455423  -0.019842
    13  N   -0.007061   0.224485
    14  C   -0.124505   0.064564
    15  C   -0.698309   0.002887
    16  O   -0.228959  -0.002018
    17  H    0.184830   0.000959
    18  H    0.159357   0.003629
    19  H    0.159128   0.000614
    20  H    0.280826   0.021847
    21  H    0.122146  -0.030364
    22  H    0.089410  -0.013175
    23  H    0.104611  -0.003091
    24  H    0.110630  -0.006127
    25  H    0.118081  -0.011799
    26  H    0.189133  -0.001740
    27  H    0.107901   0.023808
    28  H    0.248818  -0.002359
 Sum of Mulliken charges =  -1.00000   1.00000

 Dipole moment (field-independent basis, Debye):
    X=             -0.7085    Y=             -0.6149    Z=              0.0294  Tot=              0.9386
 Quadrupole moment (field-independent basis, Debye-Ang):
   XX=           -152.1971   YY=           -113.5007   ZZ=           -100.8300
   XY=              3.9887   XZ=             -1.0947   YZ=              0.0360

 Summary of Natural Population Analysis:

                                       Natural Population
                Natural  -----------------------------------------------
    Atom  No    Charge         Core      Valence    Rydberg      Total
 -----------------------------------------------------------------------
      C    1   -0.34124      0.99962     2.33775    0.00388     3.34124
      C    2    0.34692      0.99971     1.63170    0.02167     2.65308
      O    3   -0.33270      0.99987     3.32586    0.00697     4.33270
      N    4   -0.32366      0.99965     2.81274    0.01127     3.82366
      C    5    0.04155      0.99941     1.94829    0.01074     2.95845
      C    6    0.00853      0.99949     1.98392    0.00806     2.99147
      C    7   -0.06026      0.99949     2.05219    0.00858     3.06026
      C    8   -0.05297      0.99954     2.04436    0.00907     3.05297
      C    9   -0.10774      0.99957     2.09857    0.00959     3.10774
      C   10   -0.11308      0.99962     2.09661    0.01685     3.11308
      C   11   -0.02459      0.99954     2.01856    0.00649     3.02459
      C   12    0.06342      0.99952     1.91891    0.01816     2.93658
      N   13   -0.20030      0.99963     2.68546    0.01521     3.70030
      C   14    0.11753      0.99952     1.86835    0.01459     2.88247
      C   15   -0.02264      0.99956     2.01097    0.01211     3.02264
      O   16   -0.37576      0.99990     3.36966    0.00620     4.37576
      H   17    0.12388      0.00000     0.37489    0.00123     0.37612
      H   18    0.10434      0.00000     0.39471    0.00095     0.39566
      H   19    0.11267      0.00000     0.38655    0.00078     0.38733
      H   20    0.19314      0.00000     0.30521    0.00165     0.30686
      H   21    0.08722      0.00000     0.41120    0.00158     0.41278
      H   22    0.08715      0.00000     0.41119    0.00167     0.41285
      H   23    0.08883      0.00000     0.40997    0.00120     0.41117
      H   24    0.08968      0.00000     0.40947    0.00086     0.41032
      H   25    0.08950      0.00000     0.40883    0.00167     0.41050
      H   26    0.08677      0.00000     0.41208    0.00115     0.41323
      H   27    0.07950      0.00000     0.41925    0.00124     0.42050
      H   28    0.23497      0.00000     0.26218    0.00284     0.26503
 =======================================================================
   * Total *    0.00066     15.99364    40.80944    0.19626    56.99934

 Normal termination of Gaussian 16 at Fri Dec 11 00:01:46 2020.
