 Gaussian 16, Revision A.03,

 -----------------------------------------------------------
 # opt freq B3LYP/6-31G(d) empiricaldispersion=gd3bj scf=xqc
 -----------------------------------------------------------

 -------------------------------
 CID_135748613_JID_4900_neutraal
 -------------------------------
 Symbolic Z-matrix:
 Charge =  0 Multiplicity = 1

 SCF Done:  E(RB3LYP) =  -633.419587789     A.U. after   14 cycles
 SCF Done:  E(RB3LYP) =  -633.423064513     A.U. after   13 cycles
 SCF Done:  E(RB3LYP) =  -633.423384526     A.U. after   11 cycles
 SCF Done:  E(RB3LYP) =  -633.423848221     A.U. after   12 cycles
 SCF Done:  E(RB3LYP) =  -633.423898916     A.U. after   10 cycles
 SCF Done:  E(RB3LYP) =  -633.423897319     A.U. after   11 cycles
 SCF Done:  E(RB3LYP) =  -633.423912890     A.U. after   10 cycles
 SCF Done:  E(RB3LYP) =  -633.423916192     A.U. after    9 cycles
 SCF Done:  E(RB3LYP) =  -633.423916577     A.U. after    8 cycles
 SCF Done:  E(RB3LYP) =  -633.423916666     A.U. after    7 cycles
 Optimization completed.
    -- Stationary point found.
 Normal termination of Gaussian 16 at Thu Dec 10 10:46:52 2020.

 --------------------------------------------------------------------
 #N Geom=AllCheck Guess=TCheck SCRF=Check GenChk RB3LYP/6-31G(d) Freq
 --------------------------------------------------------------------

 Structure from the checkpoint file:  "JID_4900.chk"
 -------------------------------
 CID_135748613_JID_4900_neutraal
 -------------------------------
 Charge =  0 Multiplicity = 1

 SCF Done:  E(RB3LYP) =  -633.423916666     A.U. after    1 cycles

  Exact polarizability: 163.389 -10.260 121.232 -19.121 -13.820  97.717
 Approx polarizability: 230.808 -22.399 198.950 -39.744 -32.307 151.925

                      1                      2                      3
                      A                      A                      A
 Frequencies --     17.3545                37.5986                66.6558
 Red. masses --      4.2318                 4.0955                 3.1968
 Frc consts  --      0.0008                 0.0034                 0.0084
 IR Inten    --      0.1566                 0.4238                 0.0430

                      4                      5                      6
                      A                      A                      A
 Frequencies --     85.2725               142.1141               172.8777
 Red. masses --      4.7200                 2.0296                 4.4682
 Frc consts  --      0.0202                 0.0242                 0.0787
 IR Inten    --      0.6177                 0.5886                 3.6950

                      7                      8                      9
                      A                      A                      A
 Frequencies --    192.3936               228.7220               247.4911
 Red. masses --      4.0296                 2.0631                 2.7691
 Frc consts  --      0.0879                 0.0636                 0.0999
 IR Inten    --      0.6457                 0.6245                 1.0968

                     10                     11                     12
                      A                      A                      A
 Frequencies --    267.9880               286.7438               374.6360
 Red. masses --      3.9301                 2.0105                 1.1383
 Frc consts  --      0.1663                 0.0974                 0.0941
 IR Inten    --      5.1660                 0.3924               107.4010

                     13                     14                     15
                      A                      A                      A
 Frequencies --    398.9941               402.9785               443.7766
 Red. masses --      4.9421                 2.7858                 2.6987
 Frc consts  --      0.4635                 0.2665                 0.3131
 IR Inten    --      6.7110                 2.8812                 2.5602

                     16                     17                     18
                      A                      A                      A
 Frequencies --    457.9209               495.2563               520.6934
 Red. masses --      3.5089                 3.3338                 3.1549
 Frc consts  --      0.4335                 0.4818                 0.5040
 IR Inten    --      1.3438                 1.8439                10.7273

                     19                     20                     21
                      A                      A                      A
 Frequencies --    527.4611               549.2412               574.2194
 Red. masses --      1.2296                 3.6136                 5.1221
 Frc consts  --      0.2016                 0.6423                 0.9951
 IR Inten    --    134.2870                 1.7332                 0.7892

                     22                     23                     24
                      A                      A                      A
 Frequencies --    646.4762               696.7985               730.9035
 Red. masses --      3.6455                 2.9753                 3.5471
 Frc consts  --      0.8977                 0.8511                 1.1165
 IR Inten    --     18.5757                 0.6145                 2.7070

                     25                     26                     27
                      A                      A                      A
 Frequencies --    764.9660               798.8351               832.6244
 Red. masses --      1.3774                 2.3368                 1.5957
 Frc consts  --      0.4749                 0.8786                 0.6518
 IR Inten    --     58.4128                10.7695                 6.6383

                     28                     29                     30
                      A                      A                      A
 Frequencies --    842.1749               855.2903               859.4500
 Red. masses --      2.5258                 2.2647                 2.5317
 Frc consts  --      1.0555                 0.9761                 1.1018
 IR Inten    --      7.1888                 9.1406                17.2311

                     31                     32                     33
                      A                      A                      A
 Frequencies --    926.9849               949.1700               955.9515
 Red. masses --      1.6947                 1.4775                 2.0481
 Frc consts  --      0.8580                 0.7843                 1.1027
 IR Inten    --      6.4156                 1.8366                15.9885

                     34                     35                     36
                      A                      A                      A
 Frequencies --    971.7858               980.6593              1018.3129
 Red. masses --      1.5223                 1.3687                 2.2812
 Frc consts  --      0.8470                 0.7755                 1.3937
 IR Inten    --      2.0510                 3.0852                18.8439

                     37                     38                     39
                      A                      A                      A
 Frequencies --   1060.6937              1077.2731              1091.3186
 Red. masses --      3.0352                 2.1543                 1.8576
 Frc consts  --      2.0119                 1.4730                 1.3035
 IR Inten    --     14.7278                 0.5926                59.8185

                     40                     41                     42
                      A                      A                      A
 Frequencies --   1120.7792              1142.0802              1160.3000
 Red. masses --      2.3002                 1.7886                 1.9919
 Frc consts  --      1.7023                 1.3745                 1.5800
 IR Inten    --     44.9539                40.3184                 1.2512

                     43                     44                     45
                      A                      A                      A
 Frequencies --   1195.1575              1206.8224              1236.2863
 Red. masses --      1.1116                 1.2849                 2.2808
 Frc consts  --      0.9355                 1.1026                 2.0539
 IR Inten    --      6.1682                37.4047                45.6471

                     46                     47                     48
                      A                      A                      A
 Frequencies --   1269.0970              1284.1523              1301.9362
 Red. masses --      1.2221                 1.4624                 1.2082
 Frc consts  --      1.1597                 1.4208                 1.2067
 IR Inten    --      6.6993                20.8860                 6.0430

                     49                     50                     51
                      A                      A                      A
 Frequencies --   1304.1874              1342.6796              1362.1772
 Red. masses --      2.8931                 1.9544                 1.3681
 Frc consts  --      2.8994                 2.0760                 1.4957
 IR Inten    --     50.0067                71.2067                 6.3995

                     52                     53                     54
                      A                      A                      A
 Frequencies --   1379.2726              1392.2836              1417.1280
 Red. masses --      2.2820                 1.4186                 1.4857
 Frc consts  --      2.5578                 1.6202                 1.7580
 IR Inten    --     45.6150                10.5537                 7.5137

                     55                     56                     57
                      A                      A                      A
 Frequencies --   1441.3123              1445.4245              1460.0703
 Red. masses --      1.2434                 1.2990                 1.2518
 Frc consts  --      1.5219                 1.5990                 1.5723
 IR Inten    --      4.6957                17.4541               135.7715

                     58                     59                     60
                      A                      A                      A
 Frequencies --   1504.0008              1505.2497              1519.3419
 Red. masses --      2.1418                 1.1840                 1.0661
 Frc consts  --      2.8545                 1.5806                 1.4500
 IR Inten    --     49.1778                42.2438                 6.1943

                     61                     62                     63
                      A                      A                      A
 Frequencies --   1532.6426              1540.2881              1550.2017
 Red. masses --      1.0529                 1.0584                 2.4628
 Frc consts  --      1.4572                 1.4795                 3.4870
 IR Inten    --      6.4595                 3.4580                15.2218

                     64                     65                     66
                      A                      A                      A
 Frequencies --   1648.5873              1666.6468              1734.5827
 Red. masses --      5.7758                 6.0745                10.1324
 Frc consts  --      9.2488                 9.9415                17.9620
 IR Inten    --      9.7329                57.2098               115.6900

                     67                     68                     69
                      A                      A                      A
 Frequencies --   3034.1445              3042.0203              3049.0929
 Red. masses --      1.0587                 1.0401                 1.0672
 Frc consts  --      5.7423                 5.6706                 5.8456
 IR Inten    --      6.6313                16.3185                 9.2925

                     70                     71                     72
                      A                      A                      A
 Frequencies --   3055.4822              3081.9854              3086.9427
 Red. masses --      1.0739                 1.1055                 1.1014
 Frc consts  --      5.9072                 6.1871                 6.1837
 IR Inten    --     64.6649                31.2011                12.8212

                     73                     74                     75
                      A                      A                      A
 Frequencies --   3108.4777              3116.3083              3121.9157
 Red. masses --      1.1018                 1.1019                 1.0870
 Frc consts  --      6.2725                 6.3048                 6.2420
 IR Inten    --     50.3676                59.7820                22.6230

                     76                     77                     78
                      A                      A                      A
 Frequencies --   3170.5814              3198.2725              3210.9308
 Red. masses --      1.0889                 1.0880                 1.0920
 Frc consts  --      6.4491                 6.5574                 6.6332
 IR Inten    --     15.9501                 5.0766                16.9201

                     79                     80                     81
                      A                      A                      A
 Frequencies --   3223.6397              3660.7769              3752.9622
 Red. masses --      1.0958                 1.0647                 1.0660
 Frc consts  --      6.7092                 8.4068                 8.8462
 IR Inten    --     10.6823                55.0055                52.5324

 - Thermochemistry -
 -------------------
 Temperature   298.150 Kelvin.  Pressure   1.00000 Atm.
 Atom     1 has atomic number  6 and mass  12.00000

 Molecular mass:   193.11028 amu.
 Principal axes and moments of inertia in atomic units:
                           1         2         3
     Eigenvalues --  1507.027614910.747855084.87170
           X            0.99995   0.00715   0.00674
           Y           -0.00744   0.99901   0.04382
           Z           -0.00642  -0.04387   0.99902
 This molecule is an asymmetric top.
 Rotational symmetry number  1.
 Warning -- assumption of classical behavior for rotation
           may cause significant error
 Rotational temperatures (Kelvin)      0.05747     0.01764     0.01703
 Rotational constants (GHZ):           1.19755     0.36751     0.35492
 Zero-point vibrational energy     646738.8 (Joules/Mol)
                                  154.57428 (Kcal/Mol)
 Warning -- explicit consideration of  21 degrees of freedom as
           vibrations may cause significant error
 Vibrational temperatures:     24.97    54.10    95.90   122.69   204.47
          (Kelvin)            248.73   276.81   329.08   356.08   385.58
                              412.56   539.02   574.06   579.80   638.50
                              658.85   712.56   749.16   758.90   790.24
                              826.17   930.14  1002.54  1051.61  1100.62
                             1149.35  1197.96  1211.70  1230.57  1236.56
                             1333.72  1365.64  1375.40  1398.18  1410.95
                             1465.13  1526.10  1549.96  1570.16  1612.55
                             1643.20  1669.41  1719.57  1736.35  1778.74
                             1825.95  1847.61  1873.20  1876.43  1931.82
                             1959.87  1984.47  2003.19  2038.93  2073.73
                             2079.64  2100.72  2163.92  2165.72  2185.99
                             2205.13  2216.13  2230.39  2371.95  2397.93
                             2495.68  4365.46  4376.79  4386.96  4396.16
                             4434.29  4441.42  4472.41  4483.67  4491.74
                             4561.76  4601.60  4619.81  4638.10  5267.04
                             5399.68

 Zero-point correction=                           0.246330 (Hartree/Particle)
 Thermal correction to Energy=                    0.260084
 Thermal correction to Enthalpy=                  0.261028
 Thermal correction to Gibbs Free Energy=         0.204416
 Sum of electronic and zero-point Energies=           -633.177587
 Sum of electronic and thermal Energies=              -633.163832
 Sum of electronic and thermal Enthalpies=            -633.162888
 Sum of electronic and thermal Free Energies=         -633.219500

                     E (Thermal)             CV                S
                      KCal/Mol        Cal/Mol-Kelvin    Cal/Mol-Kelvin
 Total                  163.205             52.472            119.150
 Electronic               0.000              0.000              0.000
 Translational            0.889              2.981             41.680
 Rotational               0.889              2.981             31.998
 Vibrational            161.428             46.510             45.472
 Vibration     1          0.593              1.986              6.916
 Vibration     2          0.594              1.982              5.382
 Vibration     3          0.598              1.970              4.250
 Vibration     4          0.601              1.959              3.766
 Vibration     5          0.616              1.911              2.775
 Vibration     6          0.626              1.876              2.404
 Vibration     7          0.634              1.850              2.205
 Vibration     8          0.651              1.797              1.889
 Vibration     9          0.661              1.767              1.748
 Vibration    10          0.673              1.732              1.609
 Vibration    11          0.684              1.698              1.493
 Vibration    12          0.746              1.524              1.061
 Vibration    13          0.765              1.472              0.966
 Vibration    14          0.768              1.464              0.952
 Vibration    15          0.803              1.375              0.815
 Vibration    16          0.816              1.343              0.772
 Vibration    17          0.851              1.261              0.670
 Vibration    18          0.876              1.204              0.608
 Vibration    19          0.882              1.189              0.593
 Vibration    20          0.905              1.141              0.546
 Vibration    21          0.931              1.087              0.496

 Optimization completed.
    -- Stationary point found.
 Normal termination of Gaussian 16 at Thu Dec 10 10:54:50 2020.

 ----------------------------------------------------------------------
 # B3LYP/6-311++G(d,p) empiricaldispersion=gd3bj scf=xqc pop=npa geom=c
 heck
 ----------------------------------------------------------------------

 ---------------------------------------
 CID_135748613_JID_4900_Energie_neutraal
 ---------------------------------------
 Structure from the checkpoint file:  "JID_4900.chk"
 Charge =  0 Multiplicity = 1

 SCF Done:  E(RB3LYP) =  -633.615272238     A.U. after   14 cycles
 Normal termination of Gaussian 16 at Thu Dec 10 10:58:31 2020.

 ----------------------------------------------------------------------
 # B3LYP/6-311++G(d,p) empiricaldispersion=gd3bj scf=xqc pop=npa geom=c
 heck
 ----------------------------------------------------------------------

 -------------------------------------
 CID_135748613_JID_4900_Energie_kation
 -------------------------------------
 Structure from the checkpoint file:  "JID_4900.chk"
 Charge =  1 Multiplicity = 2

 SCF Done:  E(UB3LYP) =  -633.307606516     A.U. after   28 cycles
 Normal termination of Gaussian 16 at Thu Dec 10 11:07:31 2020.
 Gaussian 16:  ES64L-G16RevA.03 25-Dec-2016

 ----------------------------------------------------------------------
 # B3LYP/6-311++G(d,p) empiricaldispersion=gd3bj scf=xqc pop=npa geom=c
 heck
 ----------------------------------------------------------------------

 ------------------------------------
 CID_135748613_JID_4900_Energie_anion
 ------------------------------------
 Structure from the checkpoint file:  "JID_4900.chk"
 Charge = -1 Multiplicity = 2

                         Standard orientation:
 ---------------------------------------------------------------------
 Center     Atomic      Atomic             Coordinates (Angstroms)
 Number     Number       Type             X           Y           Z
 ---------------------------------------------------------------------
      1          6           0        2.036052    1.260781    1.984521
      2          6           0        2.894219    1.013759    0.740217
      3          6           0        2.978429   -0.457738    0.310486
      4          6           0        1.605502   -1.049806   -0.056832
      5          7           0        1.158097   -0.374973   -1.265788
      6          6           0       -0.046397    0.010892   -1.432396
      7          6           0       -1.234747   -0.217290   -0.577026
      8          6           0       -1.509669   -1.449418    0.032721
      9          6           0       -2.665178   -1.647072    0.785295
     10          6           0       -3.573190   -0.598632    0.937187
     11          6           0       -3.331266    0.633356    0.332440
     12          6           0       -2.173893    0.822169   -0.425699
     13          8           0       -1.889015    2.010228   -1.037114
     14          8           0        3.865078   -0.613283   -0.788974
     15          1           0        2.357459    0.630123    2.823225
     16          1           0        0.977020    1.050098    1.796729
     17          1           0        2.109249    2.304433    2.309194
     18          1           0        2.504181    1.597192   -0.103694
     19          1           0        3.920236    1.358821    0.913076
     20          1           0        3.399308   -1.049236    1.133905
     21          1           0        1.749463   -2.113048   -0.288753
     22          1           0        0.905266   -0.974292    0.784198
     23          1           0       -0.239512    0.599842   -2.332585
     24          1           0       -0.816229   -2.270397   -0.114299
     25          1           0       -2.858804   -2.612064    1.242502
     26          1           0       -4.476642   -0.736790    1.523902
     27          1           0       -4.038975    1.451944    0.448117
     28          1           0       -2.623680    2.625762   -0.889747
     29          1           0        3.337300   -0.339143   -1.562026
 ---------------------------------------------------------------------

 SCF Done:  E(UB3LYP) =  -633.616198439     A.U. after   30 cycles

 The electronic state is 2-A.
 Alpha  occ. eigenvalues --  -19.02787 -18.99920 -14.15743 -10.10570 -10.10354
 Alpha  occ. eigenvalues --  -10.06766 -10.06470 -10.05788 -10.05470 -10.04290
 Alpha  occ. eigenvalues --  -10.04144 -10.04132 -10.04015 -10.03958  -0.93893
 Alpha  occ. eigenvalues --   -0.90618  -0.78181  -0.72217  -0.67367  -0.63252
 Alpha  occ. eigenvalues --   -0.61350  -0.60001  -0.54213  -0.50659  -0.49194
 Alpha  occ. eigenvalues --   -0.47284  -0.42769  -0.41187  -0.38203  -0.37227
 Alpha  occ. eigenvalues --   -0.36479  -0.34400  -0.33857  -0.32172  -0.31258
 Alpha  occ. eigenvalues --   -0.29822  -0.29637  -0.28641  -0.27969  -0.27166
 Alpha  occ. eigenvalues --   -0.26664  -0.24496  -0.23830  -0.23523  -0.22383
 Alpha  occ. eigenvalues --   -0.21653  -0.20362  -0.18127  -0.15833  -0.12775
 Alpha  occ. eigenvalues --   -0.11589  -0.10212   0.04697
 Alpha virt. eigenvalues --    0.07047   0.08090   0.08602   0.09515   0.10113
 Alpha virt. eigenvalues --    0.10322   0.11335   0.11703   0.11867   0.12683
 Alpha virt. eigenvalues --    0.13227   0.13652   0.13963   0.14793   0.15097

  Beta  occ. eigenvalues --  -19.02726 -18.99920 -14.15405 -10.10521 -10.10345
  Beta  occ. eigenvalues --  -10.06782 -10.06339 -10.05784 -10.05471 -10.04356
  Beta  occ. eigenvalues --  -10.04087 -10.03976 -10.03856 -10.03766  -0.93768
  Beta  occ. eigenvalues --   -0.90613  -0.77642  -0.71939  -0.67332  -0.62881
  Beta  occ. eigenvalues --   -0.61116  -0.59889  -0.54115  -0.50328  -0.48984
  Beta  occ. eigenvalues --   -0.47147  -0.42545  -0.40955  -0.38113  -0.37096
  Beta  occ. eigenvalues --   -0.36371  -0.34329  -0.33692  -0.32031  -0.31141
  Beta  occ. eigenvalues --   -0.29655  -0.29512  -0.28390  -0.27785  -0.27085
  Beta  occ. eigenvalues --   -0.26517  -0.24434  -0.23770  -0.23428  -0.22221
  Beta  occ. eigenvalues --   -0.21105  -0.20294  -0.17055  -0.15645  -0.11816
  Beta  occ. eigenvalues --   -0.11117  -0.09564
  Beta virt. eigenvalues --    0.07696   0.08302   0.08615   0.09490   0.09752
  Beta virt. eigenvalues --    0.10167   0.10438   0.11424   0.11765   0.12089
  Beta virt. eigenvalues --    0.12733   0.13215   0.13682   0.14102   0.14696

 Mulliken charges and spin densities:
               1          2
     1  C   -0.613573  -0.003752
     2  C    0.051131  -0.017461
     3  C   -0.598739  -0.028075
     4  C   -0.076784  -0.018705
     5  N   -0.066238   0.128017
     6  C   -0.124104  -0.338214
     7  C    0.934878  -0.418577
     8  C   -0.370426   0.270747
     9  C   -0.608404   0.197224
    10  C    0.072656  -0.137450
    11  C   -0.374250   0.334220
    12  C    0.338629  -0.458477
    13  O   -0.220530   0.024250
    14  O   -0.208100  -0.001388
    15  H    0.114616   0.000668
    16  H    0.173026  -0.023368
    17  H    0.078230   0.041213
    18  H    0.142915   0.010336
    19  H    0.144274   0.000827
    20  H    0.127471   0.036235
    21  H    0.164053   0.030070
    22  H    0.089799  -0.004586
    23  H    0.147403   0.030307
    24  H    0.151740  -0.008213
    25  H    0.110440   0.019165
    26  H    0.139402  -0.039992
    27  H   -0.666544   0.792279
    28  H   -0.310084   0.583412
    29  H    0.257112  -0.000711
 Sum of Mulliken charges =  -1.00000   1.00000

 Dipole moment (field-independent basis, Debye):
    X=              2.9772    Y=             -2.7098    Z=              2.7130  Tot=              4.8545
 Quadrupole moment (field-independent basis, Debye-Ang):
   XX=           -145.5598   YY=           -110.7592   ZZ=           -102.1624
   XY=             14.4796   XZ=              2.6411   YZ=              1.3198

 Summary of Natural Population Analysis:

                                       Natural Population
                Natural  -----------------------------------------------
    Atom  No    Charge         Core      Valence    Rydberg      Total
 -----------------------------------------------------------------------
      C    1   -0.28870      0.99967     2.28502    0.00401     3.28870
      C    2   -0.20550      0.99962     2.19637    0.00951     3.20550
      C    3    0.06602      0.99956     1.91894    0.01548     2.93398
      C    4   -0.12073      0.99960     2.11031    0.01082     3.12073
      N    5   -0.22290      0.99966     2.70956    0.01368     3.72290
      C    6    0.09072      0.99959     1.89282    0.01686     2.90928
      C    7   -0.07163      0.99945     2.06219    0.00999     3.07163
      C    8   -0.05814      0.99954     2.04941    0.00919     3.05814
      C    9   -0.14007      0.99957     2.13193    0.00858     3.14007
      C   10   -0.05058      0.99958     2.04040    0.01060     3.05058
      C   11   -0.14466      0.99952     2.13459    0.01055     3.14466
      C   12    0.18067      0.99935     1.80643    0.01355     2.81933
      O   13   -0.34066      0.99987     3.33376    0.00703     4.34066
      O   14   -0.38293      0.99990     3.37675    0.00629     4.38293
      H   15    0.09039      0.00000     0.40872    0.00089     0.40961
      H   16    0.10509      0.00000     0.39383    0.00108     0.39491
      H   17    0.09592      0.00000     0.40314    0.00094     0.40408
      H   18    0.10399      0.00000     0.39439    0.00162     0.39601
      H   19    0.09311      0.00000     0.40587    0.00102     0.40689
      H   20    0.07645      0.00000     0.42206    0.00149     0.42355
      H   21    0.09560      0.00000     0.40311    0.00129     0.40440
      H   22    0.09275      0.00000     0.40580    0.00145     0.40725
      H   23    0.08463      0.00000     0.41374    0.00163     0.41537
      H   24    0.09490      0.00000     0.40400    0.00110     0.40510
      H   25    0.09332      0.00000     0.40585    0.00083     0.40668
      H   26    0.09065      0.00000     0.40860    0.00075     0.40935
      H   27    0.09680      0.00000     0.40182    0.00138     0.40320
      H   28    0.23673      0.00000     0.25205    0.01121     0.26327
      H   29    0.23876      0.00000     0.25864    0.00260     0.26124
 =======================================================================
   * Total *    0.00000     13.99449    37.83009    0.17543    52.00000

 Normal termination of Gaussian 16 at Thu Dec 10 11:16:04 2020.
