 Gaussian 16, Revision A.03,

 -----------------------------------------------------------
 # opt freq B3LYP/6-31G(d) empiricaldispersion=gd3bj scf=xqc
 -----------------------------------------------------------

 -------------------------------
 CID_144110778_JID_8031_neutraal
 -------------------------------
 Symbolic Z-matrix:
 Charge =  0 Multiplicity = 1

 SCF Done:  E(RB3LYP) =  -840.278519421     A.U. after   15 cycles
 SCF Done:  E(RB3LYP) =  -840.284017006     A.U. after   12 cycles
 SCF Done:  E(RB3LYP) =  -840.284824531     A.U. after   12 cycles
 SCF Done:  E(RB3LYP) =  -840.285016812     A.U. after   12 cycles
 SCF Done:  E(RB3LYP) =  -840.285147347     A.U. after   12 cycles
 SCF Done:  E(RB3LYP) =  -840.285229974     A.U. after   12 cycles
 SCF Done:  E(RB3LYP) =  -840.285329614     A.U. after   12 cycles
 SCF Done:  E(RB3LYP) =  -840.285352303     A.U. after   10 cycles
 SCF Done:  E(RB3LYP) =  -840.285381086     A.U. after   10 cycles
 SCF Done:  E(RB3LYP) =  -840.285406827     A.U. after    9 cycles
 SCF Done:  E(RB3LYP) =  -840.286134513     A.U. after    7 cycles
 SCF Done:  E(RB3LYP) =  -840.286134710     A.U. after    7 cycles
 SCF Done:  E(RB3LYP) =  -840.286134885     A.U. after    9 cycles
 SCF Done:  E(RB3LYP) =  -840.286134950     A.U. after    7 cycles
 SCF Done:  E(RB3LYP) =  -840.286134960     A.U. after    6 cycles
 Optimization completed.
    -- Stationary point found.
 Normal termination of Gaussian 16 at Fri Dec 11 19:04:04 2020.

 --------------------------------------------------------------------
 #N Geom=AllCheck Guess=TCheck SCRF=Check GenChk RB3LYP/6-31G(d) Freq
 --------------------------------------------------------------------

 Structure from the checkpoint file:  "JID_8031.chk"
 -------------------------------
 CID_144110778_JID_8031_neutraal
 -------------------------------
 Charge =  0 Multiplicity = 1

 SCF Done:  E(RB3LYP) =  -840.286134960     A.U. after    1 cycles

  Exact polarizability: 198.675  -0.330 121.055   1.080   3.757 145.817
 Approx polarizability: 267.589  -4.731 198.647   9.855  12.141 250.715

                      1                      2                      3
                      A                      A                      A
 Frequencies --     14.3877                20.3044                31.1787
 Red. masses --      3.2819                 3.9304                 6.3250
 Frc consts  --      0.0004                 0.0010                 0.0036
 IR Inten    --      0.2233                 0.4507                 0.3726

                      4                      5                      6
                      A                      A                      A
 Frequencies --     33.3083                43.5552                60.5352
 Red. masses --      1.9428                 1.9711                 2.5811
 Frc consts  --      0.0013                 0.0022                 0.0056
 IR Inten    --      0.8464                 2.1554                 2.0914

                      7                      8                      9
                      A                      A                      A
 Frequencies --     77.8872                96.2620               118.4087
 Red. masses --      2.8563                 3.1355                 4.0459
 Frc consts  --      0.0102                 0.0171                 0.0334
 IR Inten    --      1.8130                 0.3187                 1.7906

                     10                     11                     12
                      A                      A                      A
 Frequencies --    121.3596               144.2132               160.2545
 Red. masses --      1.2007                 1.1018                 5.8333
 Frc consts  --      0.0104                 0.0135                 0.0883
 IR Inten    --      0.1186                 0.4242                 1.4089

                     13                     14                     15
                      A                      A                      A
 Frequencies --    163.8558               191.7195               247.7986
 Red. masses --      5.8534                 5.1311                 1.5480
 Frc consts  --      0.0926                 0.1111                 0.0560
 IR Inten    --      3.9081                 1.1911                 0.5124

                     16                     17                     18
                      A                      A                      A
 Frequencies --    274.0937               289.6365               342.8882
 Red. masses --      2.7928                 3.3799                 4.9923
 Frc consts  --      0.1236                 0.1671                 0.3458
 IR Inten    --      3.5721                 0.8036                 1.2930

                     19                     20                     21
                      A                      A                      A
 Frequencies --    385.6362               406.2084               407.5580
 Red. masses --      2.8542                 4.3108                 3.0521
 Frc consts  --      0.2501                 0.4191                 0.2987
 IR Inten    --      4.2952                21.5025                 7.9233

                     22                     23                     24
                      A                      A                      A
 Frequencies --    428.0953               449.9772               505.2622
 Red. masses --      3.1654                 5.0773                 4.2993
 Frc consts  --      0.3418                 0.6057                 0.6467
 IR Inten    --      0.8694                11.1140                 6.5986

                     25                     26                     27
                      A                      A                      A
 Frequencies --    533.3835               544.8315               585.1199
 Red. masses --      3.7698                 6.5891                 3.5277
 Frc consts  --      0.6319                 1.1524                 0.7116
 IR Inten    --     22.0759                 6.6300                28.4536

                     28                     29                     30
                      A                      A                      A
 Frequencies --    620.8087               654.5420               686.3494
 Red. masses --      5.3010                 6.5757                 1.2126
 Frc consts  --      1.2037                 1.6598                 0.3366
 IR Inten    --      2.9517                 1.7426                48.5416

                     31                     32                     33
                      A                      A                      A
 Frequencies --    718.3765               721.5631               751.1116
 Red. masses --      3.3630                 2.6708                 6.0297
 Frc consts  --      1.0225                 0.8193                 2.0043
 IR Inten    --      1.2674                 0.0843                46.3027

                     34                     35                     36
                      A                      A                      A
 Frequencies --    768.1050               781.3759               808.0211
 Red. masses --      6.0614                 5.7280                 3.2869
 Frc consts  --      2.1070                 2.0605                 1.2644
 IR Inten    --      8.1181                23.2939                42.6083

                     37                     38                     39
                      A                      A                      A
 Frequencies --    812.3838               834.6788               852.6868
 Red. masses --      2.3052                 1.2455                 3.0593
 Frc consts  --      0.8964                 0.5112                 1.3105
 IR Inten    --     38.6539                 0.3456                13.6975

                     40                     41                     42
                      A                      A                      A
 Frequencies --    864.4752               947.9161               957.3487
 Red. masses --      2.6808                 1.6663                 1.5025
 Frc consts  --      1.1804                 0.8822                 0.8114
 IR Inten    --     26.3927                 5.9407                 1.6320

                     43                     44                     45
                      A                      A                      A
 Frequencies --    963.9880               976.0907               987.0998
 Red. masses --      1.2853                 1.4097                 2.4429
 Frc consts  --      0.7037                 0.7913                 1.4024
 IR Inten    --      2.0188                 3.3395                 0.3090

                     46                     47                     48
                      A                      A                      A
 Frequencies --   1036.3815              1079.3064              1104.4580
 Red. masses --      2.7901                 6.3213                 1.9035
 Frc consts  --      1.7657                 4.3386                 1.3681
 IR Inten    --      0.7937                51.7589                 6.3781

                     49                     50                     51
                      A                      A                      A
 Frequencies --   1151.4363              1187.3913              1191.0687
 Red. masses --      1.2954                 1.2702                 5.6627
 Frc consts  --      1.0119                 1.0552                 4.7331
 IR Inten    --     10.9592                 0.4490                12.2975

                     52                     53                     54
                      A                      A                      A
 Frequencies --   1214.1940              1219.8968              1225.8776
 Red. masses --      1.1839                 1.3863                 1.7506
 Frc consts  --      1.0284                 1.2155                 1.5500
 IR Inten    --     51.9675                20.3718                11.8691

                     55                     56                     57
                      A                      A                      A
 Frequencies --   1246.3848              1253.8853              1306.9043
 Red. masses --      2.7560                 1.4508                 4.4471
 Frc consts  --      2.5225                 1.3439                 4.4752
 IR Inten    --     19.2365                81.7222               265.6503

                     58                     59                     60
                      A                      A                      A
 Frequencies --   1350.2774              1354.1222              1368.0641
 Red. masses --      1.4841                 2.8445                 1.1795
 Frc consts  --      1.5943                 3.0731                 1.3006
 IR Inten    --     51.3561                94.5287                13.4919

                     61                     62                     63
                      A                      A                      A
 Frequencies --   1373.7950              1380.3622              1383.5443
 Red. masses --      1.1786                 1.1786                 2.8650
 Frc consts  --      1.3106                 1.3231                 3.2311
 IR Inten    --     17.1432                19.9213                76.2921

                     64                     65                     66
                      A                      A                      A
 Frequencies --   1394.0119              1410.2048              1433.7944
 Red. masses --      1.5740                 1.7614                 1.8401
 Frc consts  --      1.8021                 2.0638                 2.2287
 IR Inten    --     27.0107                21.1851                34.3892

                     67                     68                     69
                      A                      A                      A
 Frequencies --   1475.7596              1487.4206              1500.1922
 Red. masses --      2.8818                 3.0916                 1.1997
 Frc consts  --      3.6978                 4.0300                 1.5907
 IR Inten    --     11.5178                92.9174                14.3057

                     70                     71                     72
                      A                      A                      A
 Frequencies --   1509.9456              1522.6699              1535.0644
 Red. masses --      1.1451                 1.0473                 1.0614
 Frc consts  --      1.5383                 1.4307                 1.4736
 IR Inten    --     28.6454                 5.4797                35.3447

                     73                     74                     75
                      A                      A                      A
 Frequencies --   1570.4815              1590.9920              1594.6075
 Red. masses --      2.4384                 1.0105                 1.0117
 Frc consts  --      3.5434                 1.5070                 1.5157
 IR Inten    --    104.7912                 2.3439                 0.6130

                     76                     77                     78
                      A                      A                      A
 Frequencies --   1638.8370              1676.8773              1690.8675
 Red. masses --      6.6030                 5.6786                 5.8939
 Frc consts  --     10.4488                 9.4079                 9.9283
 IR Inten    --     10.6841                86.9818                98.6943

                     79                     80                     81
                      A                      A                      A
 Frequencies --   1801.9366              1811.9833              3032.4742
 Red. masses --      8.3027                10.6843                 1.0343
 Frc consts  --     15.8835                20.6682                 5.6038
 IR Inten    --    713.9720               410.0777                47.9973

                     82                     83                     84
                      A                      A                      A
 Frequencies --   3054.3436              3089.6191              3094.2883
 Red. masses --      1.0081                 1.0665                 1.1068
 Frc consts  --      5.5409                 5.9984                 6.2438
 IR Inten    --      0.5325                24.4135                40.6029

                     85                     86                     87
                      A                      A                      A
 Frequencies --   3158.0346              3162.5371              3163.7371
 Red. masses --      1.1015                 1.0992                 1.1004
 Frc consts  --      6.4722                 6.4774                 6.4896
 IR Inten    --     28.2963                 1.0211                25.9657

                     88                     89                     90
                      A                      A                      A
 Frequencies --   3166.2302              3171.3416              3174.8799
 Red. masses --      1.1019                 1.1016                 1.0891
 Frc consts  --      6.5083                 6.5275                 6.4682
 IR Inten    --     26.4449                16.4905                17.0463

                     91                     92                     93
                      A                      A                      A
 Frequencies --   3205.9009              3218.7695              3224.5187
 Red. masses --      1.0899                 1.0928                 1.0912
 Frc consts  --      6.5999                 6.6708                 6.6847
 IR Inten    --      1.0319                 6.1915                 3.7628

                     94                     95                     96
                      A                      A                      A
 Frequencies --   3233.0020              3267.3269              3606.7469
 Red. masses --      1.0918                 1.0954                 1.0773
 Frc consts  --      6.7234                 6.8900                 8.2567
 IR Inten    --      8.7298                 0.1350                60.7246

 - Thermochemistry -
 -------------------
 Temperature   298.150 Kelvin.  Pressure   1.00000 Atm.
 Atom     1 has atomic number  6 and mass  12.00000

 Molecular mass:   248.11609 amu.
 Principal axes and moments of inertia in atomic units:
                           1         2         3
     Eigenvalues --  2123.233939792.32516**********
           X            0.99993  -0.00600  -0.01013
           Y            0.00510   0.99623  -0.08657
           Z            0.01061   0.08651   0.99619
 This molecule is an asymmetric top.
 Rotational symmetry number  1.
 Warning -- assumption of classical behavior for rotation
           may cause significant error
 Rotational temperatures (Kelvin)      0.04079     0.00885     0.00860
 Rotational constants (GHZ):           0.85000     0.18430     0.17928
 Zero-point vibrational energy     726620.1 (Joules/Mol)
                                  173.66636 (Kcal/Mol)
 Warning -- explicit consideration of  27 degrees of freedom as
           vibrations may cause significant error
 Vibrational temperatures:     20.70    29.21    44.86    47.92    62.67
          (Kelvin)             87.10   112.06   138.50   170.36   174.61
                              207.49   230.57   235.75   275.84   356.53
                              394.36   416.72   493.34   554.84   584.44
                              586.39   615.93   647.42   726.96   767.42
                              783.89   841.86   893.21   941.74   987.50
                             1033.58  1038.17  1080.68  1105.13  1124.23
                             1162.56  1168.84  1200.92  1226.83  1243.79
                             1363.84  1377.41  1386.96  1404.38  1420.22
                             1491.12  1552.88  1589.07  1656.66  1708.39
                             1713.68  1746.95  1755.16  1763.76  1793.27
                             1804.06  1880.34  1942.75  1948.28  1968.34
                             1976.58  1986.03  1990.61  2005.67  2028.97
                             2062.91  2123.29  2140.07  2158.44  2172.47
                             2190.78  2208.62  2259.57  2289.08  2294.28
                             2357.92  2412.65  2432.78  2592.58  2607.04
                             4363.05  4394.52  4445.27  4451.99  4543.71
                             4550.19  4551.91  4555.50  4562.85  4567.94
                             4612.58  4631.09  4639.36  4651.57  4700.95
                             5189.30

 Zero-point correction=                           0.276755 (Hartree/Particle)
 Thermal correction to Energy=                    0.295971
 Thermal correction to Enthalpy=                  0.296915
 Thermal correction to Gibbs Free Energy=         0.224655
 Sum of electronic and zero-point Energies=           -840.009380
 Sum of electronic and thermal Energies=              -839.990164
 Sum of electronic and thermal Enthalpies=            -839.989220
 Sum of electronic and thermal Free Energies=         -840.061480

                     E (Thermal)             CV                S
                      KCal/Mol        Cal/Mol-Kelvin    Cal/Mol-Kelvin
 Total                  185.725             67.721            152.084
 Electronic               0.000              0.000              0.000
 Translational            0.889              2.981             42.427
 Rotational               0.889              2.981             33.703
 Vibrational            183.947             61.759             75.954
 Vibration     1          0.593              1.986              7.288
 Vibration     2          0.593              1.986              6.604
 Vibration     3          0.594              1.983              5.753
 Vibration     4          0.594              1.983              5.622
 Vibration     5          0.595              1.980              5.090
 Vibration     6          0.597              1.973              4.440
 Vibration     7          0.599              1.964              3.943
 Vibration     8          0.603              1.952              3.529
 Vibration     9          0.609              1.934              3.126
 Vibration    10          0.609              1.931              3.079
 Vibration    11          0.616              1.909              2.747
 Vibration    12          0.622              1.891              2.547
 Vibration    13          0.623              1.887              2.505
 Vibration    14          0.634              1.851              2.211
 Vibration    15          0.661              1.766              1.746
 Vibration    16          0.676              1.721              1.570
 Vibration    17          0.686              1.693              1.476
 Vibration    18          0.722              1.590              1.199
 Vibration    19          0.754              1.501              1.017
 Vibration    20          0.771              1.457              0.940
 Vibration    21          0.772              1.454              0.935
 Vibration    22          0.790              1.409              0.865
 Vibration    23          0.809              1.361              0.796
 Vibration    24          0.861              1.238              0.645
 Vibration    25          0.888              1.176              0.580
 Vibration    26          0.900              1.151              0.555
 Vibration    27          0.942              1.064              0.476

                           ! Non-Optimized Parameters !
 Normal termination of Gaussian 16 at Fri Dec 11 19:16:31 2020.

 ----------------------------------------------------------------------
 # B3LYP/6-311++G(d,p) empiricaldispersion=gd3bj scf=xqc pop=npa geom=c
 heck
 ----------------------------------------------------------------------

 ---------------------------------------
 CID_144110778_JID_8031_Energie_neutraal
 ---------------------------------------
 Structure from the checkpoint file:  "JID_8031.chk"
 Charge =  0 Multiplicity = 1

 SCF Done:  E(RB3LYP) =  -840.525978348     A.U. after   16 cycles
 Normal termination of Gaussian 16 at Fri Dec 11 19:21:44 2020.

 ----------------------------------------------------------------------
 # B3LYP/6-311++G(d,p) empiricaldispersion=gd3bj scf=xqc pop=npa geom=c
 heck
 ----------------------------------------------------------------------

 -------------------------------------
 CID_144110778_JID_8031_Energie_kation
 -------------------------------------
 Structure from the checkpoint file:  "JID_8031.chk"
 Charge =  1 Multiplicity = 2

 SCF Done:  E(UB3LYP) =  -840.228073457     A.U. after   25 cycles
 Normal termination of Gaussian 16 at Fri Dec 11 19:32:48 2020.
 Gaussian 16:  ES64L-G16RevA.03 25-Dec-2016

 ----------------------------------------------------------------------
 # B3LYP/6-311++G(d,p) empiricaldispersion=gd3bj scf=xqc pop=npa geom=c
 heck
 ----------------------------------------------------------------------

 ------------------------------------
 CID_144110778_JID_8031_Energie_anion
 ------------------------------------
 Structure from the checkpoint file:  "JID_8031.chk"
 Charge = -1 Multiplicity = 2

                         Standard orientation:
 ---------------------------------------------------------------------
 Center     Atomic      Atomic             Coordinates (Angstroms)
 Number     Number       Type             X           Y           Z
 ---------------------------------------------------------------------
      1          6           0       -4.812220    1.950988    0.089364
      2          6           0       -4.487777   -1.845722    1.211286
      3          8           0       -3.995791   -1.529644   -0.082478
      4          6           0       -2.847582   -0.800120   -0.168423
      5          6           0       -2.415010   -0.498104   -1.465745
      6          6           0       -1.266375    0.260171   -1.653543
      7          6           0       -0.527253    0.734132   -0.562406
      8          6           0       -0.967489    0.424539    0.727693
      9          6           0       -2.116161   -0.338148    0.933031
     10          6           0        0.738197    1.529577   -0.767310
     11          7           0        1.955444    0.747627   -0.471199
     12          6           0        2.430245   -0.169323   -1.378971
     13          6           0        3.496337   -0.965249   -1.145326
     14          6           0        4.191371   -0.887899    0.129781
     15          8           0        5.162428   -1.540927    0.474980
     16          7           0        3.619143    0.059895    1.005581
     17          6           0        2.516148    0.867168    0.802427
     18          8           0        2.073969    1.619048    1.658647
     19          1           0       -3.902946    2.151924   -0.481963
     20          1           0       -5.187075    0.959728   -0.176853
     21          1           0       -5.569776    2.706342   -0.136752
     22          1           0       -4.575924    1.978326    1.156663
     23          1           0       -5.398270   -2.424943    1.050902
     24          1           0       -4.728053   -0.938279    1.779381
     25          1           0       -3.767175   -2.449152    1.777899
     26          1           0       -2.999423   -0.859420   -2.305371
     27          1           0       -0.945028    0.496038   -2.665801
     28          1           0       -0.401382    0.785336    1.581459
     29          1           0       -2.436358   -0.554190    1.945055
     30          1           0        0.816856    1.875018   -1.802274
     31          1           0        0.774984    2.397724   -0.109108
     32          1           0        1.877036   -0.205953   -2.311181
     33          1           0        3.853548   -1.669445   -1.883918
     34          1           0        4.047444    0.138406    1.920848
 ---------------------------------------------------------------------

 SCF Done:  E(UB3LYP) =  -840.527831433     A.U. after   33 cycles
 SCF Done:  E(UB3LYP) =  -840.527831433     a.u. after    1 cycles

 The electronic state is 2-A.
 Alpha  occ. eigenvalues --  -19.06934 -18.99385 -18.96853 -14.26022 -14.24454
 Alpha  occ. eigenvalues --  -10.20685 -10.15324 -10.14543 -10.13958 -10.11653
 Alpha  occ. eigenvalues --  -10.09861 -10.08553 -10.08493 -10.08298 -10.08222
 Alpha  occ. eigenvalues --  -10.08027 -10.06370 -10.05050  -0.98550  -0.96567
 Alpha  occ. eigenvalues --   -0.92143  -0.86488  -0.81364  -0.76704  -0.69208
 Alpha  occ. eigenvalues --   -0.66729  -0.66171  -0.62987  -0.60691  -0.58821
 Alpha  occ. eigenvalues --   -0.56576  -0.52881  -0.52187  -0.49491  -0.45458
 Alpha  occ. eigenvalues --   -0.44869  -0.42815  -0.40504  -0.39263  -0.38850
 Alpha  occ. eigenvalues --   -0.38484  -0.36422  -0.35242  -0.34663  -0.34005
 Alpha  occ. eigenvalues --   -0.33472  -0.33190  -0.31110  -0.30975  -0.30650
 Alpha  occ. eigenvalues --   -0.30378  -0.29821  -0.29506  -0.28918  -0.28581
 Alpha  occ. eigenvalues --   -0.27763  -0.27181  -0.24278  -0.23629  -0.23049
 Alpha  occ. eigenvalues --   -0.18859  -0.17567  -0.16899  -0.14768  -0.13684
 Alpha  occ. eigenvalues --   -0.12498   0.03714
 Alpha virt. eigenvalues --    0.04995   0.06564   0.07132   0.07236   0.07729
 Alpha virt. eigenvalues --    0.08384   0.08940   0.09321   0.09609   0.09913
 Alpha virt. eigenvalues --    0.10668   0.11334   0.11502   0.11770   0.12098

  Beta  occ. eigenvalues --  -19.06928 -18.99381 -18.96679 -14.25996 -14.24389
  Beta  occ. eigenvalues --  -10.20681 -10.15181 -10.14548 -10.13926 -10.11636
  Beta  occ. eigenvalues --  -10.09489 -10.08535 -10.08483 -10.08270 -10.08208
  Beta  occ. eigenvalues --  -10.08002 -10.06354 -10.05007  -0.98535  -0.96505
  Beta  occ. eigenvalues --   -0.91856  -0.86320  -0.81199  -0.76653  -0.69058
  Beta  occ. eigenvalues --   -0.66498  -0.66047  -0.62902  -0.60664  -0.58757
  Beta  occ. eigenvalues --   -0.56116  -0.52816  -0.52072  -0.49442  -0.45390
  Beta  occ. eigenvalues --   -0.44805  -0.42561  -0.40434  -0.39160  -0.38820
  Beta  occ. eigenvalues --   -0.38289  -0.36310  -0.35073  -0.34562  -0.33954
  Beta  occ. eigenvalues --   -0.33372  -0.33051  -0.31078  -0.30859  -0.30630
  Beta  occ. eigenvalues --   -0.30360  -0.29633  -0.29333  -0.28774  -0.28361
  Beta  occ. eigenvalues --   -0.27360  -0.27111  -0.24240  -0.23487  -0.22261
  Beta  occ. eigenvalues --   -0.18806  -0.17045  -0.16736  -0.14597  -0.13513
  Beta  occ. eigenvalues --   -0.11740
  Beta virt. eigenvalues --    0.05609   0.06855   0.07131   0.07406   0.07961
  Beta virt. eigenvalues --    0.08352   0.08855   0.09300   0.09455   0.09630
  Beta virt. eigenvalues --    0.10035   0.10681   0.11523   0.11707   0.11871

 Mulliken charges and spin densities:
               1          2
     1  C   -0.338907  -0.243023
     2  C    0.465559  -0.780422
     3  O   -0.140159   0.019825
     4  C   -0.780938   0.182968
     5  C   -0.288851   0.102354
     6  C   -0.098152  -0.192947
     7  C    1.190431   0.007946
     8  C   -0.324718  -0.037827
     9  C    0.387859  -0.288085
    10  C   -0.240650  -0.600249
    11  N    0.055379  -0.000407
    12  C    0.005817   0.104247
    13  C   -0.273035   0.234347
    14  C   -0.118551   0.064186
    15  O   -0.413688   0.056784
    16  N   -0.360076   0.020480
    17  C    0.203262   0.005055
    18  O   -0.359418  -0.000167
    19  H    0.141978   0.012025
    20  H    0.056441   0.090315
    21  H    0.004021   0.114474
    22  H    0.047148   0.082850
    23  H   -0.433500   0.602501
    24  H   -0.071660   0.228088
    25  H    0.036471   0.111642
    26  H    0.082876   0.100674
    27  H   -0.232947   0.398824
    28  H    0.158186   0.048876
    29  H    0.082598   0.109237
    30  H   -0.251665   0.456353
    31  H    0.271350  -0.039028
    32  H    0.068608   0.003983
    33  H    0.142675   0.026181
    34  H    0.326258  -0.002061
 Sum of Mulliken charges =  -1.00000   1.00000

 Dipole moment (field-independent basis, Debye):
    X=             -2.6961    Y=              1.4173    Z=             -0.2806  Tot=              3.0588
 Quadrupole moment (field-independent basis, Debye-Ang):
   XX=           -215.5110   YY=           -140.0204   ZZ=           -131.6891
   XY=              5.9871   XZ=              1.3161   YZ=              2.7418

 Summary of Natural Population Analysis:

                                       Natural Population
                Natural  -----------------------------------------------
    Atom  No    Charge         Core      Valence    Rydberg      Total
 -----------------------------------------------------------------------
      C    1   -0.40398      0.99971     2.40239    0.00189     3.40398
      C    2   -0.10217      0.99960     2.09337    0.00919     3.10217
      O    3   -0.27456      0.99985     3.26479    0.00991     4.27456
      C    4    0.15866      0.99939     1.82873    0.01323     2.84134
      C    5   -0.11641      0.99952     2.10730    0.00959     3.11641
      C    6   -0.08851      0.99952     2.07948    0.00951     3.08851
      C    7   -0.04104      0.99950     2.03231    0.00923     3.04104
      C    8   -0.08435      0.99952     2.07689    0.00793     3.08435
      C    9   -0.13848      0.99952     2.13071    0.00825     3.13848
      C   10   -0.08917      0.99957     2.07751    0.01208     3.08917
      N   11   -0.23721      0.99962     2.72832    0.00927     3.73721
      C   12    0.10478      0.99956     1.88360    0.01206     2.89522
      C   13   -0.18198      0.99953     2.17325    0.00920     3.18198
      C   14    0.33941      0.99965     1.63822    0.02271     2.66059
      O   15   -0.30963      0.99988     3.30377    0.00599     4.30963
      N   16   -0.31433      0.99965     2.80729    0.00739     3.81433
      C   17    0.41128      0.99968     1.56624    0.02279     2.58872
      O   18   -0.33919      0.99988     3.33439    0.00492     4.33919
      H   19    0.10599      0.00000     0.39332    0.00069     0.39401
      H   20    0.10253      0.00000     0.39634    0.00113     0.39747
      H   21    0.09525      0.00000     0.40412    0.00063     0.40475
      H   22    0.09965      0.00000     0.39943    0.00092     0.40035
      H   23    0.09469      0.00000     0.40415    0.00116     0.40531
      H   24    0.08598      0.00000     0.41250    0.00153     0.41402
      H   25    0.08431      0.00000     0.41451    0.00117     0.41569
      H   26    0.10405      0.00000     0.39445    0.00150     0.39595
      H   27    0.10104      0.00000     0.39781    0.00115     0.39896
      H   28    0.11077      0.00000     0.38750    0.00173     0.38923
      H   29    0.10414      0.00000     0.39481    0.00104     0.39586
      H   30    0.10128      0.00000     0.39666    0.00206     0.39872
      H   31    0.11630      0.00000     0.38254    0.00117     0.38370
      H   32    0.09419      0.00000     0.40468    0.00112     0.40581
      H   33    0.10676      0.00000     0.39216    0.00108     0.39324
      H   34    0.19995      0.00000     0.29780    0.00225     0.30005
 =======================================================================
   * Total *    0.00000     17.99315    47.80136    0.20549    66.00000

 Normal termination of Gaussian 16 at Fri Dec 11 19:47:54 2020.
