 Gaussian 16, Revision A.03,

 -----------------------------------------------------------
 # opt freq B3LYP/6-31G(d) empiricaldispersion=gd3bj scf=xqc
 -----------------------------------------------------------

 -------------------------------
 CID_149498842_JID_5555_neutraal
 -------------------------------
 Symbolic Z-matrix:
 Charge =  0 Multiplicity = 1

 SCF Done:  E(RB3LYP) =  -586.569257449     A.U. after   17 cycles
 SCF Done:  E(RB3LYP) =  -586.643794153     A.U. after   16 cycles
 SCF Done:  E(RB3LYP) =  -586.716287191     A.U. after   24 cycles
 SCF Done:  E(RB3LYP) =  -586.832741932     A.U. after   21 cycles
 SCF Done:  E(RB3LYP) =  -586.964274622     A.U. after   16 cycles
 SCF Done:  E(RB3LYP) =  -586.998133672     A.U. after   15 cycles
 SCF Done:  E(RB3LYP) =  -587.024624590     A.U. after   15 cycles
 SCF Done:  E(RB3LYP) =  -587.040338322     A.U. after   16 cycles
 SCF Done:  E(RB3LYP) =  -587.050370194     A.U. after   15 cycles
 SCF Done:  E(RB3LYP) =  -587.061073464     A.U. after   15 cycles
 SCF Done:  E(RB3LYP) =  -587.290676455     A.U. after    8 cycles
 SCF Done:  E(RB3LYP) =  -587.290677360     A.U. after    9 cycles
 SCF Done:  E(RB3LYP) =  -587.290678218     A.U. after    9 cycles
 SCF Done:  E(RB3LYP) =  -587.290679196     A.U. after    8 cycles
 SCF Done:  E(RB3LYP) =  -587.290679761     A.U. after    8 cycles
 Optimization completed.
    -- Stationary point found.
 Normal termination of Gaussian 16 at Thu Dec 10 17:56:07 2020.

 --------------------------------------------------------------------
 #N Geom=AllCheck Guess=TCheck SCRF=Check GenChk RB3LYP/6-31G(d) Freq
 --------------------------------------------------------------------

 Structure from the checkpoint file:  "JID_5555.chk"
 -------------------------------
 CID_149498842_JID_5555_neutraal
 -------------------------------
 Charge =  0 Multiplicity = 1

 SCF Done:  E(RB3LYP) =  -587.290679761     A.U. after    1 cycles

  Exact polarizability: 165.778  12.570 152.809  -4.365   6.920 133.633
 Approx polarizability: 210.934  21.116 214.453  -6.398  16.369 222.765

                      1                      2                      3
                      A                      A                      A
 Frequencies --     29.0848                75.8836                83.5467
 Red. masses --      2.8378                 2.8503                 3.0785
 Frc consts  --      0.0014                 0.0097                 0.0127
 IR Inten    --      0.1290                 0.1027                 0.1943

                      4                      5                      6
                      A                      A                      A
 Frequencies --    126.7815               128.4098               179.0164
 Red. masses --      3.0329                 3.1005                 2.7354
 Frc consts  --      0.0287                 0.0301                 0.0516
 IR Inten    --      0.1166                 0.0524                 0.0758

                      7                      8                      9
                      A                      A                      A
 Frequencies --    205.6009               209.2859               232.2060
 Red. masses --      2.4201                 2.4844                 1.8039
 Frc consts  --      0.0603                 0.0641                 0.0573
 IR Inten    --      0.0242                 0.0187                 0.1663

                     10                     11                     12
                      A                      A                      A
 Frequencies --    251.4774               274.5573               279.8789
 Red. masses --      1.3543                 2.3468                 1.8293
 Frc consts  --      0.0505                 0.1042                 0.0844
 IR Inten    --      0.3188                 0.1662                 0.4076

                     13                     14                     15
                      A                      A                      A
 Frequencies --    304.2290               312.2585               343.6906
 Red. masses --      1.5892                 1.7569                 2.2965
 Frc consts  --      0.0867                 0.1009                 0.1598
 IR Inten    --      0.2477                 0.2761                 0.3185

                     16                     17                     18
                      A                      A                      A
 Frequencies --    353.9828               367.7877               372.6455
 Red. masses --      2.3214                 2.4163                 2.3083
 Frc consts  --      0.1714                 0.1926                 0.1889
 IR Inten    --      0.5190                 0.3041                 0.1626

                     19                     20                     21
                      A                      A                      A
 Frequencies --    409.0497               424.5145               446.2637
 Red. masses --      2.0143                 2.0536                 2.7018
 Frc consts  --      0.1986                 0.2180                 0.3170
 IR Inten    --      0.5898                 0.1368                 0.1461

                     22                     23                     24
                      A                      A                      A
 Frequencies --    483.2433               503.7795               532.0023
 Red. masses --      2.3260                 2.3960                 2.1971
 Frc consts  --      0.3200                 0.3583                 0.3664
 IR Inten    --      1.1262                 1.9304                 1.7329

                     25                     26                     27
                      A                      A                      A
 Frequencies --    553.1552               572.9078               647.1273
 Red. masses --      2.2010                 2.0652                 1.9923
 Frc consts  --      0.3968                 0.3994                 0.4916
 IR Inten    --      0.5201                 6.3777                 0.8733

                     28                     29                     30
                      A                      A                      A
 Frequencies --    712.7300               743.3350               762.0158
 Red. masses --      1.2727                 1.5077                 1.4510
 Frc consts  --      0.3809                 0.4908                 0.4964
 IR Inten    --      1.0123                 5.7044                 4.9457

                     31                     32                     33
                      A                      A                      A
 Frequencies --    803.0046               807.8580               843.9227
 Red. masses --      2.6765                 1.8469                 2.1273
 Frc consts  --      1.0169                 0.7102                 0.8927
 IR Inten    --      0.2371                 2.0773                 4.6057

                     34                     35                     36
                      A                      A                      A
 Frequencies --    878.7946               895.0276               907.0573
 Red. masses --      2.3070                 2.0011                 1.7352
 Frc consts  --      1.0497                 0.9445                 0.8412
 IR Inten    --      0.4950                 0.7658                10.1078

                     37                     38                     39
                      A                      A                      A
 Frequencies --    915.5121               929.4820               933.8548
 Red. masses --      1.6088                 1.4562                 2.0661
 Frc consts  --      0.7945                 0.7412                 1.0616
 IR Inten    --     27.5835                36.6762                 1.9588

                     40                     41                     42
                      A                      A                      A
 Frequencies --    943.9239               960.6083               969.4070
 Red. masses --      2.0922                 1.4716                 1.9234
 Frc consts  --      1.0983                 0.8001                 1.0650
 IR Inten    --      0.6458                 0.5715                 0.6366

                     43                     44                     45
                      A                      A                      A
 Frequencies --    988.0589              1013.7749              1031.5754
 Red. masses --      1.8134                 1.9327                 1.3685
 Frc consts  --      1.0430                 1.1703                 0.8580
 IR Inten    --      1.0611                 2.5207                 1.0275

                     46                     47                     48
                      A                      A                      A
 Frequencies --   1042.0618              1055.5725              1063.7003
 Red. masses --      1.6629                 1.1267                 1.7227
 Frc consts  --      1.0639                 0.7396                 1.1484
 IR Inten    --      0.5368                10.4434                 2.5892

                     49                     50                     51
                      A                      A                      A
 Frequencies --   1073.4275              1087.3189              1094.7225
 Red. masses --      1.9047                 2.0009                 2.6488
 Frc consts  --      1.2930                 1.3938                 1.8703
 IR Inten    --      1.8375                 0.3671                 1.1465

                     52                     53                     54
                      A                      A                      A
 Frequencies --   1100.6906              1149.7255              1160.5321
 Red. masses --      2.3012                 2.1223                 1.3720
 Frc consts  --      1.6426                 1.6529                 1.0887
 IR Inten    --      0.3826                 7.9088                 0.7295

                     55                     56                     57
                      A                      A                      A
 Frequencies --   1178.2576              1213.5288              1225.9456
 Red. masses --      1.5511                 1.3237                 1.3647
 Frc consts  --      1.2687                 1.1485                 1.2084
 IR Inten    --      3.0068                 0.9087                 0.0150

                     58                     59                     60
                      A                      A                      A
 Frequencies --   1234.1185              1256.8435              1264.8983
 Red. masses --      1.4901                 2.0200                 1.4760
 Frc consts  --      1.3372                 1.8800                 1.3914
 IR Inten    --      3.1464                 0.2871                 2.1168

                     61                     62                     63
                      A                      A                      A
 Frequencies --   1273.7872              1303.7678              1306.7600
 Red. masses --      1.7300                 1.3110                 1.3106
 Frc consts  --      1.6539                 1.3129                 1.3186
 IR Inten    --     11.5260                 0.8018                 4.1221

                     64                     65                     66
                      A                      A                      A
 Frequencies --   1329.7853              1348.7376              1357.5207
 Red. masses --      1.3262                 1.3182                 1.2311
 Frc consts  --      1.3817                 1.4128                 1.3367
 IR Inten    --      3.8933                 1.4572                 1.9198

                     67                     68                     69
                      A                      A                      A
 Frequencies --   1362.7133              1375.9125              1386.0844
 Red. masses --      1.2503                 1.3512                 1.2978
 Frc consts  --      1.3680                 1.5072                 1.4691
 IR Inten    --      0.5569                 1.8004                 0.6330

                     70                     71                     72
                      A                      A                      A
 Frequencies --   1398.6600              1402.6972              1416.3372
 Red. masses --      1.4039                 1.3531                 1.4927
 Frc consts  --      1.6181                 1.5685                 1.7642
 IR Inten    --      1.4019                 9.2237                 1.1180

                     73                     74                     75
                      A                      A                      A
 Frequencies --   1417.8990              1427.3072              1429.6765
 Red. masses --      1.5360                 1.4237                 1.2439
 Frc consts  --      1.8194                 1.7088                 1.4980
 IR Inten    --      0.8093                 2.1987                 7.0539

                     76                     77                     78
                      A                      A                      A
 Frequencies --   1449.1631              1471.0215              1473.0775
 Red. masses --      1.2315                 1.1789                 1.1786
 Frc consts  --      1.5238                 1.5030                 1.5068
 IR Inten    --      6.0291                 3.6877                 1.2180

                     79                     80                     81
                      A                      A                      A
 Frequencies --   1513.2314              1515.5005              1518.4364
 Red. masses --      1.0783                 1.0703                 1.0785
 Frc consts  --      1.4548                 1.4483                 1.4651
 IR Inten    --      4.8743                 3.2581                 1.7381

                     82                     83                     84
                      A                      A                      A
 Frequencies --   1522.1482              1525.9280              1527.6303
 Red. masses --      1.0599                 1.0900                 1.0680
 Frc consts  --      1.4469                 1.4953                 1.4685
 IR Inten    --      1.1430                 3.4767                 3.1598

                     85                     86                     87
                      A                      A                      A
 Frequencies --   1529.2191              1537.9768              1539.6309
 Red. masses --      1.0912                 1.0658                 1.0713
 Frc consts  --      1.5035                 1.4854                 1.4963
 IR Inten    --      3.5109                 2.5156                 4.2025

                     88                     89                     90
                      A                      A                      A
 Frequencies --   1545.8659              1557.9503              1729.0060
 Red. masses --      1.0550                 1.0859                 4.2814
 Frc consts  --      1.4855                 1.5529                 7.5410
 IR Inten    --      6.5092                 9.1616                13.0539

                     91                     92                     93
                      A                      A                      A
 Frequencies --   1731.1585              3015.4888              3030.2410
 Red. masses --      4.7744                 1.0721                 1.0737
 Frc consts  --      8.4303                 5.7440                 5.8086
 IR Inten    --      9.2131                16.2115                23.7279

                     94                     95                     96
                      A                      A                      A
 Frequencies --   3031.4973              3034.7683              3036.6322
 Red. masses --      1.0613                 1.0649                 1.0763
 Frc consts  --      5.7465                 5.7785                 5.8473
 IR Inten    --     17.1868                45.3195                 7.5510

                     97                     98                     99
                      A                      A                      A
 Frequencies --   3042.9849              3043.3514              3048.6711
 Red. masses --      1.0499                 1.0501                 1.0430
 Frc consts  --      5.7280                 5.7305                 5.7114
 IR Inten    --     37.6943                28.7608                19.2112

                    100                    101                    102
                      A                      A                      A
 Frequencies --   3052.8837              3066.9447              3070.5403
 Red. masses --      1.0610                 1.0967                 1.0944
 Frc consts  --      5.8261                 6.0776                 6.0793
 IR Inten    --     15.0424                12.1370                52.6155

                    103                    104                    105
                      A                      A                      A
 Frequencies --   3079.2538              3080.5770              3090.0886
 Red. masses --      1.1019                 1.0975                 1.0832
 Frc consts  --      6.1559                 6.1364                 6.0938
 IR Inten    --     12.5973                67.8235                33.9420

                    106                    107                    108
                      A                      A                      A
 Frequencies --   3094.8611              3105.4021              3110.6433
 Red. masses --      1.0792                 1.1011                 1.0999
 Frc consts  --      6.0901                 6.2562                 6.2704
 IR Inten    --     46.9813                29.9755                28.0895

                    109                    110                    111
                      A                      A                      A
 Frequencies --   3118.0763              3120.4414              3123.5267
 Red. masses --      1.0938                 1.1014                 1.1010
 Frc consts  --      6.2657                 6.3187                 6.3287
 IR Inten    --     34.9982                23.2797                39.6084

                    112                    113                    114
                      A                      A                      A
 Frequencies --   3141.6823              3149.7397              3158.2446
 Red. masses --      1.0897                 1.0810                 1.0603
 Frc consts  --      6.3370                 6.3185                 6.2310
 IR Inten    --     30.7092                21.6077                 9.3249

                    115                    116                    117
                      A                      A                      A
 Frequencies --   3170.8555              3233.2113              3241.1219
 Red. masses --      1.0675                 1.1148                 1.1146
 Frc consts  --      6.3237                 6.8662                 6.8988
 IR Inten    --     11.7206                17.7546                22.9450

 - Thermochemistry -
 -------------------
 Temperature   298.150 Kelvin.  Pressure   1.00000 Atm.
 Atom     1 has atomic number  6 and mass  12.00000

 Molecular mass:   206.20345 amu.
 Principal axes and moments of inertia in atomic units:
                           1         2         3
     Eigenvalues --  2215.302493788.730444955.75183
           X            0.99999   0.00236   0.00338
           Y           -0.00238   0.99997   0.00692
           Z           -0.00336  -0.00693   0.99997
 This molecule is an asymmetric top.
 Rotational symmetry number  1.
 Warning -- assumption of classical behavior for rotation
           may cause significant error
 Rotational temperatures (Kelvin)      0.03910     0.02286     0.01748
 Rotational constants (GHZ):           0.81467     0.47634     0.36417
 Zero-point vibrational energy    1002829.3 (Joules/Mol)
                                  239.68196 (Kcal/Mol)
 Warning -- explicit consideration of  26 degrees of freedom as
           vibrations may cause significant error
 Vibrational temperatures:     41.85   109.18   120.21   182.41   184.75
          (Kelvin)            257.56   295.81   301.12   334.09   361.82
                              395.03   402.68   437.72   449.27   494.49
                              509.30   529.16   536.15   588.53   610.78
                              642.07   695.28   724.83   765.43   795.87
                              824.29   931.07  1025.46  1069.49  1096.37
                             1155.34  1162.33  1214.22  1264.39  1287.75
                             1305.05  1317.22  1337.32  1343.61  1358.10
                             1382.10  1394.76  1421.60  1458.60  1484.21
                             1499.29  1518.73  1530.43  1544.42  1564.41
                             1575.06  1583.65  1654.20  1669.75  1695.25
                             1746.00  1763.86  1775.62  1808.32  1819.91
                             1832.70  1875.83  1880.14  1913.26  1940.53
                             1953.17  1960.64  1979.63  1994.27  2012.36
                             2018.17  2037.79  2040.04  2053.58  2056.99
                             2085.02  2116.47  2119.43  2177.20  2180.47
                             2184.69  2190.03  2195.47  2197.92  2200.21
                             2212.81  2215.19  2224.16  2241.54  2487.65
                             2490.75  4338.62  4359.84  4361.65  4366.35
                             4369.04  4378.18  4378.70  4386.36  4392.42
                             4412.65  4417.82  4430.36  4432.26  4445.95
                             4452.81  4467.98  4475.52  4486.22  4489.62
                             4494.06  4520.18  4531.77  4544.01  4562.15
                             4651.87  4663.25

 Zero-point correction=                           0.381958 (Hartree/Particle)
 Thermal correction to Energy=                    0.397994
 Thermal correction to Enthalpy=                  0.398938
 Thermal correction to Gibbs Free Energy=         0.339997
 Sum of electronic and zero-point Energies=           -586.908722
 Sum of electronic and thermal Energies=              -586.892686
 Sum of electronic and thermal Enthalpies=            -586.891742
 Sum of electronic and thermal Free Energies=         -586.950682

                     E (Thermal)             CV                S
                      KCal/Mol        Cal/Mol-Kelvin    Cal/Mol-Kelvin
 Total                  249.745             64.871            124.051
 Electronic               0.000              0.000              0.000
 Translational            0.889              2.981             41.875
 Rotational               0.889              2.981             32.098
 Vibrational            247.968             58.910             50.078
 Vibration     1          0.593              1.984              5.891
 Vibration     2          0.599              1.965              3.995
 Vibration     3          0.600              1.961              3.806
 Vibration     4          0.611              1.926              2.994
 Vibration     5          0.611              1.925              2.970
 Vibration     6          0.629              1.868              2.339
 Vibration     7          0.640              1.832              2.082
 Vibration     8          0.642              1.827              2.050
 Vibration     9          0.653              1.792              1.862
 Vibration    10          0.663              1.760              1.720
 Vibration    11          0.677              1.720              1.567
 Vibration    12          0.680              1.711              1.534
 Vibration    13          0.695              1.666              1.394
 Vibration    14          0.701              1.650              1.350
 Vibration    15          0.722              1.588              1.195
 Vibration    16          0.730              1.567              1.148
 Vibration    17          0.740              1.538              1.089
 Vibration    18          0.744              1.528              1.069
 Vibration    19          0.773              1.451              0.930
 Vibration    20          0.787              1.417              0.877
 Vibration    21          0.806              1.369              0.807
 Vibration    22          0.839              1.287              0.701
 Vibration    23          0.859              1.242              0.649
 Vibration    24          0.887              1.179              0.583
 Vibration    25          0.909              1.133              0.538
 Vibration    26          0.929              1.090              0.499

                           ! Non-Optimized Parameters !
 Normal termination of Gaussian 16 at Thu Dec 10 18:12:16 2020.

 ----------------------------------------------------------------------
 # B3LYP/6-311++G(d,p) empiricaldispersion=gd3bj scf=xqc pop=npa geom=c
 heck
 ----------------------------------------------------------------------

 ---------------------------------------
 CID_149498842_JID_5555_Energie_neutraal
 ---------------------------------------
 Structure from the checkpoint file:  "JID_5555.chk"
 Charge =  0 Multiplicity = 1

 SCF Done:  E(RB3LYP) =  -587.450851121     A.U. after   14 cycles
 Normal termination of Gaussian 16 at Thu Dec 10 18:19:06 2020.

 ----------------------------------------------------------------------
 # B3LYP/6-311++G(d,p) empiricaldispersion=gd3bj scf=xqc pop=npa geom=c
 heck
 ----------------------------------------------------------------------

 -------------------------------------
 CID_149498842_JID_5555_Energie_kation
 -------------------------------------
 Structure from the checkpoint file:  "JID_5555.chk"
 Charge =  1 Multiplicity = 2

 SCF Done:  E(UB3LYP) =  -587.142910803     A.U. after   24 cycles
 Normal termination of Gaussian 16 at Thu Dec 10 18:34:31 2020.
 Gaussian 16:  ES64L-G16RevA.03 25-Dec-2016

 ----------------------------------------------------------------------
 # B3LYP/6-311++G(d,p) empiricaldispersion=gd3bj scf=xqc pop=npa geom=c
 heck
 ----------------------------------------------------------------------

 ------------------------------------
 CID_149498842_JID_5555_Energie_anion
 ------------------------------------
 Structure from the checkpoint file:  "JID_5555.chk"
 Charge = -1 Multiplicity = 2

                         Standard orientation:
 ---------------------------------------------------------------------
 Center     Atomic      Atomic             Coordinates (Angstroms)
 Number     Number       Type             X           Y           Z
 ---------------------------------------------------------------------
      1          6           0       -1.989787    2.121859    0.639180
      2          6           0       -1.310052    1.119646   -0.312446
      3          6           0        0.142825    1.586358   -0.582314
      4          6           0        1.043942    1.832897    0.645591
      5          6           0        2.545570    1.676931    0.323949
      6          6           0        3.147764    0.274965    0.584363
      7          6           0        2.430459   -0.889811   -0.079499
      8          6           0        1.485391   -1.681765    0.809732
      9          6           0        0.276575   -2.355105    0.138373
     10          6           0       -0.654273   -1.383261   -0.602625
     11          6           0       -1.302773   -0.323267    0.316486
     12          6           0       -2.663655   -0.721330    0.847244
     13          6           0       -3.488557   -1.669870    0.400656
     14          6           0        2.669172   -1.207258   -1.355672
     15          6           0       -2.079456    1.108563   -1.643532
     16          1           0       -1.564360    2.079098    1.648726
     17          1           0       -3.065406    1.936611    0.718927
     18          1           0       -1.858003    3.144515    0.266010
     19          1           0        0.636148    0.866543   -1.239407
     20          1           0        0.091946    2.520308   -1.159482
     21          1           0        0.782355    1.158296    1.468935
     22          1           0        0.856851    2.842568    1.029383
     23          1           0        3.128451    2.391266    0.919242
     24          1           0        2.715816    1.945614   -0.727077
     25          1           0        3.171126    0.105624    1.669395
     26          1           0        4.192966    0.295184    0.252329
     27          1           0        1.133015   -1.025885    1.613420
     28          1           0        2.076832   -2.453143    1.326540
     29          1           0       -0.291118   -2.887545    0.912660
     30          1           0        0.625555   -3.121796   -0.564938
     31          1           0       -1.423969   -1.957731   -1.125894
     32          1           0       -0.075634   -0.897825   -1.389409
     33          1           0       -0.677025   -0.230703    1.212727
     34          1           0       -2.991623   -0.145966    1.712468
     35          1           0       -4.444872   -1.848182    0.884874
     36          1           0       -3.259657   -2.307397   -0.448006
     37          1           0        3.387908   -0.649176   -1.951278
     38          1           0        2.163334   -2.027413   -1.856773
     39          1           0       -3.093905    0.720202   -1.503867
     40          1           0       -2.155584    2.123087   -2.052228
     41          1           0       -1.580019    0.486529   -2.394184
 ---------------------------------------------------------------------

 SCF Done:  E(UB3LYP) =  -587.435176499     A.U. after   33 cycles
 SCF Done:  E(UB3LYP) =  -587.435176499     a.u. after    1 cycles

 The electronic state is 2-A.
 Alpha  occ. eigenvalues --  -10.08791 -10.08042 -10.07909 -10.07594 -10.06902
 Alpha  occ. eigenvalues --  -10.06856 -10.06829 -10.06518 -10.06476 -10.06367
 Alpha  occ. eigenvalues --  -10.06127 -10.06035 -10.05998 -10.05881 -10.05021
 Alpha  occ. eigenvalues --   -0.74866  -0.71888  -0.69922  -0.66914  -0.65219
 Alpha  occ. eigenvalues --   -0.61091  -0.59785  -0.59101  -0.56411  -0.54120
 Alpha  occ. eigenvalues --   -0.50084  -0.48059  -0.46068  -0.42445  -0.41298
 Alpha  occ. eigenvalues --   -0.39677  -0.37598  -0.36974  -0.35928  -0.35259
 Alpha  occ. eigenvalues --   -0.34130  -0.33561  -0.32064  -0.31763  -0.31357
 Alpha  occ. eigenvalues --   -0.29943  -0.29187  -0.28373  -0.27587  -0.26822
 Alpha  occ. eigenvalues --   -0.26493  -0.26177  -0.25935  -0.24069  -0.23462
 Alpha  occ. eigenvalues --   -0.23050  -0.22601  -0.22286  -0.21589  -0.20658
 Alpha  occ. eigenvalues --   -0.19891  -0.16394  -0.14360   0.04464
 Alpha virt. eigenvalues --    0.06314   0.06759   0.07191   0.08001   0.08493
 Alpha virt. eigenvalues --    0.08617   0.08847   0.09390   0.09623   0.10440
 Alpha virt. eigenvalues --    0.10592   0.10638   0.11371   0.11557   0.12010

  Beta  occ. eigenvalues --  -10.08787 -10.08034 -10.07905 -10.07565 -10.06887
  Beta  occ. eigenvalues --  -10.06841 -10.06816 -10.06503 -10.06457 -10.06364
  Beta  occ. eigenvalues --  -10.06109 -10.06025 -10.05991 -10.05860 -10.04984
  Beta  occ. eigenvalues --   -0.74849  -0.71832  -0.69900  -0.66890  -0.65182
  Beta  occ. eigenvalues --   -0.61061  -0.59738  -0.59074  -0.56366  -0.54080
  Beta  occ. eigenvalues --   -0.50034  -0.48009  -0.46028  -0.42408  -0.41225
  Beta  occ. eigenvalues --   -0.39647  -0.37579  -0.36938  -0.35881  -0.35230
  Beta  occ. eigenvalues --   -0.34106  -0.33533  -0.32035  -0.31732  -0.31333
  Beta  occ. eigenvalues --   -0.29911  -0.29158  -0.28346  -0.27556  -0.26793
  Beta  occ. eigenvalues --   -0.26468  -0.26147  -0.25908  -0.24044  -0.23435
  Beta  occ. eigenvalues --   -0.23021  -0.22566  -0.22260  -0.21563  -0.20637
  Beta  occ. eigenvalues --   -0.19863  -0.16380  -0.14179
  Beta virt. eigenvalues --    0.06417   0.07096   0.07344   0.07516   0.08526
  Beta virt. eigenvalues --    0.08759   0.08950   0.09194   0.09587   0.09873
  Beta virt. eigenvalues --    0.10842   0.10870   0.11041   0.11659   0.11865

 Mulliken charges and spin densities:
               1          2
     1  C    0.089262  -0.807652
     2  C   -0.835285   1.464012
     3  C    0.302472  -0.877889
     4  C   -0.113975   0.049727
     5  C   -0.107667  -0.228329
     6  C    0.427557  -1.243071
     7  C   -0.075260   1.179071
     8  C   -0.196380  -0.211324
     9  C    0.571798  -1.361110
    10  C   -1.420862   1.278959
    11  C    1.270997  -0.996923
    12  C    0.148479  -0.227517
    13  C    0.621493  -1.187869
    14  C   -0.330880  -0.493265
    15  C   -0.159575  -0.484252
    16  H   -0.200463   0.370865
    17  H    0.007910   0.147925
    18  H   -0.096688   0.240090
    19  H    0.114740   0.030635
    20  H   -0.018629   0.215216
    21  H   -0.070781   0.190312
    22  H   -0.073287   0.267388
    23  H   -0.487520   0.649191
    24  H    0.103006   0.039773
    25  H   -0.220917   0.395163
    26  H   -0.211448   0.379821
    27  H    0.076003   0.052348
    28  H   -0.427829   0.646683
    29  H    0.071032   0.098094
    30  H   -0.001673   0.151799
    31  H   -0.067393   0.207384
    32  H    0.344702  -0.190999
    33  H    0.323308  -0.221219
    34  H   -0.349749   0.543361
    35  H   -0.194218   0.330188
    36  H    0.063988   0.038461
    37  H   -0.030257   0.164160
    38  H   -0.014034   0.117488
    39  H    0.170833  -0.007652
    40  H   -0.003598   0.153305
    41  H    0.000788   0.137651
 Sum of Mulliken charges =  -1.00000   1.00000

 Dipole moment (field-independent basis, Debye):
    X=             -2.7157    Y=             -1.0976    Z=             -3.6685  Tot=              4.6944
 Quadrupole moment (field-independent basis, Debye-Ang):
   XX=           -174.1433   YY=           -151.9459   ZZ=           -134.2274
   XY=              1.2821   XZ=             -0.6839   YZ=             -1.7282

 Summary of Natural Population Analysis:

                                       Natural Population
                Natural  -----------------------------------------------
    Atom  No    Charge         Core      Valence    Rydberg      Total
 -----------------------------------------------------------------------
      C    1   -0.28923      0.99962     2.28198    0.00762     3.28923
      C    2   -0.03025      0.99956     2.01881    0.01188     3.03025
      C    3   -0.19052      0.99958     2.18130    0.00963     3.19052
      C    4   -0.19634      0.99962     2.18782    0.00890     3.19634
      C    5   -0.17948      0.99962     2.17123    0.00863     3.17948
      C    6   -0.20143      0.99957     2.19166    0.01020     3.20143
      C    7    0.00975      0.99952     1.97878    0.01195     2.99025
      C    8   -0.20773      0.99957     2.19869    0.00947     3.20773
      C    9   -0.18520      0.99963     2.17681    0.00876     3.18520
      C   10   -0.19322      0.99961     2.18534    0.00827     3.19322
      C   11   -0.13342      0.99953     2.12000    0.01389     3.13342
      C   12   -0.07248      0.99955     2.06117    0.01175     3.07248
      C   13   -0.19987      0.99955     2.19381    0.00651     3.19987
      C   14   -0.20612      0.99947     2.19889    0.00776     3.20612
      C   15   -0.28796      0.99962     2.28134    0.00701     3.28796
      H   16    0.10186      0.00000     0.39695    0.00119     0.39814
      H   17    0.10100      0.00000     0.39797    0.00103     0.39900
      H   18    0.10079      0.00000     0.39830    0.00090     0.39921
      H   19    0.10345      0.00000     0.39470    0.00185     0.39655
      H   20    0.09707      0.00000     0.40189    0.00104     0.40293
      H   21    0.09367      0.00000     0.40417    0.00216     0.40633
      H   22    0.09987      0.00000     0.39888    0.00125     0.40013
      H   23    0.09970      0.00000     0.39877    0.00153     0.40030
      H   24    0.09192      0.00000     0.40688    0.00120     0.40808
      H   25    0.09815      0.00000     0.40013    0.00173     0.40185
      H   26    0.10343      0.00000     0.39517    0.00140     0.39657
      H   27    0.09785      0.00000     0.40032    0.00183     0.40215
      H   28    0.11024      0.00000     0.38819    0.00157     0.38976
      H   29    0.09958      0.00000     0.39940    0.00102     0.40042
      H   30    0.09575      0.00000     0.40327    0.00097     0.40425
      H   31    0.09599      0.00000     0.40253    0.00148     0.40401
      H   32    0.10298      0.00000     0.39546    0.00156     0.39702
      H   33    0.10535      0.00000     0.39159    0.00306     0.39465
      H   34    0.09553      0.00000     0.40323    0.00124     0.40447
      H   35    0.09449      0.00000     0.40455    0.00096     0.40551
      H   36    0.08891      0.00000     0.40999    0.00110     0.41109
      H   37    0.09291      0.00000     0.40619    0.00090     0.40709
      H   38    0.09192      0.00000     0.40716    0.00091     0.40808
      H   39    0.10321      0.00000     0.39602    0.00077     0.39679
      H   40    0.09887      0.00000     0.40037    0.00076     0.40113
      H   41    0.09900      0.00000     0.40024    0.00076     0.40100
 =======================================================================
   * Total *    0.00000     14.99361    42.82995    0.17644    58.00000

 Normal termination of Gaussian 16 at Thu Dec 10 18:55:32 2020.
