 Gaussian 16, Revision A.03,

 -----------------------------------------------------------
 # opt freq B3LYP/6-31G(d) empiricaldispersion=gd3bj scf=xqc
 -----------------------------------------------------------

 -------------------------------
 CID_113925757_JID_8577_neutraal
 -------------------------------
 Symbolic Z-matrix:
 Charge =  0 Multiplicity = 1

 SCF Done:  E(RB3LYP) =  -1075.31976291     A.U. after   29 cycles
 SCF Done:  E(RB3LYP) =  -1075.50320496     A.U. after   21 cycles
 SCF Done:  E(RB3LYP) =  -1075.73930647     A.U. after   19 cycles
 SCF Done:  E(RB3LYP) =  -1075.81815217     A.U. after   20 cycles
 SCF Done:  E(RB3LYP) =  -1075.97601141     A.U. after   19 cycles
 SCF Done:  E(RB3LYP) =  -1076.11054289     A.U. after   17 cycles
 SCF Done:  E(RB3LYP) =  -1076.23130548     A.U. after   16 cycles
 SCF Done:  E(RB3LYP) =  -1076.31090539     A.U. after   14 cycles
 SCF Done:  E(RB3LYP) =  -1076.36318484     A.U. after   13 cycles
 SCF Done:  E(RB3LYP) =  -1076.37142428     A.U. after   13 cycles
 SCF Done:  E(RB3LYP) =  -1076.50645387     A.U. after    8 cycles
 SCF Done:  E(RB3LYP) =  -1076.50645555     A.U. after    8 cycles
 SCF Done:  E(RB3LYP) =  -1076.50645615     A.U. after    7 cycles
 SCF Done:  E(RB3LYP) =  -1076.50645646     A.U. after    7 cycles
 SCF Done:  E(RB3LYP) =  -1076.50645660     A.U. after    7 cycles
 Optimization completed.
    -- Stationary point found.
 Normal termination of Gaussian 16 at Fri Dec 11 21:58:55 2020.

 --------------------------------------------------------------------
 #N Geom=AllCheck Guess=TCheck SCRF=Check GenChk RB3LYP/6-31G(d) Freq
 --------------------------------------------------------------------

 Structure from the checkpoint file:  "JID_8577.chk"
 -------------------------------
 CID_113925757_JID_8577_neutraal
 -------------------------------
 Charge =  0 Multiplicity = 1

 SCF Done:  E(RB3LYP) =  -1076.50645660     A.U. after    1 cycles

  Exact polarizability: 219.297  -8.758 179.394  -2.574  -4.173 146.308
 Approx polarizability: 311.144 -17.595 279.506  -2.689  -8.512 237.171

                      1                      2                      3
                      A                      A                      A
 Frequencies --     62.9021                67.7396               126.4009
 Red. masses --      3.1212                 2.8286                 4.1663
 Frc consts  --      0.0073                 0.0076                 0.0392
 IR Inten    --      0.1620                 0.2072                 1.1835

                      4                      5                      6
                      A                      A                      A
 Frequencies --    175.3169               181.1357               207.0305
 Red. masses --      3.9964                 3.6093                 3.4537
 Frc consts  --      0.0724                 0.0698                 0.0872
 IR Inten    --      1.0361                 0.0281                 0.5178

                      7                      8                      9
                      A                      A                      A
 Frequencies --    209.8207               229.8205               247.8545
 Red. masses --      1.7220                 1.7791                 2.8439
 Frc consts  --      0.0447                 0.0554                 0.1029
 IR Inten    --      0.0199                 0.6568                 0.5820

                     10                     11                     12
                      A                      A                      A
 Frequencies --    249.3694               280.0492               292.4417
 Red. masses --      2.1614                 2.4362                 2.5363
 Frc consts  --      0.0792                 0.1126                 0.1278
 IR Inten    --      0.1118                 0.9215                 1.3218

                     13                     14                     15
                      A                      A                      A
 Frequencies --    344.5055               375.4170               377.1282
 Red. masses --      2.9692                 3.8426                 2.4634
 Frc consts  --      0.2076                 0.3191                 0.2064
 IR Inten    --      0.6957                 1.3524                 0.3103

                     16                     17                     18
                      A                      A                      A
 Frequencies --    394.8541               412.7386               425.1053
 Red. masses --      3.0742                 2.9823                 3.1654
 Frc consts  --      0.2824                 0.2993                 0.3370
 IR Inten    --      1.0913                 3.2898                 1.3342

                     19                     20                     21
                      A                      A                      A
 Frequencies --    449.4354               479.8473               501.5110
 Red. masses --      3.6590                 2.2946                 4.1773
 Frc consts  --      0.4355                 0.3113                 0.6190
 IR Inten    --      0.2581                 1.6424                 1.1932

                     22                     23                     24
                      A                      A                      A
 Frequencies --    519.2690               552.2418               587.2611
 Red. masses --      3.9613                 4.2725                 2.2656
 Frc consts  --      0.6293                 0.7677                 0.4604
 IR Inten    --      0.7337                 1.9401                43.7856

                     25                     26                     27
                      A                      A                      A
 Frequencies --    597.3070               615.3628               648.6756
 Red. masses --      4.1859                 2.4237                 2.4593
 Frc consts  --      0.8799                 0.5408                 0.6097
 IR Inten    --      1.6216                 8.1427                44.0394

                     28                     29                     30
                      A                      A                      A
 Frequencies --    670.5735               696.9168               740.1148
 Red. masses --      3.1193                 3.1072                 2.3798
 Frc consts  --      0.8264                 0.8892                 0.7680
 IR Inten    --     33.4369                15.2191                 4.0492

                     31                     32                     33
                      A                      A                      A
 Frequencies --    767.7563               777.3083               789.8381
 Red. masses --      3.0173                 3.6112                 2.8604
 Frc consts  --      1.0479                 1.2855                 1.0514
 IR Inten    --     14.7167                 4.7777                 4.9404

                     34                     35                     36
                      A                      A                      A
 Frequencies --    794.2983               824.4297               838.1285
 Red. masses --      2.3653                 2.1225                 2.1052
 Frc consts  --      0.8792                 0.8500                 0.8713
 IR Inten    --     11.4971                 9.7685                 8.0615

                     37                     38                     39
                      A                      A                      A
 Frequencies --    850.1851               882.2063               900.5004
 Red. masses --      2.4417                 2.2881                 2.2234
 Frc consts  --      1.0399                 1.0492                 1.0623
 IR Inten    --      1.9724                 2.3243                 1.4339

                     40                     41                     42
                      A                      A                      A
 Frequencies --    931.3969               944.4116               958.2509
 Red. masses --      3.3168                 2.3073                 2.2280
 Frc consts  --      1.6953                 1.2125                 1.2054
 IR Inten    --     10.1180                 2.5560                 0.6926

                     43                     44                     45
                      A                      A                      A
 Frequencies --    981.9526               984.4707               990.2838
 Red. masses --      2.0557                 1.3776                 1.9989
 Frc consts  --      1.1678                 0.7866                 1.1549
 IR Inten    --      2.4088                 0.4141                 2.2322

                     46                     47                     48
                      A                      A                      A
 Frequencies --   1004.9050              1011.9028              1033.6959
 Red. masses --      2.0967                 2.0309                 1.9455
 Frc consts  --      1.2475                 1.2252                 1.2248
 IR Inten    --      9.2718                 0.2514                 2.6655

                     49                     50                     51
                      A                      A                      A
 Frequencies --   1060.4732              1069.0276              1078.1241
 Red. masses --      2.0964                 2.3581                 2.2404
 Frc consts  --      1.3891                 1.5878                 1.5343
 IR Inten    --      3.3101                 1.2972                 8.1235

                     52                     53                     54
                      A                      A                      A
 Frequencies --   1107.9080              1115.5132              1118.7400
 Red. masses --      2.1618                 2.7705                 2.5120
 Frc consts  --      1.5634                 2.0312                 1.8524
 IR Inten    --      2.2267                15.7914                41.8769

                     55                     56                     57
                      A                      A                      A
 Frequencies --   1136.8404              1155.0780              1195.3431
 Red. masses --      2.0756                 2.2086                 1.7089
 Frc consts  --      1.5805                 1.7361                 1.4386
 IR Inten    --      8.6880                 2.4616                 7.1150

                     58                     59                     60
                      A                      A                      A
 Frequencies --   1198.9965              1212.9557              1215.8540
 Red. masses --      1.5213                 1.1603                 1.1618
 Frc consts  --      1.2886                 1.0058                 1.0120
 IR Inten    --     10.7374                 2.4356                 2.4107

                     61                     62                     63
                      A                      A                      A
 Frequencies --   1235.8581              1241.7054              1252.9671
 Red. masses --      1.7217                 1.3338                 1.2049
 Frc consts  --      1.5493                 1.2117                 1.1145
 IR Inten    --      0.3105                 1.1568                 8.2651

                     64                     65                     66
                      A                      A                      A
 Frequencies --   1281.5746              1287.5840              1297.8091
 Red. masses --      1.2708                 1.4142                 1.9292
 Frc consts  --      1.2297                 1.3813                 1.9144
 IR Inten    --      8.9201                 0.0596                 4.5160

                     67                     68                     69
                      A                      A                      A
 Frequencies --   1323.6278              1333.4482              1341.7051
 Red. masses --      1.2804                 1.1985                 1.3659
 Frc consts  --      1.3217                 1.2555                 1.4488
 IR Inten    --      1.4751                 3.5162                 3.3885

                     70                     71                     72
                      A                      A                      A
 Frequencies --   1352.0774              1358.2402              1362.2145
 Red. masses --      1.4540                 1.3218                 1.2403
 Frc consts  --      1.5661                 1.4367                 1.3560
 IR Inten    --      5.8030                11.1782                14.4655

                     73                     74                     75
                      A                      A                      A
 Frequencies --   1363.2594              1375.3898              1383.8413
 Red. masses --      1.3124                 1.6537                 1.3580
 Frc consts  --      1.4371                 1.8432                 1.5322
 IR Inten    --      8.8417                 2.4762                 1.2374

                     76                     77                     78
                      A                      A                      A
 Frequencies --   1385.8623              1396.3945              1401.3723
 Red. masses --      1.3186                 1.3625                 1.3312
 Frc consts  --      1.4921                 1.5653                 1.5402
 IR Inten    --      1.1695                 1.2699                 0.1375

                     79                     80                     81
                      A                      A                      A
 Frequencies --   1405.4879              1415.6575              1435.5802
 Red. masses --      1.3563                 1.2079                 1.2521
 Frc consts  --      1.5786                 1.4262                 1.5203
 IR Inten    --      5.1820                12.9370                 4.0386

                     82                     83                     84
                      A                      A                      A
 Frequencies --   1441.9451              1477.7896              1489.4632
 Red. masses --      1.7361                 1.0946                 1.1443
 Frc consts  --      2.1268                 1.4084                 1.4957
 IR Inten    --      0.8547                 0.3815                 5.5409

                     85                     86                     87
                      A                      A                      A
 Frequencies --   1503.6755              1511.4626              1516.8172
 Red. masses --      1.1067                 1.0811                 1.0902
 Frc consts  --      1.4743                 1.4552                 1.4778
 IR Inten    --      8.8651                 2.7144                 7.2603

                     88                     89                     90
                      A                      A                      A
 Frequencies --   1521.7005              1524.9321              1526.3679
 Red. masses --      1.1030                 1.1186                 1.0905
 Frc consts  --      1.5048                 1.5325                 1.4969
 IR Inten    --      5.4217                 1.3053                 2.1875

                     91                     92                     93
                      A                      A                      A
 Frequencies --   1528.7260              1537.3430              1662.3948
 Red. masses --      1.0949                 1.0658                 6.4887
 Frc consts  --      1.5077                 1.4841                10.5652
 IR Inten    --     15.3904                 4.9339                 1.8636

                     94                     95                     96
                      A                      A                      A
 Frequencies --   1735.6027              2988.6433              2999.8093
 Red. masses --      7.3190                 1.0818                 1.0823
 Frc consts  --     12.9899                 5.6932                 5.7381
 IR Inten    --      4.1950                19.1574                29.6614

                     97                     98                     99
                      A                      A                      A
 Frequencies --   3030.6994              3037.5689              3041.0309
 Red. masses --      1.0611                 1.0659                 1.0618
 Frc consts  --      5.7423                 5.7946                 5.7852
 IR Inten    --     21.9342                18.9717                73.2036

                    100                    101                    102
                      A                      A                      A
 Frequencies --   3041.9374              3047.7364              3052.6854
 Red. masses --      1.0600                 1.0498                 1.0648
 Frc consts  --      5.7791                 5.7455                 5.8463
 IR Inten    --     29.0801                20.8818                34.8527

                    103                    104                    105
                      A                      A                      A
 Frequencies --   3052.8490              3063.3398              3064.1031
 Red. masses --      1.0726                 1.0809                 1.0618
 Frc consts  --      5.8896                 5.9760                 5.8737
 IR Inten    --      0.8240                26.3871                45.5343

                    106                    107                    108
                      A                      A                      A
 Frequencies --   3067.8138              3082.0669              3083.9897
 Red. masses --      1.0980                 1.1003                 1.1036
 Frc consts  --      6.0887                 6.1580                 6.1843
 IR Inten    --     31.8355                57.3153                55.4793

                    109                    110                    111
                      A                      A                      A
 Frequencies --   3088.6551              3098.3206              3109.2688
 Red. masses --      1.1053                 1.0997                 1.1073
 Frc consts  --      6.2126                 6.2199                 6.3074
 IR Inten    --     22.2741                54.0174                17.7383

                    112                    113                    114
                      A                      A                      A
 Frequencies --   3117.1221              3120.6682              3156.5133
 Red. masses --      1.1023                 1.1016                 1.0846
 Frc consts  --      6.3103                 6.3208                 6.3670
 IR Inten    --     47.4347                25.2095                11.2826

                    115                    116                    117
                      A                      A                      A
 Frequencies --   3180.3783              3451.1883              3511.9051
 Red. masses --      1.0959                 1.0723                 1.0739
 Frc consts  --      6.5308                 7.5253                 7.8036
 IR Inten    --     48.0508                13.9949                 0.1630

 - Thermochemistry -
 -------------------
 Temperature   298.150 Kelvin.  Pressure   1.00000 Atm.
 Atom     1 has atomic number  6 and mass  12.00000

 Molecular mass:   261.15512 amu.
 Principal axes and moments of inertia in atomic units:
                           1         2         3
     Eigenvalues --  2876.438615235.935466085.71138
           X            0.99995   0.00238  -0.01009
           Y           -0.00258   0.99981  -0.01943
           Z            0.01004   0.01945   0.99976
 This molecule is an asymmetric top.
 Rotational symmetry number  1.
 Warning -- assumption of classical behavior for rotation
           may cause significant error
 Rotational temperatures (Kelvin)      0.03011     0.01654     0.01423
 Rotational constants (GHZ):           0.62742     0.34468     0.29655
 Zero-point vibrational energy     965069.9 (Joules/Mol)
                                  230.65725 (Kcal/Mol)
 Warning -- explicit consideration of  26 degrees of freedom as
           vibrations may cause significant error
 Vibrational temperatures:     90.50    97.46   181.86   252.24   260.61
          (Kelvin)            297.87   301.89   330.66   356.61   358.79
                              402.93   420.76   495.67   540.14   542.60
                              568.11   593.84   611.63   646.64   690.39
                              721.56   747.11   794.55   844.94   859.39
                              885.37   933.30   964.81  1002.71  1064.86
                             1104.63  1118.37  1136.40  1142.82  1186.17
                             1205.88  1223.23  1269.30  1295.62  1340.07
                             1358.80  1378.71  1412.81  1416.43  1424.80
                             1445.83  1455.90  1487.26  1525.78  1538.09
                             1551.18  1594.03  1604.97  1609.62  1635.66
                             1661.90  1719.83  1725.09  1745.17  1749.34
                             1778.12  1786.54  1802.74  1843.90  1852.55
                             1867.26  1904.41  1918.53  1930.41  1945.34
                             1954.20  1959.92  1961.43  1978.88  1991.04
                             1993.95  2009.10  2016.26  2022.18  2036.82
                             2065.48  2074.64  2126.21  2143.01  2163.45
                             2174.66  2182.36  2189.39  2194.04  2196.10
                             2199.50  2211.89  2391.82  2497.15  4299.99
                             4316.06  4360.50  4370.38  4375.37  4376.67
                             4385.01  4392.13  4392.37  4407.46  4408.56
                             4413.90  4434.41  4437.17  4443.89  4457.79
                             4473.54  4484.84  4489.95  4541.52  4575.85
                             4965.49  5052.85

 Zero-point correction=                           0.367576 (Hartree/Particle)
 Thermal correction to Energy=                    0.382892
 Thermal correction to Enthalpy=                  0.383836
 Thermal correction to Gibbs Free Energy=         0.326754
 Sum of electronic and zero-point Energies=          -1076.138881
 Sum of electronic and thermal Energies=             -1076.123564
 Sum of electronic and thermal Enthalpies=           -1076.122620
 Sum of electronic and thermal Free Energies=        -1076.179702

                     E (Thermal)             CV                S
                      KCal/Mol        Cal/Mol-Kelvin    Cal/Mol-Kelvin
 Total                  240.268             65.396            120.140
 Electronic               0.000              0.000              0.000
 Translational            0.889              2.981             42.579
 Rotational               0.889              2.981             32.883
 Vibrational            238.491             59.434             44.678
 Vibration     1          0.597              1.972              4.364
 Vibration     2          0.598              1.970              4.218
 Vibration     3          0.611              1.927              3.000
 Vibration     4          0.627              1.873              2.378
 Vibration     5          0.630              1.865              2.317
 Vibration     6          0.641              1.830              2.070
 Vibration     7          0.642              1.826              2.045
 Vibration     8          0.652              1.795              1.880
 Vibration     9          0.661              1.766              1.746
 Vibration    10          0.662              1.764              1.735
 Vibration    11          0.680              1.710              1.533
 Vibration    12          0.688              1.688              1.460
 Vibration    13          0.723              1.586              1.191
 Vibration    14          0.746              1.522              1.058
 Vibration    15          0.748              1.519              1.051
 Vibration    16          0.762              1.481              0.982
 Vibration    17          0.777              1.443              0.917
 Vibration    18          0.787              1.416              0.875
 Vibration    19          0.808              1.362              0.797
 Vibration    20          0.836              1.295              0.710
 Vibration    21          0.857              1.247              0.654
 Vibration    22          0.874              1.207              0.612
 Vibration    23          0.908              1.135              0.540
 Vibration    24          0.944              1.059              0.472
 Vibration    25          0.955              1.038              0.454
 Vibration    26          0.975              0.999              0.424

                           ! Non-Optimized Parameters !
 Normal termination of Gaussian 16 at Fri Dec 11 22:22:29 2020.

 ----------------------------------------------------------------------
 # B3LYP/6-311++G(d,p) empiricaldispersion=gd3bj scf=xqc pop=npa geom=c
 heck
 ----------------------------------------------------------------------

 ---------------------------------------
 CID_113925757_JID_8577_Energie_neutraal
 ---------------------------------------
 Structure from the checkpoint file:  "JID_8577.chk"
 Charge =  0 Multiplicity = 1

 SCF Done:  E(RB3LYP) =  -1076.71046937     A.U. after   15 cycles
 Normal termination of Gaussian 16 at Fri Dec 11 22:32:09 2020.

 ----------------------------------------------------------------------
 # B3LYP/6-311++G(d,p) empiricaldispersion=gd3bj scf=xqc pop=npa geom=c
 heck
 ----------------------------------------------------------------------

 -------------------------------------
 CID_113925757_JID_8577_Energie_kation
 -------------------------------------
 Structure from the checkpoint file:  "JID_8577.chk"
 Charge =  1 Multiplicity = 2

 SCF Done:  E(UB3LYP) =  -1076.44545217     A.U. after   29 cycles
 Normal termination of Gaussian 16 at Fri Dec 11 22:56:27 2020.
 Gaussian 16:  ES64L-G16RevA.03 25-Dec-2016

 ----------------------------------------------------------------------
 # B3LYP/6-311++G(d,p) empiricaldispersion=gd3bj scf=xqc pop=npa geom=c
 heck
 ----------------------------------------------------------------------

 ------------------------------------
 CID_113925757_JID_8577_Energie_anion
 ------------------------------------
 Structure from the checkpoint file:  "JID_8577.chk"
 Charge = -1 Multiplicity = 2

                         Standard orientation:
 ---------------------------------------------------------------------
 Center     Atomic      Atomic             Coordinates (Angstroms)
 Number     Number       Type             X           Y           Z
 ---------------------------------------------------------------------
      1          6           0        3.781726   -0.455630    1.086043
      2          6           0        3.175412   -0.176785   -0.302048
      3          6           0        3.164030    1.324003   -0.652072
      4          6           0        2.076576    2.079229    0.121041
      5          6           0        0.667645    1.550453   -0.198842
      6          6           0        0.702128    0.061248   -0.542882
      7          6           0       -0.666890   -0.503682   -0.575195
      8          6           0       -0.883944   -1.894795    0.017681
      9          6           0        0.361883   -2.741795   -0.088062
     10          6           0        1.567236   -2.197496   -0.337230
     11          6           0        1.776631   -0.742657   -0.427267
     12          7           0       -0.201583    1.800619    0.981949
     13          6           0       -1.665980    1.927394    0.954347
     14          6           0       -2.717505    0.742725    0.732120
     15          6           0       -2.569612   -0.594866    1.564186
     16          6           0       -1.349414   -1.571497    1.466669
     17         16           0       -1.781694    0.034798   -1.925926
     18          6           0       -3.134332    0.533992   -0.750351
     19          1           0        4.817158   -0.099869    1.138450
     20          1           0        3.779186   -1.527812    1.309063
     21          1           0        3.209560    0.043031    1.875926
     22          1           0        3.808612   -0.695624   -1.038588
     23          1           0        2.987349    1.435265   -1.729887
     24          1           0        4.147502    1.762133   -0.442664
     25          1           0        2.249954    1.963592    1.198246
     26          1           0        2.125168    3.154993   -0.077219
     27          1           0        0.224161    2.111871   -1.029538
     28          1           0       -1.077485    0.117858    0.176464
     29          1           0       -1.700944   -2.401449   -0.509917
     30          1           0        0.259331   -3.821046    0.004651
     31          1           0        2.442155   -2.839270   -0.427918
     32          1           0        0.102520    1.215736    1.756550
     33          1           0       -1.922048    2.362154    1.928197
     34          1           0       -1.908046    2.685814    0.200066
     35          1           0       -3.631689    1.183351    1.160558
     36          1           0       -3.476456   -1.171653    1.337669
     37          1           0       -2.653248   -0.315219    2.622473
     38          1           0       -0.489112   -1.133222    1.989260
     39          1           0       -1.610403   -2.483624    2.018143
     40          1           0       -3.929874   -0.217535   -0.790452
     41          1           0       -3.548707    1.470375   -1.137199
 ---------------------------------------------------------------------

 SCF Done:  E(UB3LYP) =  -1076.70101529     A.U. after   33 cycles
 SCF Done:  E(UB3LYP) =  -1076.70101529     a.u. after    1 cycles

 The electronic state is 2-A.
 Alpha  occ. eigenvalues --  -88.72489 -14.19689 -10.09945 -10.09659 -10.09274
 Alpha  occ. eigenvalues --  -10.08776 -10.07400 -10.07336 -10.07076 -10.06909
 Alpha  occ. eigenvalues --  -10.06895 -10.06558 -10.06339 -10.05779 -10.05576
 Alpha  occ. eigenvalues --  -10.05513 -10.05322 -10.04865  -7.81108  -5.77467
 Alpha  occ. eigenvalues --   -5.77163  -5.76489  -0.80805  -0.75005  -0.73208
 Alpha  occ. eigenvalues --   -0.69441  -0.67252  -0.66250  -0.63219  -0.62541
 Alpha  occ. eigenvalues --   -0.59081  -0.56734  -0.54683  -0.52655  -0.50367
 Alpha  occ. eigenvalues --   -0.49472  -0.48198  -0.44304  -0.42921  -0.39995
 Alpha  occ. eigenvalues --   -0.38606  -0.37423  -0.37310  -0.35498  -0.34825
 Alpha  occ. eigenvalues --   -0.34621  -0.32916  -0.32597  -0.31533  -0.31102
 Alpha  occ. eigenvalues --   -0.29967  -0.29395  -0.28552  -0.27968  -0.27479
 Alpha  occ. eigenvalues --   -0.27093  -0.25836  -0.25114  -0.24875  -0.24012
 Alpha  occ. eigenvalues --   -0.23170  -0.22965  -0.22418  -0.22086  -0.20183
 Alpha  occ. eigenvalues --   -0.19761  -0.19236  -0.18113  -0.12301  -0.11461
 Alpha  occ. eigenvalues --   -0.09847   0.04300
 Alpha virt. eigenvalues --    0.06035   0.06690   0.07662   0.07887   0.08686
 Alpha virt. eigenvalues --    0.08747   0.09040   0.09800   0.10334   0.10539
 Alpha virt. eigenvalues --    0.10782   0.11091   0.11628   0.12064   0.12793

  Beta  occ. eigenvalues --  -88.72479 -14.19667 -10.09930 -10.09666 -10.09261
  Beta  occ. eigenvalues --  -10.08760 -10.07405 -10.07312 -10.07087 -10.06900
  Beta  occ. eigenvalues --  -10.06887 -10.06551 -10.06335 -10.05739 -10.05549
  Beta  occ. eigenvalues --  -10.05458 -10.05171 -10.04713  -7.81097  -5.77454
  Beta  occ. eigenvalues --   -5.77150  -5.76479  -0.80738  -0.74887  -0.73150
  Beta  occ. eigenvalues --   -0.69366  -0.67139  -0.66176  -0.63155  -0.62360
  Beta  occ. eigenvalues --   -0.59031  -0.56648  -0.54626  -0.52598  -0.50289
  Beta  occ. eigenvalues --   -0.49380  -0.48066  -0.44227  -0.42833  -0.39928
  Beta  occ. eigenvalues --   -0.38505  -0.37365  -0.37261  -0.35441  -0.34759
  Beta  occ. eigenvalues --   -0.34573  -0.32848  -0.32514  -0.31465  -0.31038
  Beta  occ. eigenvalues --   -0.29901  -0.29346  -0.28470  -0.27924  -0.27416
  Beta  occ. eigenvalues --   -0.27040  -0.25770  -0.25063  -0.24812  -0.23940
  Beta  occ. eigenvalues --   -0.23110  -0.22905  -0.22385  -0.21993  -0.20057
  Beta  occ. eigenvalues --   -0.19678  -0.19135  -0.17718  -0.12198  -0.11402
  Beta  occ. eigenvalues --   -0.09231
  Beta virt. eigenvalues --    0.06535   0.07019   0.07624   0.07848   0.08145
  Beta virt. eigenvalues --    0.08892   0.09053   0.09317   0.10019   0.10371
  Beta virt. eigenvalues --    0.10741   0.10835   0.11299   0.12061   0.12172

 Mulliken charges and spin densities:
               1          2
     1  C    0.403740  -1.186772
     2  C   -0.896365   1.168424
     3  C   -0.312373  -0.214299
     4  C    0.040863   0.012596
     5  C   -0.719672  -0.598382
     6  C    0.449019   0.275418
     7  C    1.251277  -0.279530
     8  C   -0.226409   0.155250
     9  C   -0.164117  -0.102282
    10  C   -0.334484   0.083455
    11  C    0.018389   0.015765
    12  N    0.092543   0.034342
    13  C   -0.128750  -0.300102
    14  C   -0.402458   0.561740
    15  C    0.476220  -1.025334
    16  C   -0.413031   0.235151
    17  S   -0.358569   0.207751
    18  C   -0.137286  -0.745890
    19  H   -0.325842   0.466383
    20  H    0.043918   0.099757
    21  H    0.006960   0.127949
    22  H    0.006749   0.183798
    23  H    0.135065  -0.007930
    24  H   -0.062315   0.231815
    25  H    0.115894   0.010005
    26  H    0.154239   0.015791
    27  H    0.133739  -0.002421
    28  H    0.642026  -1.322505
    29  H    0.141946   0.050829
    30  H    0.120152   0.014086
    31  H    0.034710   0.096126
    32  H    0.087594   0.136980
    33  H   -0.272016   0.471301
    34  H    0.144040   0.040417
    35  H   -0.827108   1.070342
    36  H   -0.024661   0.173207
    37  H   -0.257448   0.443844
    38  H    0.152640   0.005875
    39  H    0.035010   0.175534
    40  H    0.121847   0.075454
    41  H    0.054326   0.146062
 Sum of Mulliken charges =  -1.00000   1.00000

 Dipole moment (field-independent basis, Debye):
    X=              1.7860    Y=             -1.0677    Z=             -2.8800  Tot=              3.5530
 Quadrupole moment (field-independent basis, Debye-Ang):
   XX=           -196.6990   YY=           -150.5003   ZZ=           -159.8761
   XY=              8.3780   XZ=              7.5476   YZ=             -7.7253

 Summary of Natural Population Analysis:

                                       Natural Population
                Natural  -----------------------------------------------
    Atom  No    Charge         Core      Valence    Rydberg      Total
 -----------------------------------------------------------------------
      C    1   -0.28167      0.99965     2.27627    0.00576     3.28167
      C    2   -0.11625      0.99957     2.10628    0.01040     3.11625
      C    3   -0.18589      0.99962     2.17764    0.00862     3.18589
      C    4   -0.18761      0.99962     2.17781    0.01017     3.18761
      C    5   -0.01743      0.99954     2.00540    0.01249     3.01743
      C    6    0.01449      0.99937     1.97501    0.01114     2.98551
      C    7   -0.22252      0.99931     2.21017    0.01303     3.22252
      C    8   -0.13075      0.99954     2.11925    0.01196     3.13075
      C    9   -0.05050      0.99954     2.04117    0.00979     3.05050
      C   10   -0.10597      0.99951     2.09736    0.00909     3.10597
      C   11   -0.01770      0.99939     2.00784    0.01046     3.01770
      N   12   -0.34162      0.99974     2.83165    0.01023     3.84162
      C   13   -0.08738      0.99958     2.07434    0.01346     3.08738
      C   14   -0.14702      0.99955     2.13246    0.01500     3.14702
      C   15   -0.19168      0.99960     2.18181    0.01027     3.19168
      C   16   -0.18042      0.99960     2.17197    0.00885     3.18042
      S   17    0.08120      4.99960     2.90416    0.01505     7.91880
      C   18   -0.24403      0.99953     2.23394    0.01056     3.24403
      H   19    0.09658      0.00000     0.40201    0.00141     0.40342
      H   20    0.10083      0.00000     0.39831    0.00085     0.39917
      H   21    0.09588      0.00000     0.40311    0.00101     0.40412
      H   22    0.09701      0.00000     0.40113    0.00186     0.40299
      H   23    0.09685      0.00000     0.40220    0.00095     0.40315
      H   24    0.09698      0.00000     0.40214    0.00088     0.40302
      H   25    0.09611      0.00000     0.40246    0.00143     0.40389
      H   26    0.09812      0.00000     0.40101    0.00087     0.40188
      H   27    0.10082      0.00000     0.39755    0.00163     0.39918
      H   28    0.16659      0.00000     0.32772    0.00569     0.33341
      H   29    0.10601      0.00000     0.39251    0.00148     0.39399
      H   30    0.09038      0.00000     0.40875    0.00087     0.40962
      H   31    0.09368      0.00000     0.40497    0.00135     0.40632
      H   32    0.17259      0.00000     0.32465    0.00276     0.32741
      H   33    0.10094      0.00000     0.39770    0.00135     0.39906
      H   34    0.09423      0.00000     0.40452    0.00124     0.40577
      H   35    0.11637      0.00000     0.37962    0.00401     0.38363
      H   36    0.09689      0.00000     0.40182    0.00130     0.40311
      H   37    0.10528      0.00000     0.39298    0.00174     0.39472
      H   38    0.09353      0.00000     0.40479    0.00168     0.40647
      H   39    0.09810      0.00000     0.40101    0.00089     0.40190
      H   40    0.09778      0.00000     0.40059    0.00163     0.40222
      H   41    0.10120      0.00000     0.39766    0.00114     0.39880
 =======================================================================
   * Total *   -0.00000     21.99188    48.77377    0.23435    71.00000

 Normal termination of Gaussian 16 at Fri Dec 11 23:24:27 2020.
