 Gaussian 16, Revision A.03,

 -----------------------------------------------------------
 # opt freq B3LYP/6-31G(d) empiricaldispersion=gd3bj scf=xqc
 -----------------------------------------------------------

 ------------------------------
 CID_11241162_JID_5369_neutraal
 ------------------------------
 Symbolic Z-matrix:
 Charge =  0 Multiplicity = 1

 SCF Done:  E(RB3LYP) =  -620.809328621     A.U. after   14 cycles
 SCF Done:  E(RB3LYP) =  -620.811688884     A.U. after   12 cycles
 SCF Done:  E(RB3LYP) =  -620.811605159     A.U. after   12 cycles
 SCF Done:  E(RB3LYP) =  -620.812128907     A.U. after   11 cycles
 SCF Done:  E(RB3LYP) =  -620.811797963     A.U. after   12 cycles
 SCF Done:  E(RB3LYP) =  -620.812239195     A.U. after   12 cycles
 SCF Done:  E(RB3LYP) =  -620.812261607     A.U. after   10 cycles
 SCF Done:  E(RB3LYP) =  -620.812262605     A.U. after    8 cycles
 SCF Done:  E(RB3LYP) =  -620.812262808     A.U. after    7 cycles
 Optimization completed.
    -- Stationary point found.
 Normal termination of Gaussian 16 at Thu Dec 10 15:43:30 2020.

 --------------------------------------------------------------------
 #N Geom=AllCheck Guess=TCheck SCRF=Check GenChk RB3LYP/6-31G(d) Freq
 --------------------------------------------------------------------

 Structure from the checkpoint file:  "JID_5369.chk"
 ------------------------------
 CID_11241162_JID_5369_neutraal
 ------------------------------
 Charge =  0 Multiplicity = 1

 SCF Done:  E(RB3LYP) =  -620.812262808     A.U. after    1 cycles

  Exact polarizability: 166.090   4.574 144.858   3.846  -3.858 108.765
 Approx polarizability: 226.142  22.349 234.803   5.513 -13.359 170.497

                      1                      2                      3
                      A                      A                      A
 Frequencies --     71.4277                95.5037               111.2923
 Red. masses --      4.7450                 3.2274                 2.8372
 Frc consts  --      0.0143                 0.0173                 0.0207
 IR Inten    --      2.1165                 0.5758                 0.2542

                      4                      5                      6
                      A                      A                      A
 Frequencies --    155.1294               196.6253               214.0287
 Red. masses --      1.0521                 1.6269                 2.0164
 Frc consts  --      0.0149                 0.0371                 0.0544
 IR Inten    --      0.4373                 0.3787                 0.2204

                      7                      8                      9
                      A                      A                      A
 Frequencies --    232.7077               241.8417               257.8188
 Red. masses --      2.2843                 1.8132                 2.9480
 Frc consts  --      0.0729                 0.0625                 0.1155
 IR Inten    --      0.5943                 0.3192                 0.0453

                     10                     11                     12
                      A                      A                      A
 Frequencies --    273.9043               289.6089               304.6924
 Red. masses --      2.1690                 1.3650                 2.3504
 Frc consts  --      0.0959                 0.0675                 0.1286
 IR Inten    --      1.1573                 0.0741                 2.2276

                     13                     14                     15
                      A                      A                      A
 Frequencies --    309.2447               331.6797               339.5049
 Red. masses --      1.5009                 2.2133                 1.8315
 Frc consts  --      0.0846                 0.1435                 0.1244
 IR Inten    --      0.3535                 2.3742                 0.6550

                     16                     17                     18
                      A                      A                      A
 Frequencies --    351.3040               384.6706               400.4951
 Red. masses --      3.6441                 2.4209                 2.9759
 Frc consts  --      0.2650                 0.2111                 0.2812
 IR Inten    --      5.0119                 1.2415                 0.8894

                     19                     20                     21
                      A                      A                      A
 Frequencies --    433.5532               464.2552               492.2175
 Red. masses --      4.3964                 3.1693                 3.0639
 Frc consts  --      0.4869                 0.4025                 0.4374
 IR Inten    --      1.8605                 1.0170                 1.6204

                     22                     23                     24
                      A                      A                      A
 Frequencies --    511.7713               516.6557               597.6313
 Red. masses --      2.8992                 3.5050                 3.3708
 Frc consts  --      0.4474                 0.5512                 0.7093
 IR Inten    --      1.4720                 1.5229                 2.0229

                     25                     26                     27
                      A                      A                      A
 Frequencies --    654.5568               667.1907               730.7402
 Red. masses --      3.9768                 2.6043                 1.8330
 Frc consts  --      1.0039                 0.6830                 0.5767
 IR Inten    --      1.2861                 1.7847                23.4729

                     28                     29                     30
                      A                      A                      A
 Frequencies --    762.6079               770.3616               825.7125
 Red. masses --      2.8519                 3.5973                 3.0697
 Frc consts  --      0.9772                 1.2578                 1.2331
 IR Inten    --      3.8770                 0.8970                 3.7811

                     31                     32                     33
                      A                      A                      A
 Frequencies --    859.0000               866.0175               909.3755
 Red. masses --      1.9737                 2.1628                 2.3211
 Frc consts  --      0.8581                 0.9557                 1.1309
 IR Inten    --      4.9477                 5.9772                 0.4281

                     34                     35                     36
                      A                      A                      A
 Frequencies --    917.7470               959.5601               963.9557
 Red. masses --      2.0665                 1.5923                 1.5560
 Frc consts  --      1.0255                 0.8638                 0.8519
 IR Inten    --      6.3140                 1.0159                 1.2682

                     37                     38                     39
                      A                      A                      A
 Frequencies --    977.6534               985.6882              1003.4494
 Red. masses --      1.6760                 2.1438                 1.4503
 Frc consts  --      0.9439                 1.2272                 0.8604
 IR Inten    --      7.9135                 5.7709                 1.1840

                     40                     41                     42
                      A                      A                      A
 Frequencies --   1012.3066              1023.2425              1039.2636
 Red. masses --      1.7364                 1.7255                 2.1228
 Frc consts  --      1.0484                 1.0644                 1.3508
 IR Inten    --      2.4950                 5.6879                47.2499

                     43                     44                     45
                      A                      A                      A
 Frequencies --   1044.7072              1077.7273              1084.8932
 Red. masses --      1.4686                 1.6879                 1.5403
 Frc consts  --      0.9444                 1.1551                 1.0682
 IR Inten    --      1.5432                14.2291                 2.6547

                     46                     47                     48
                      A                      A                      A
 Frequencies --   1103.9974              1118.4723              1159.5751
 Red. masses --      2.4793                 2.4354                 1.8867
 Frc consts  --      1.7804                 1.7950                 1.4947
 IR Inten    --      0.9521                 4.1270                 4.4412

                     49                     50                     51
                      A                      A                      A
 Frequencies --   1176.9999              1211.0879              1219.2120
 Red. masses --      1.5191                 2.5493                 1.3617
 Frc consts  --      1.2399                 2.2031                 1.1925
 IR Inten    --      0.2829                 6.1972                 0.6323

                     52                     53                     54
                      A                      A                      A
 Frequencies --   1229.3595              1250.7420              1269.6412
 Red. masses --      2.0993                 2.0964                 1.7095
 Frc consts  --      1.8693                 1.9323                 1.6236
 IR Inten    --      2.5418                13.3401                 3.7271

                     55                     56                     57
                      A                      A                      A
 Frequencies --   1295.3973              1313.6217              1364.4471
 Red. masses --      2.0304                 1.8880                 1.4958
 Frc consts  --      2.0075                 1.9195                 1.6407
 IR Inten    --      6.0574                 4.4505                 2.8872

                     58                     59                     60
                      A                      A                      A
 Frequencies --   1382.3218              1391.0196              1396.1625
 Red. masses --      1.5515                 1.5524                 1.7932
 Frc consts  --      1.7467                 1.7698                 2.0595
 IR Inten    --      2.4428                 4.3113                22.2717

                     61                     62                     63
                      A                      A                      A
 Frequencies --   1414.6197              1424.1262              1430.4908
 Red. masses --      1.4323                 1.4610                 1.2742
 Frc consts  --      1.6887                 1.7459                 1.5362
 IR Inten    --      2.3340                 3.0430                 6.3192

                     64                     65                     66
                      A                      A                      A
 Frequencies --   1438.9330              1443.5559              1451.4217
 Red. masses --      1.3309                 1.2748                 1.2423
 Frc consts  --      1.6236                 1.5652                 1.5419
 IR Inten    --     10.3382                 1.4529                 9.7978

                     67                     68                     69
                      A                      A                      A
 Frequencies --   1502.0185              1503.1346              1506.6406
 Red. masses --      1.0533                 1.0810                 1.0840
 Frc consts  --      1.4000                 1.4391                 1.4498
 IR Inten    --      4.5040                 4.3691                 1.3736

                     70                     71                     72
                      A                      A                      A
 Frequencies --   1517.3356              1518.0971              1523.8310
 Red. masses --      1.0593                 1.0531                 1.0569
 Frc consts  --      1.4369                 1.4299                 1.4460
 IR Inten    --      9.8847                 1.2962                 5.8376

                     73                     74                     75
                      A                      A                      A
 Frequencies --   1530.8971              1535.8740              1540.4640
 Red. masses --      1.0540                 1.0568                 1.0523
 Frc consts  --      1.4554                 1.4688                 1.4713
 IR Inten    --      2.1579                 1.1849                 4.6097

                     76                     77                     78
                      A                      A                      A
 Frequencies --   1554.0197              1718.5051              1742.4838
 Red. masses --      1.0543                 6.6994                 6.9564
 Frc consts  --      1.5001                11.6571                12.4443
 IR Inten    --      8.7647                 8.6551                 0.3860

                     79                     80                     81
                      A                      A                      A
 Frequencies --   1767.0025              2989.4779              3003.4722
 Red. masses --     12.5816                 1.0816                 1.0672
 Frc consts  --     23.1453                 5.6954                 5.6722
 IR Inten    --    182.7982                10.3137                36.0562

                     82                     83                     84
                      A                      A                      A
 Frequencies --   3021.5761              3040.4540              3043.6037
 Red. masses --      1.0698                 1.0361                 1.0923
 Frc consts  --      5.7546                 5.6430                 5.9617
 IR Inten    --     19.5109                24.6650                23.3829

                     85                     86                     87
                      A                      A                      A
 Frequencies --   3053.0122              3055.2387              3070.6908
 Red. masses --      1.0399                 1.0352                 1.0392
 Frc consts  --      5.7107                 5.6936                 5.7735
 IR Inten    --     32.0331                22.8492                22.0250

                     88                     89                     90
                      A                      A                      A
 Frequencies --   3076.9491              3104.3798              3110.0666
 Red. masses --      1.0903                 1.1020                 1.1008
 Frc consts  --      6.0817                 6.2571                 6.2736
 IR Inten    --     24.2061                16.3263                50.6233

                     91                     92                     93
                      A                      A                      A
 Frequencies --   3112.3498              3114.7683              3130.0339
 Red. masses --      1.1001                 1.1009                 1.1012
 Frc consts  --      6.2784                 6.2931                 6.3567
 IR Inten    --     12.3887                35.0393                19.2436

                     94                     95                     96
                      A                      A                      A
 Frequencies --   3134.2007              3142.5535              3152.0133
 Red. masses --      1.1039                 1.1002                 1.0898
 Frc consts  --      6.3893                 6.4017                 6.3793
 IR Inten    --     13.6586                20.0326                39.1172

                     97                     98                     99
                      A                      A                      A
 Frequencies --   3158.1254              3182.8296              3200.2916
 Red. masses --      1.0872                 1.0965                 1.0932
 Frc consts  --      6.3888                 6.5449                 6.5967
 IR Inten    --     22.9922                15.8169                16.0618

 - Thermochemistry -
 -------------------
 Temperature   298.150 Kelvin.  Pressure   1.00000 Atm.
 Atom     1 has atomic number  6 and mass  12.00000

 Molecular mass:   204.15142 amu.
 Principal axes and moments of inertia in atomic units:
                           1         2         3
     Eigenvalues --  1760.688923561.095314344.10753
           X            0.99999  -0.00482   0.00184
           Y            0.00478   0.99984   0.01717
           Z           -0.00192  -0.01716   0.99985
 This molecule is an asymmetric top.
 Rotational symmetry number  1.
 Warning -- assumption of classical behavior for rotation
           may cause significant error
 Rotational temperatures (Kelvin)      0.04919     0.02432     0.01994
 Rotational constants (GHZ):           1.02502     0.50679     0.41545
 Zero-point vibrational energy     816779.8 (Joules/Mol)
                                  195.21505 (Kcal/Mol)
 Warning -- explicit consideration of  24 degrees of freedom as
           vibrations may cause significant error
 Vibrational temperatures:    102.77   137.41   160.12   223.20   282.90
          (Kelvin)            307.94   334.81   347.96   370.94   394.09
                              416.68   438.38   444.93   477.21   488.47
                              505.45   553.46   576.22   623.79   667.96
                              708.19   736.32   743.35   859.86   941.76
                              959.94  1051.37  1097.22  1108.38  1188.02
                             1235.91  1246.01  1308.39  1320.43  1380.59
                             1386.92  1406.63  1418.19  1443.74  1456.48
                             1472.22  1495.27  1503.10  1550.61  1560.92
                             1588.41  1609.23  1668.37  1693.44  1742.49
                             1754.17  1768.77  1799.54  1826.73  1863.79
                             1890.01  1963.14  1988.85  2001.37  2008.77
                             2035.32  2049.00  2058.16  2070.30  2076.95
                             2088.27  2161.07  2162.68  2167.72  2183.11
                             2184.20  2192.45  2202.62  2209.78  2216.38
                             2235.89  2472.55  2507.05  2542.32  4301.19
                             4321.33  4347.37  4374.54  4379.07  4392.60
                             4395.81  4418.04  4427.04  4466.51  4474.69
                             4477.98  4481.46  4503.42  4509.42  4521.43
                             4535.04  4543.84  4579.38  4604.51

 Zero-point correction=                           0.311095 (Hartree/Particle)
 Thermal correction to Energy=                    0.325729
 Thermal correction to Enthalpy=                  0.326673
 Thermal correction to Gibbs Free Energy=         0.271619
 Sum of electronic and zero-point Energies=           -620.501168
 Sum of electronic and thermal Energies=              -620.486534
 Sum of electronic and thermal Enthalpies=            -620.485589
 Sum of electronic and thermal Free Energies=         -620.540644

                     E (Thermal)             CV                S
                      KCal/Mol        Cal/Mol-Kelvin    Cal/Mol-Kelvin
 Total                  204.398             59.324            115.872
 Electronic               0.000              0.000              0.000
 Translational            0.889              2.981             41.845
 Rotational               0.889              2.981             31.677
 Vibrational            202.621             53.363             42.350
 Vibration     1          0.598              1.968              4.114
 Vibration     2          0.603              1.952              3.544
 Vibration     3          0.607              1.940              3.246
 Vibration     4          0.620              1.897              2.608
 Vibration     5          0.636              1.845              2.164
 Vibration     6          0.644              1.820              2.009
 Vibration     7          0.653              1.791              1.858
 Vibration     8          0.658              1.776              1.789
 Vibration     9          0.667              1.750              1.676
 Vibration    10          0.676              1.722              1.571
 Vibration    11          0.686              1.693              1.476
 Vibration    12          0.696              1.665              1.391
 Vibration    13          0.699              1.656              1.366
 Vibration    14          0.714              1.612              1.252
 Vibration    15          0.719              1.597              1.214
 Vibration    16          0.728              1.573              1.160
 Vibration    17          0.754              1.503              1.021
 Vibration    18          0.766              1.469              0.961
 Vibration    19          0.794              1.397              0.847
 Vibration    20          0.822              1.329              0.754
 Vibration    21          0.848              1.267              0.678
 Vibration    22          0.867              1.224              0.629
 Vibration    23          0.872              1.213              0.618
 Vibration    24          0.956              1.037              0.454

                           ! Non-Optimized Parameters !
 Normal termination of Gaussian 16 at Thu Dec 10 15:56:35 2020.

 ----------------------------------------------------------------------
 # B3LYP/6-311++G(d,p) empiricaldispersion=gd3bj scf=xqc pop=npa geom=c
 heck
 ----------------------------------------------------------------------

 --------------------------------------
 CID_11241162_JID_5369_Energie_neutraal
 --------------------------------------
 Structure from the checkpoint file:  "JID_5369.chk"
 Charge =  0 Multiplicity = 1

 SCF Done:  E(RB3LYP) =  -620.979206556     A.U. after   15 cycles
 Normal termination of Gaussian 16 at Thu Dec 10 16:02:22 2020.

 ----------------------------------------------------------------------
 # B3LYP/6-311++G(d,p) empiricaldispersion=gd3bj scf=xqc pop=npa geom=c
 heck
 ----------------------------------------------------------------------

 ------------------------------------
 CID_11241162_JID_5369_Energie_kation
 ------------------------------------
 Structure from the checkpoint file:  "JID_5369.chk"
 Charge =  1 Multiplicity = 2

 SCF Done:  E(UB3LYP) =  -620.674648876     A.U. after   24 cycles
 Normal termination of Gaussian 16 at Thu Dec 10 16:18:58 2020.
 Gaussian 16:  ES64L-G16RevA.03 25-Dec-2016

 ----------------------------------------------------------------------
 # B3LYP/6-311++G(d,p) empiricaldispersion=gd3bj scf=xqc pop=npa geom=c
 heck
 ----------------------------------------------------------------------

 -----------------------------------
 CID_11241162_JID_5369_Energie_anion
 -----------------------------------
 Structure from the checkpoint file:  "JID_5369.chk"
 Charge = -1 Multiplicity = 2

                         Standard orientation:
 ---------------------------------------------------------------------
 Center     Atomic      Atomic             Coordinates (Angstroms)
 Number     Number       Type             X           Y           Z
 ---------------------------------------------------------------------
      1          6           0        3.867376   -0.611022   -0.480086
      2          6           0        2.390126   -0.632039   -0.199819
      3          6           0        1.693879   -1.758263    0.041436
      4          6           0        0.207256   -1.810377    0.251525
      5          6           0       -0.463503   -0.524490   -0.241285
      6          6           0       -2.015059   -0.483784   -0.157243
      7          6           0       -2.478570    0.777172   -0.922932
      8          6           0       -1.652744    2.003545   -0.636147
      9          6           0       -0.437434    1.981786   -0.085604
     10          6           0        0.256173    0.717615    0.349419
     11          6           0        1.709007    0.693974   -0.169701
     12          8           0        2.315811    1.716823   -0.451211
     13          6           0        0.420681    0.732895    1.897452
     14          6           0       -2.604083   -1.721065   -0.857892
     15          6           0       -2.568918   -0.432192    1.278729
     16          1           0        4.067396   -0.163085   -1.459653
     17          1           0        4.288575   -1.620603   -0.460954
     18          1           0        4.395743    0.008528    0.253217
     19          1           0        2.226473   -2.709061    0.065963
     20          1           0       -0.011189   -1.993851    1.314552
     21          1           0       -0.189699   -2.680946   -0.283167
     22          1           0       -0.249573   -0.482225   -1.321131
     23          1           0       -2.450389    0.577368   -2.005960
     24          1           0       -3.534857    0.972776   -0.690789
     25          1           0       -2.082739    2.959650   -0.931263
     26          1           0        0.117122    2.903541    0.065612
     27          1           0        0.959387   -0.147485    2.260304
     28          1           0        1.002403    1.616603    2.179635
     29          1           0       -0.540616    0.788098    2.407139
     30          1           0       -2.450065   -2.634636   -0.273558
     31          1           0       -3.685178   -1.598202   -0.992837
     32          1           0       -2.157865   -1.870573   -1.848702
     33          1           0       -2.425672    0.551480    1.731715
     34          1           0       -3.646955   -0.631593    1.265408
     35          1           0       -2.103904   -1.182905    1.927036
 ---------------------------------------------------------------------

 SCF Done:  E(UB3LYP) =  -620.976720061     A.U. after   33 cycles
 SCF Done:  E(UB3LYP) =  -620.976720061     a.u. after    1 cycles

 The electronic state is 2-A.
 Alpha  occ. eigenvalues --  -18.93351 -10.07471 -10.07147 -10.05817 -10.05572
 Alpha  occ. eigenvalues --  -10.05182 -10.05164 -10.05044 -10.04516 -10.04449
 Alpha  occ. eigenvalues --  -10.04433 -10.03848 -10.03518 -10.02451 -10.02186
 Alpha  occ. eigenvalues --   -0.87400  -0.74210  -0.68839  -0.67002  -0.63808
 Alpha  occ. eigenvalues --   -0.60985  -0.57753  -0.56333  -0.55766  -0.53331
 Alpha  occ. eigenvalues --   -0.47290  -0.46721  -0.42629  -0.38498  -0.37546
 Alpha  occ. eigenvalues --   -0.35674  -0.35611  -0.33176  -0.32084  -0.31163
 Alpha  occ. eigenvalues --   -0.30478  -0.30175  -0.29422  -0.28292  -0.27976
 Alpha  occ. eigenvalues --   -0.27360  -0.27058  -0.26497  -0.25179  -0.24710
 Alpha  occ. eigenvalues --   -0.24010  -0.23276  -0.23119  -0.22712  -0.21309
 Alpha  occ. eigenvalues --   -0.19559  -0.18671  -0.17372  -0.13298  -0.11833
 Alpha  occ. eigenvalues --   -0.08875   0.04958
 Alpha virt. eigenvalues --    0.06832   0.08286   0.08665   0.08886   0.09693
 Alpha virt. eigenvalues --    0.10348   0.10978   0.11088   0.11151   0.12397
 Alpha virt. eigenvalues --    0.12589   0.12902   0.13284   0.13570   0.14131

  Beta  occ. eigenvalues --  -18.92929 -10.07170 -10.07146 -10.05805 -10.05596
  Beta  occ. eigenvalues --  -10.05172 -10.05152 -10.05043 -10.04488 -10.04471
  Beta  occ. eigenvalues --  -10.04429 -10.03816 -10.03521 -10.02425 -10.01817
  Beta  occ. eigenvalues --   -0.86625  -0.74150  -0.68580  -0.66919  -0.63706
  Beta  occ. eigenvalues --   -0.60846  -0.57698  -0.56294  -0.55571  -0.53082
  Beta  occ. eigenvalues --   -0.47047  -0.46465  -0.42308  -0.38413  -0.37444
  Beta  occ. eigenvalues --   -0.35581  -0.35434  -0.33072  -0.32044  -0.31008
  Beta  occ. eigenvalues --   -0.30370  -0.29894  -0.29107  -0.28187  -0.27875
  Beta  occ. eigenvalues --   -0.27179  -0.26912  -0.26388  -0.25079  -0.24617
  Beta  occ. eigenvalues --   -0.23864  -0.23121  -0.23029  -0.22589  -0.20160
  Beta  occ. eigenvalues --   -0.19271  -0.18212  -0.17319  -0.13253  -0.10219
  Beta  occ. eigenvalues --   -0.08541
  Beta virt. eigenvalues --    0.07108   0.08407   0.08848   0.08937   0.09842
  Beta virt. eigenvalues --    0.10340   0.10548   0.11042   0.11297   0.11485
  Beta virt. eigenvalues --    0.12474   0.12605   0.12943   0.13452   0.13544

 Mulliken charges and spin densities:
               1          2
     1  C   -0.176414  -0.133826
     2  C    1.009273  -0.170204
     3  C   -1.152972   0.450282
     4  C    0.112874  -0.573114
     5  C    0.577858  -0.359614
     6  C   -0.497645   1.249830
     7  C   -0.676007   0.006447
     8  C   -0.180177  -0.194924
     9  C   -0.472901   0.319708
    10  C    1.119401  -0.106812
    11  C   -1.133494   0.252986
    12  O   -0.352644   0.150014
    13  C   -0.511624  -0.280255
    14  C    0.076485  -0.608776
    15  C    0.233698  -1.027226
    16  H    0.135283   0.027443
    17  H    0.102780   0.002800
    18  H    0.146857  -0.002952
    19  H    0.063069   0.055136
    20  H    0.103741   0.061599
    21  H    0.046358   0.076434
    22  H    0.245563  -0.001285
    23  H    0.088741   0.056068
    24  H   -0.018586   0.179510
    25  H   -0.020852   0.165430
    26  H    0.184040   0.013173
    27  H    0.129964   0.009221
    28  H    0.159390   0.012620
    29  H    0.000189   0.112754
    30  H    0.008041   0.145899
    31  H   -0.092637   0.238358
    32  H    0.002144   0.145888
    33  H    0.132073   0.024342
    34  H   -0.260784   0.403303
    35  H   -0.131086   0.299742
 Sum of Mulliken charges =  -1.00000   1.00000

 Dipole moment (field-independent basis, Debye):
    X=             -0.9552    Y=             -0.9485    Z=              0.3285  Tot=              1.3856
 Quadrupole moment (field-independent basis, Debye-Ang):
   XX=           -145.0756   YY=           -122.7064   ZZ=           -114.8238
   XY=             -8.2047   XZ=              6.8142   YZ=              1.8400

 Summary of Natural Population Analysis:

                                       Natural Population
                Natural  -----------------------------------------------
    Atom  No    Charge         Core      Valence    Rydberg      Total
 -----------------------------------------------------------------------
      C    1   -0.28737      0.99964     2.28218    0.00555     3.28737
      C    2   -0.06944      0.99944     2.05871    0.01130     3.06944
      C    3    0.00176      0.99950     1.98919    0.00955     2.99824
      C    4   -0.21138      0.99960     2.20228    0.00950     3.21138
      C    5   -0.09546      0.99954     2.08360    0.01231     3.09546
      C    6   -0.03930      0.99956     2.02738    0.01236     3.03930
      C    7   -0.20256      0.99958     2.19260    0.01038     3.20256
      C    8   -0.10322      0.99952     2.09266    0.01103     3.10322
      C    9   -0.07496      0.99951     2.06407    0.01138     3.07496
      C   10   -0.08856      0.99950     2.07741    0.01164     3.08856
      C   11    0.31647      0.99955     1.66070    0.02328     2.68353
      O   12   -0.27011      0.99988     3.26430    0.00593     4.27011
      C   13   -0.27919      0.99963     2.27294    0.00662     3.27919
      C   14   -0.28314      0.99963     2.27600    0.00751     3.28314
      C   15   -0.28736      0.99962     2.28052    0.00722     3.28736
      H   16    0.10213      0.00000     0.39631    0.00156     0.39787
      H   17    0.09077      0.00000     0.40813    0.00110     0.40923
      H   18    0.09995      0.00000     0.39895    0.00110     0.40005
      H   19    0.08169      0.00000     0.41727    0.00104     0.41831
      H   20    0.10344      0.00000     0.39532    0.00124     0.39656
      H   21    0.10165      0.00000     0.39711    0.00124     0.39835
      H   22    0.10092      0.00000     0.39725    0.00184     0.39908
      H   23    0.10043      0.00000     0.39854    0.00103     0.39957
      H   24    0.09928      0.00000     0.39958    0.00114     0.40072
      H   25    0.09185      0.00000     0.40713    0.00102     0.40815
      H   26    0.10546      0.00000     0.39291    0.00163     0.39454
      H   27    0.10280      0.00000     0.39652    0.00068     0.39720
      H   28    0.10089      0.00000     0.39827    0.00084     0.39911
      H   29    0.09781      0.00000     0.40128    0.00091     0.40219
      H   30    0.09959      0.00000     0.39945    0.00096     0.40041
      H   31    0.09695      0.00000     0.40221    0.00083     0.40305
      H   32    0.09877      0.00000     0.40045    0.00079     0.40123
      H   33    0.10221      0.00000     0.39684    0.00096     0.39779
      H   34    0.09628      0.00000     0.40277    0.00095     0.40372
      H   35    0.10096      0.00000     0.39810    0.00094     0.39904
 =======================================================================
   * Total *    0.00000     14.99370    40.82896    0.17733    56.00000

 Normal termination of Gaussian 16 at Thu Dec 10 16:36:04 2020.
