 Gaussian 16, Revision A.03,

 -----------------------------------------------------------
 # opt freq B3LYP/6-31G(d) empiricaldispersion=gd3bj scf=xqc
 -----------------------------------------------------------

 -------------------------------
 CID_118297504_JID_1057_neutraal
 -------------------------------
 Symbolic Z-matrix:
 Charge =  0 Multiplicity = 1

 SCF Done:  E(RB3LYP) =  -571.058740044     A.U. after   14 cycles
 SCF Done:  E(RB3LYP) =  -571.060017941     A.U. after   13 cycles
 SCF Done:  E(RB3LYP) =  -571.041650985     A.U. after   15 cycles
 SCF Done:  E(RB3LYP) =  -571.054689478     A.U. after   14 cycles
 SCF Done:  E(RB3LYP) =  -571.060670630     A.U. after   11 cycles
 SCF Done:  E(RB3LYP) =  -571.062450845     A.U. after   12 cycles
 SCF Done:  E(RB3LYP) =  -571.062321648     A.U. after   13 cycles
 SCF Done:  E(RB3LYP) =  -571.063266228     A.U. after   13 cycles
 SCF Done:  E(RB3LYP) =  -571.063534091     A.U. after   12 cycles
 SCF Done:  E(RB3LYP) =  -571.063691431     A.U. after   11 cycles
 SCF Done:  E(RB3LYP) =  -571.075749191     A.U. after   12 cycles
 SCF Done:  E(RB3LYP) =  -571.075819084     A.U. after    9 cycles
 SCF Done:  E(RB3LYP) =  -571.075823372     A.U. after   10 cycles
 SCF Done:  E(RB3LYP) =  -571.075825732     A.U. after    8 cycles
 SCF Done:  E(RB3LYP) =  -571.075826152     A.U. after    8 cycles
 SCF Done:  E(RB3LYP) =  -571.075826186     A.U. after    8 cycles
 Optimization completed.
    -- Stationary point found.
 Normal termination of Gaussian 16 at Tue Dec  8 19:32:55 2020.

 --------------------------------------------------------------------
 #N Geom=AllCheck Guess=TCheck SCRF=Check GenChk RB3LYP/6-31G(d) Freq
 --------------------------------------------------------------------

 Structure from the checkpoint file:  "JID_1057.chk"
 -------------------------------
 CID_118297504_JID_1057_neutraal
 -------------------------------
 Charge =  0 Multiplicity = 1

 SCF Done:  E(RB3LYP) =  -571.075826186     A.U. after    1 cycles

  Exact polarizability:  96.828  -1.771  85.920  -1.986   0.063  70.083
 Approx polarizability: 134.666  -2.098 130.049  -2.210  -0.677 104.248

                      1                      2                      3
                      A                      A                      A
 Frequencies --     34.7783                72.2099               105.5631
 Red. masses --      3.8301                 6.6510                 4.4247
 Frc consts  --      0.0027                 0.0204                 0.0291
 IR Inten    --      2.2983                 2.4171                 0.9392

                      4                      5                      6
                      A                      A                      A
 Frequencies --    110.3417               143.7693               179.0870
 Red. masses --      4.3265                 5.7088                 5.3702
 Frc consts  --      0.0310                 0.0695                 0.1015
 IR Inten    --      0.9493                 7.2611                 3.1890

                      7                      8                      9
                      A                      A                      A
 Frequencies --    221.8693               253.0523               293.2843
 Red. masses --      1.0623                 4.4356                 2.0486
 Frc consts  --      0.0308                 0.1673                 0.1038
 IR Inten    --      1.2613                 2.7527                 1.7668

                     10                     11                     12
                      A                      A                      A
 Frequencies --    341.3699               379.6693               409.5135
 Red. masses --      3.5924                 3.1045                 2.3454
 Frc consts  --      0.2467                 0.2637                 0.2317
 IR Inten    --      1.4408                18.8912                 3.2723

                     13                     14                     15
                      A                      A                      A
 Frequencies --    414.3229               467.4892               532.5705
 Red. masses --      2.5283                 2.5701                 2.5276
 Frc consts  --      0.2557                 0.3309                 0.4224
 IR Inten    --      7.7044                 5.5915                 1.0405

                     16                     17                     18
                      A                      A                      A
 Frequencies --    599.6331               623.5316               701.7222
 Red. masses --      3.5741                 3.6846                 4.2131
 Frc consts  --      0.7572                 0.8440                 1.2223
 IR Inten    --     26.3878                13.8583                22.9239

                     19                     20                     21
                      A                      A                      A
 Frequencies --    788.0353               803.8069               842.7234
 Red. masses --      1.3250                 1.4232                 2.5211
 Frc consts  --      0.4848                 0.5418                 1.0549
 IR Inten    --    145.1668               142.4411                 3.3945

                     22                     23                     24
                      A                      A                      A
 Frequencies --    894.3014               907.0465               959.4169
 Red. masses --      4.3705                 2.2692                 2.3171
 Frc consts  --      2.0594                 1.1000                 1.2566
 IR Inten    --     23.6648                 1.0785                 8.4708

                     25                     26                     27
                      A                      A                      A
 Frequencies --   1016.4526              1022.8024              1034.2051
 Red. masses --      1.9215                 1.8059                 1.7485
 Frc consts  --      1.1697                 1.1131                 1.1019
 IR Inten    --     11.0336                 3.5387                13.5811

                     28                     29                     30
                      A                      A                      A
 Frequencies --   1074.4041              1104.7883              1159.8371
 Red. masses --      1.9124                 2.0256                 1.3938
 Frc consts  --      1.3007                 1.4567                 1.1047
 IR Inten    --     17.5753                22.1053                12.9942

                     31                     32                     33
                      A                      A                      A
 Frequencies --   1184.8554              1213.2878              1249.3910
 Red. masses --      2.2771                 1.5830                 1.9150
 Frc consts  --      1.8835                 1.3730                 1.7613
 IR Inten    --     22.0614                12.1413                 8.8185

                     34                     35                     36
                      A                      A                      A
 Frequencies --   1265.3799              1315.1320              1318.6251
 Red. masses --      1.5537                 1.4147                 1.6735
 Frc consts  --      1.4657                 1.4417                 1.7145
 IR Inten    --     26.3426                33.7309                14.3304

                     37                     38                     39
                      A                      A                      A
 Frequencies --   1336.4868              1350.7177              1387.2632
 Red. masses --      1.7535                 1.9736                 1.5162
 Frc consts  --      1.8454                 2.1215                 1.7192
 IR Inten    --     44.1482               192.1143                48.3749

                     40                     41                     42
                      A                      A                      A
 Frequencies --   1399.5129              1420.7166              1428.5844
 Red. masses --      1.5071                 1.3372                 1.2332
 Frc consts  --      1.7392                 1.5902                 1.4828
 IR Inten    --     49.5568                 0.5207                26.6487

                     43                     44                     45
                      A                      A                      A
 Frequencies --   1478.7360              1490.2666              1510.4648
 Red. masses --      1.5004                 1.1742                 1.0887
 Frc consts  --      1.9331                 1.5364                 1.4634
 IR Inten    --      8.8679                 0.6500                 1.4629

                     46                     47                     48
                      A                      A                      A
 Frequencies --   1517.3791              1526.8065              1528.6357
 Red. masses --      1.0956                 1.0589                 1.0943
 Frc consts  --      1.4863                 1.4544                 1.5066
 IR Inten    --      1.2611                 5.1859                 7.9453

                     49                     50                     51
                      A                      A                      A
 Frequencies --   1532.8412              1769.9191              1860.7143
 Red. masses --      1.0614                 5.7765                 9.7501
 Frc consts  --      1.4693                10.6616                19.8893
 IR Inten    --      8.0723               448.4997               256.5400

                     52                     53                     54
                      A                      A                      A
 Frequencies --   2987.1875              3005.2183              3015.8000
 Red. masses --      1.0558                 1.0674                 1.0640
 Frc consts  --      5.5511                 5.6797                 5.7017
 IR Inten    --     55.5703                44.3207                60.8130

                     55                     56                     57
                      A                      A                      A
 Frequencies --   3042.7686              3074.4126              3078.3525
 Red. masses --      1.0874                 1.0963                 1.0722
 Frc consts  --      5.9319                 6.1055                 5.9866
 IR Inten    --     46.1728                10.8586                14.4558

                     58                     59                     60
                      A                      A                      A
 Frequencies --   3091.4714              3097.2020              3129.6669
 Red. masses --      1.0879                 1.0792                 1.1056
 Frc consts  --      6.1256                 6.0995                 6.3801
 IR Inten    --     31.9064                32.0663                28.4901

                     61                     62                     63
                      A                      A                      A
 Frequencies --   3142.1720              3469.0093              3534.6628
 Red. masses --      1.1026                 1.0701                 1.0748
 Frc consts  --      6.4138                 7.5875                 7.9115
 IR Inten    --     13.8776               588.3085                 9.3795

 - Thermochemistry -
 -------------------
 Temperature   298.150 Kelvin.  Pressure   1.00000 Atm.
 Atom     1 has atomic number  6 and mass  12.00000

 Molecular mass:   160.08479 amu.
 Principal axes and moments of inertia in atomic units:
                           1         2         3
     Eigenvalues --  1099.970842154.975902837.53661
           X            0.99987  -0.01615  -0.00299
           Y            0.01611   0.99980  -0.01223
           Z            0.00319   0.01218   0.99992
 This molecule is an asymmetric top.
 Rotational symmetry number  1.
 Warning -- assumption of classical behavior for rotation
           may cause significant error
 Rotational temperatures (Kelvin)      0.07874     0.04019     0.03052
 Rotational constants (GHZ):           1.64072     0.83748     0.63602
 Zero-point vibrational energy     509879.7 (Joules/Mol)
                                  121.86418 (Kcal/Mol)
 Warning -- explicit consideration of  16 degrees of freedom as
           vibrations may cause significant error
 Vibrational temperatures:     50.04   103.89   151.88   158.76   206.85
          (Kelvin)            257.67   319.22   364.09   421.97   491.16
                              546.26   589.20   596.12   672.61   766.25
                              862.74   897.12  1009.62  1133.81  1156.50
                             1212.49  1286.70  1305.04  1380.39  1462.45
                             1471.58  1487.99  1545.83  1589.54  1668.75
                             1704.74  1745.65  1797.59  1820.60  1892.18
                             1897.21  1922.91  1943.38  1995.96  2013.59
                             2044.09  2055.41  2127.57  2144.16  2173.22
                             2183.17  2196.73  2199.37  2205.42  2546.52
                             2677.15  4297.90  4323.84  4339.06  4377.87
                             4423.39  4429.06  4447.94  4456.18  4502.89
                             4520.88  4991.13  5085.59

 Zero-point correction=                           0.194203 (Hartree/Particle)
 Thermal correction to Energy=                    0.205697
 Thermal correction to Enthalpy=                  0.206642
 Thermal correction to Gibbs Free Energy=         0.156162
 Sum of electronic and zero-point Energies=           -570.881623
 Sum of electronic and thermal Energies=              -570.870129
 Sum of electronic and thermal Enthalpies=            -570.869185
 Sum of electronic and thermal Free Energies=         -570.919664

                     E (Thermal)             CV                S
                      KCal/Mol        Cal/Mol-Kelvin    Cal/Mol-Kelvin
 Total                  129.077             41.600            106.242
 Electronic               0.000              0.000              0.000
 Translational            0.889              2.981             41.121
 Rotational               0.889              2.981             30.287
 Vibrational            127.300             35.638             34.834
 Vibration     1          0.594              1.983              5.536
 Vibration     2          0.598              1.967              4.092
 Vibration     3          0.605              1.945              3.349
 Vibration     4          0.606              1.941              3.263
 Vibration     5          0.616              1.909              2.753
 Vibration     6          0.629              1.868              2.338
 Vibration     7          0.648              1.808              1.944
 Vibration     8          0.664              1.758              1.709
 Vibration     9          0.688              1.686              1.455
 Vibration    10          0.721              1.593              1.206
 Vibration    11          0.750              1.514              1.040
 Vibration    12          0.774              1.450              0.928
 Vibration    13          0.778              1.439              0.911
 Vibration    14          0.825              1.322              0.745
 Vibration    15          0.888              1.178              0.581
 Vibration    16          0.958              1.033              0.450

                           ! Non-Optimized Parameters !
 Normal termination of Gaussian 16 at Tue Dec  8 19:37:30 2020.

 ----------------------------------------------------------------------
 # B3LYP/6-311++G(d,p) empiricaldispersion=gd3bj scf=xqc pop=npa geom=c
 heck
 ----------------------------------------------------------------------

 ---------------------------------------
 CID_118297504_JID_1057_Energie_neutraal
 ---------------------------------------
 Structure from the checkpoint file:  "JID_1057.chk"
 Charge =  0 Multiplicity = 1

 SCF Done:  E(RB3LYP) =  -571.258980752     A.U. after   13 cycles
 Normal termination of Gaussian 16 at Tue Dec  8 19:39:28 2020.

 ----------------------------------------------------------------------
 # B3LYP/6-311++G(d,p) empiricaldispersion=gd3bj scf=xqc pop=npa geom=c
 heck
 ----------------------------------------------------------------------

 -------------------------------------
 CID_118297504_JID_1057_Energie_kation
 -------------------------------------
 Structure from the checkpoint file:  "JID_1057.chk"
 Charge =  1 Multiplicity = 2

 SCF Done:  E(UB3LYP) =  -570.930843139     A.U. after   22 cycles
 Normal termination of Gaussian 16 at Tue Dec  8 19:43:41 2020.
 Gaussian 16:  ES64L-G16RevA.03 25-Dec-2016

 ----------------------------------------------------------------------
 # B3LYP/6-311++G(d,p) empiricaldispersion=gd3bj scf=xqc pop=npa geom=c
 heck
 ----------------------------------------------------------------------

 ------------------------------------
 CID_118297504_JID_1057_Energie_anion
 ------------------------------------
 Structure from the checkpoint file:  "JID_1057.chk"
 Charge = -1 Multiplicity = 2

                         Standard orientation:
 ---------------------------------------------------------------------
 Center     Atomic      Atomic             Coordinates (Angstroms)
 Number     Number       Type             X           Y           Z
 ---------------------------------------------------------------------
      1          6           0        0.378888    1.604494   -1.228924
      2          7           0       -0.052072    0.878914   -0.038504
      3          6           0       -1.243381    1.454528    0.580988
      4          6           0       -2.504357    0.768221    0.017738
      5          7           0       -2.418688   -0.673565    0.224861
      6          6           0       -1.432443   -1.341970   -0.447519
      7          8           0       -0.801078   -2.290409    0.014113
      8          6           0        1.038982    0.594426    0.889211
      9          6           0        2.166272   -0.212532    0.226825
     10          8           0        3.306132    0.190420    0.207972
     11          8           0        1.829487   -1.379195   -0.342043
     12          1           0       -0.472642    1.737817   -1.903672
     13          1           0        1.140486    1.028735   -1.761423
     14          1           0        0.794441    2.599283   -0.993327
     15          1           0       -1.206663    1.277890    1.661612
     16          1           0       -1.302525    2.545258    0.438016
     17          1           0       -3.412660    1.152587    0.490540
     18          1           0       -2.591865    0.955000   -1.057899
     19          1           0       -2.483903   -0.974291    1.194515
     20          1           0       -1.303647   -0.990492   -1.482884
     21          1           0        1.507387    1.501858    1.299308
     22          1           0        0.632635    0.006733    1.721985
     23          1           0        0.894168   -1.647353   -0.181520
 ---------------------------------------------------------------------

 SCF Done:  E(UB3LYP) =  -571.254267536     A.U. after   28 cycles

 The electronic state is 2-A.
 Alpha  occ. eigenvalues --  -19.05850 -19.01003 -19.00875 -14.24070 -14.22849
 Alpha  occ. eigenvalues --  -10.20455 -10.18019 -10.11675 -10.11015 -10.10208
 Alpha  occ. eigenvalues --  -10.09883  -1.00013  -0.95304  -0.91940  -0.85239
 Alpha  occ. eigenvalues --   -0.82615  -0.66327  -0.63659  -0.58023  -0.53021
 Alpha  occ. eigenvalues --   -0.52043  -0.50249  -0.42620  -0.41217  -0.40876
 Alpha  occ. eigenvalues --   -0.39256  -0.38479  -0.36040  -0.34461  -0.33827
 Alpha  occ. eigenvalues --   -0.33725  -0.31774  -0.30791  -0.30299  -0.28989
 Alpha  occ. eigenvalues --   -0.28438  -0.26489  -0.26053  -0.22177  -0.19049
 Alpha  occ. eigenvalues --   -0.17766  -0.16946  -0.13880   0.04177
 Alpha virt. eigenvalues --    0.06839   0.07992   0.08582   0.09124   0.09501
 Alpha virt. eigenvalues --    0.10622   0.10848   0.11224   0.11672   0.11796
 Alpha virt. eigenvalues --    0.13734   0.14365   0.15081   0.15517   0.16193

  Beta  occ. eigenvalues --  -19.05847 -19.00989 -19.00852 -14.24044 -14.22851
  Beta  occ. eigenvalues --  -10.20446 -10.17983 -10.11659 -10.10964 -10.10155
  Beta  occ. eigenvalues --  -10.09848  -0.99997  -0.95255  -0.91921  -0.85210
  Beta  occ. eigenvalues --   -0.82579  -0.66255  -0.63601  -0.57941  -0.52929
  Beta  occ. eigenvalues --   -0.51987  -0.50165  -0.42584  -0.41130  -0.40796
  Beta  occ. eigenvalues --   -0.39215  -0.38395  -0.35994  -0.34413  -0.33782
  Beta  occ. eigenvalues --   -0.33666  -0.31700  -0.30711  -0.30242  -0.28930
  Beta  occ. eigenvalues --   -0.28386  -0.26447  -0.25985  -0.22134  -0.18984
  Beta  occ. eigenvalues --   -0.17741  -0.16919  -0.13849
  Beta virt. eigenvalues --    0.07171   0.07964   0.08847   0.09114   0.09597
  Beta virt. eigenvalues --    0.09917   0.10935   0.11413   0.11767   0.12200
  Beta virt. eigenvalues --    0.12357   0.14183   0.14886   0.15374   0.15671

 Mulliken charges and spin densities:
               1          2
     1  C    0.510782  -0.909921
     2  N   -0.198215   0.146760
     3  C   -0.423546   0.264440
     4  C    1.970927  -2.444825
     5  N   -0.271213   0.216974
     6  C    0.377724  -0.419205
     7  O   -0.377410   0.032978
     8  C    0.175084  -0.431203
     9  C   -0.075479  -0.057425
    10  O   -0.261035   0.009414
    11  O   -0.221168   0.003961
    12  H   -0.216424   0.366249
    13  H    0.194696  -0.018295
    14  H   -0.156223   0.305753
    15  H   -0.524068   0.703539
    16  H   -0.532425   0.699587
    17  H   -0.980850   1.185879
    18  H   -0.378724   0.576378
    19  H   -0.044162   0.332713
    20  H    0.049512   0.098004
    21  H    0.048006   0.150613
    22  H   -0.007042   0.202063
    23  H    0.341253  -0.014431
 Sum of Mulliken charges =  -1.00000   1.00000

 Dipole moment (field-independent basis, Debye):
    X=              3.4372    Y=             -2.9830    Z=             -1.9508  Tot=              4.9516
 Quadrupole moment (field-independent basis, Debye-Ang):
   XX=           -133.1187   YY=           -111.9453   ZZ=            -96.1077
   XY=             13.5253   XZ=              6.6708   YZ=             -1.3587

 Summary of Natural Population Analysis:

                                       Natural Population
                Natural  -----------------------------------------------
    Atom  No    Charge         Core      Valence    Rydberg      Total
 -----------------------------------------------------------------------
      C    1   -0.17677      0.99963     2.16872    0.00842     3.17677
      N    2   -0.29154      0.99972     2.77778    0.01404     3.79154
      C    3   -0.09137      0.99960     2.07867    0.01310     3.09137
      C    4   -0.09394      0.99961     2.08095    0.01337     3.09394
      N    5   -0.31458      0.99969     2.80377    0.01112     3.81458
      C    6    0.28231      0.99972     1.69465    0.02332     2.71769
      O    7   -0.34138      0.99987     3.33489    0.00662     4.34138
      C    8   -0.13286      0.99957     2.12225    0.01104     3.13286
      C    9    0.39801      0.99972     1.57607    0.02620     2.60199
      O   10   -0.30009      0.99987     3.29411    0.00611     4.30009
      O   11   -0.35067      0.99986     3.34453    0.00628     4.35067
      H   12    0.09991      0.00000     0.39885    0.00124     0.40009
      H   13    0.09797      0.00000     0.40103    0.00100     0.40203
      H   14    0.08869      0.00000     0.41021    0.00110     0.41131
      H   15    0.10208      0.00000     0.39386    0.00406     0.39792
      H   16    0.10112      0.00000     0.39387    0.00501     0.39888
      H   17    0.10964      0.00000     0.38442    0.00595     0.39036
      H   18    0.09866      0.00000     0.39897    0.00237     0.40134
      H   19    0.19100      0.00000     0.30579    0.00321     0.30900
      H   20    0.06051      0.00000     0.43788    0.00161     0.43949
      H   21    0.09808      0.00000     0.40077    0.00115     0.40192
      H   22    0.10984      0.00000     0.38876    0.00141     0.39016
      H   23    0.25537      0.00000     0.24087    0.00376     0.24463
 =======================================================================
   * Total *    0.00000     10.99686    31.83166    0.17147    43.00000

 Normal termination of Gaussian 16 at Tue Dec  8 19:50:55 2020.
