 Gaussian 16, Revision A.03,

 -----------------------------------------------------------
 # opt freq B3LYP/6-31G(d) empiricaldispersion=gd3bj scf=xqc
 -----------------------------------------------------------

 ------------------------------
 CID_154355276_JID_379_neutraal
 ------------------------------
 Symbolic Z-matrix:
 Charge =  0 Multiplicity = 1

 SCF Done:  E(RB3LYP) =  -426.628814498     A.U. after   14 cycles
 SCF Done:  E(RB3LYP) =  -426.630268960     A.U. after   12 cycles
 SCF Done:  E(RB3LYP) =  -426.627912876     A.U. after   13 cycles
 SCF Done:  E(RB3LYP) =  -426.630545632     A.U. after   11 cycles
 SCF Done:  E(RB3LYP) =  -426.630558054     A.U. after   10 cycles
 SCF Done:  E(RB3LYP) =  -426.630569523     A.U. after   11 cycles
 SCF Done:  E(RB3LYP) =  -426.630575949     A.U. after   11 cycles
 SCF Done:  E(RB3LYP) =  -426.630585302     A.U. after   11 cycles
 SCF Done:  E(RB3LYP) =  -426.630586643     A.U. after   10 cycles
 Optimization completed.
    -- Stationary point found.

 1\1\GINC-NODE316\FOpt\RB3LYP\6-31G(d)\C9H14O1\VSC10255\08-Dec-2020\0\\
 # opt freq B3LYP/6-31G(d) empiricaldispersion=gd3bj scf=xqc\\CID_15435
 5276_JID_379_neutraal\\0,1\C,0.9389656584,0.0286183847,-0.071049914\C,
 0.5592469732,1.4994555014,-0.2583280933\C,1.0520142896,2.1153538071,-1
 .5828335171\C,2.5844233476,2.0839464348,-1.6991002959\C,3.081871282,2.
 95211052,-2.8733170144\C,2.6806173017,4.4228352032,-2.6533275058\C,1.2
 554099338,4.5511657004,-2.1834447951\C,0.5301345811,3.5243658903,-1.73
 44827469\C,4.5819010976,2.8255310069,-2.9939731474\O,5.1698813914,2.32

 Normal termination of Gaussian 16 at Tue Dec  8 10:29:09 2020.

 --------------------------------------------------------------------
 #N Geom=AllCheck Guess=TCheck SCRF=Check GenChk RB3LYP/6-31G(d) Freq
 --------------------------------------------------------------------

 Structure from the checkpoint file:  "JID_379.chk"
 ------------------------------
 CID_154355276_JID_379_neutraal
 ------------------------------
 Charge =  0 Multiplicity = 1

 SCF Done:  E(RB3LYP) =  -426.630586643     A.U. after    1 cycles

  Exact polarizability: 112.422   1.534  93.796   3.141   2.589  73.599
 Approx polarizability: 150.930   0.149 128.301   3.811   8.551 117.703

                      1                      2                      3
                      A                      A                      A
 Frequencies --     44.3971                79.2385               111.7423
 Red. masses --      5.5455                 2.5528                 2.3806
 Frc consts  --      0.0064                 0.0094                 0.0175
 IR Inten    --      5.3873                 0.2015                 1.3129

                      4                      5                      6
                      A                      A                      A
 Frequencies --    116.7262               191.5578               239.3746
 Red. masses --      2.3117                 2.5031                 1.2073
 Frc consts  --      0.0186                 0.0541                 0.0408
 IR Inten    --      0.8282                 0.8344                 0.0954

                      7                      8                      9
                      A                      A                      A
 Frequencies --    294.1250               327.7244               352.7570
 Red. masses --      2.0051                 2.6625                 3.0363
 Frc consts  --      0.1022                 0.1685                 0.2226
 IR Inten    --      0.4202                 0.1133                 3.3983

                     10                     11                     12
                      A                      A                      A
 Frequencies --    386.6866               403.5587               450.9874
 Red. masses --      3.5865                 2.8007                 2.7443
 Frc consts  --      0.3160                 0.2687                 0.3289
 IR Inten    --      2.0445                 2.5756                 0.9383

                     13                     14                     15
                      A                      A                      A
 Frequencies --    520.3514               595.3494               687.3540
 Red. masses --      2.8049                 3.3556                 1.7386
 Frc consts  --      0.4475                 0.7007                 0.4840
 IR Inten    --      6.0233                 7.5770                20.3427

                     16                     17                     18
                      A                      A                      A
 Frequencies --    751.6494               790.2519               863.9863
 Red. masses --      1.7117                 1.2992                 1.9763
 Frc consts  --      0.5698                 0.4780                 0.8692
 IR Inten    --      5.8771                 1.7302                 6.1920

                     19                     20                     21
                      A                      A                      A
 Frequencies --    898.1198               914.4770               929.8992
 Red. masses --      3.0937                 1.6007                 2.2087
 Frc consts  --      1.4703                 0.7887                 1.1253
 IR Inten    --      1.8073                 6.7658                 0.6106

                     22                     23                     24
                      A                      A                      A
 Frequencies --    965.7469              1001.4386              1013.5850
 Red. masses --      2.4287                 1.2401                 1.9019
 Frc consts  --      1.3346                 0.7327                 1.1512
 IR Inten    --      2.8709                 0.2373                 1.4502

                     25                     26                     27
                      A                      A                      A
 Frequencies --   1035.9932              1053.8207              1075.6061
 Red. masses --      1.6408                 1.9803                 2.5177
 Frc consts  --      1.0376                 1.2957                 1.7161
 IR Inten    --      5.2202                 8.5269                10.3296

                     28                     29                     30
                      A                      A                      A
 Frequencies --   1100.6694              1116.1664              1149.7193
 Red. masses --      2.3012                 2.2314                 2.3139
 Frc consts  --      1.6426                 1.6379                 1.8021
 IR Inten    --     12.2126                 2.6769                 8.3788

                     31                     32                     33
                      A                      A                      A
 Frequencies --   1160.6720              1198.8611              1238.2065
 Red. masses --      1.6483                 1.3660                 1.1990
 Frc consts  --      1.3083                 1.1567                 1.0831
 IR Inten    --      1.6473                 0.6076                 5.4311

                     34                     35                     36
                      A                      A                      A
 Frequencies --   1264.4287              1294.5897              1306.9268
 Red. masses --      1.2991                 1.2709                 1.2532
 Frc consts  --      1.2238                 1.2550                 1.2612
 IR Inten    --      1.4547                 1.4433                 1.1531

                     37                     38                     39
                      A                      A                      A
 Frequencies --   1335.1763              1337.3979              1376.9526
 Red. masses --      1.3085                 1.1866                 1.3239
 Frc consts  --      1.3744                 1.2505                 1.4789
 IR Inten    --      6.0703                 4.5099                 1.8307

                     40                     41                     42
                      A                      A                      A
 Frequencies --   1388.9101              1401.4799              1406.4853
 Red. masses --      1.4153                 1.4640                 1.6923
 Frc consts  --      1.6086                 1.6941                 1.9724
 IR Inten    --      0.0233                 1.0432                 1.1475

                     43                     44                     45
                      A                      A                      A
 Frequencies --   1435.0851              1440.5377              1443.3059
 Red. masses --      1.5218                 1.2197                 1.2549
 Frc consts  --      1.8466                 1.4912                 1.5402
 IR Inten    --      1.7424                 3.1078                 2.2921

                     46                     47                     48
                      A                      A                      A
 Frequencies --   1506.8977              1518.1730              1522.1228
 Red. masses --      1.0911                 1.0695                 1.0802
 Frc consts  --      1.4598                 1.4524                 1.4745
 IR Inten    --      1.2750                 0.5575                 6.8467

                     49                     50                     51
                      A                      A                      A
 Frequencies --   1531.4305              1538.9309              1741.2593
 Red. masses --      1.0536                 1.0595                 6.7492
 Frc consts  --      1.4559                 1.4783                12.0567
 IR Inten    --      1.9285                 4.6011                 2.8738

                     52                     53                     54
                      A                      A                      A
 Frequencies --   1834.7787              2865.3933              2978.7674
 Red. masses --     10.1190                 1.0821                 1.0813
 Frc consts  --     20.0703                 5.2348                 5.6528
 IR Inten    --    208.9652               107.5566                19.1764

                     55                     56                     57
                      A                      A                      A
 Frequencies --   2999.3854              3027.8821              3031.5522
 Red. masses --      1.0703                 1.0645                 1.0619
 Frc consts  --      5.6729                 5.7499                 5.7500
 IR Inten    --     32.3019                19.7050                34.4951

                     58                     59                     60
                      A                      A                      A
 Frequencies --   3047.5993              3057.3820              3063.7926
 Red. masses --      1.0379                 1.0889                 1.1021
 Frc consts  --      5.6794                 5.9972                 6.0951
 IR Inten    --     24.5310                17.2974                23.5265

                     61                     62                     63
                      A                      A                      A
 Frequencies --   3078.8472              3095.5576              3112.5045
 Red. masses --      1.0858                 1.0972                 1.1012
 Frc consts  --      6.0642                 6.1948                 6.2852
 IR Inten    --     21.9063                40.5494                41.1016

                     64                     65                     66
                      A                      A                      A
 Frequencies --   3121.8105              3148.4704              3173.6932
 Red. masses --      1.1019                 1.0845                 1.0960
 Frc consts  --      6.3269                 6.3341                 6.5040
 IR Inten    --     39.5803                11.2913                42.9535

 - Thermochemistry -
 -------------------
 Temperature   298.150 Kelvin.  Pressure   1.00000 Atm.
 Atom     1 has atomic number  6 and mass  12.00000

 Molecular mass:   138.10447 amu.
 Principal axes and moments of inertia in atomic units:
                           1         2         3
     Eigenvalues --   940.107152087.687692871.47867
           X            0.99845   0.05541   0.00602
           Y           -0.05539   0.99846  -0.00409
           Z           -0.00624   0.00375   0.99997
 This molecule is an asymmetric top.
 Rotational symmetry number  1.
 Warning -- assumption of classical behavior for rotation
           may cause significant error
 Rotational temperatures (Kelvin)      0.09213     0.04149     0.03016
 Rotational constants (GHZ):           1.91972     0.86447     0.62851
 Zero-point vibrational energy     559184.2 (Joules/Mol)
                                  133.64824 (Kcal/Mol)
 Warning -- explicit consideration of  14 degrees of freedom as
           vibrations may cause significant error
 Vibrational temperatures:     63.88   114.01   160.77   167.94   275.61
          (Kelvin)            344.41   423.18   471.52   507.54   556.36
                              580.63   648.87   748.67   856.57   988.95
                             1081.46  1137.00  1243.08  1292.19  1315.73
                             1337.92  1389.49  1440.85  1458.32  1490.56
                             1516.21  1547.56  1583.62  1605.91  1654.19
                             1669.95  1724.89  1781.50  1819.23  1862.63
                             1880.38  1921.02  1924.22  1981.13  1998.33
                             2016.42  2023.62  2064.77  2072.61  2076.60
                             2168.09  2184.31  2190.00  2203.39  2214.18
                             2505.28  2639.84  4122.66  4285.78  4315.45
                             4356.45  4361.73  4384.82  4398.89  4408.11
                             4429.77  4453.82  4478.20  4491.59  4529.95
                             4566.24

 Zero-point correction=                           0.212982 (Hartree/Particle)
 Thermal correction to Energy=                    0.223324
 Thermal correction to Enthalpy=                  0.224268
 Thermal correction to Gibbs Free Energy=         0.176596
 Sum of electronic and zero-point Energies=           -426.417605
 Sum of electronic and thermal Energies=              -426.407263
 Sum of electronic and thermal Enthalpies=            -426.406319
 Sum of electronic and thermal Free Energies=         -426.453990

                     E (Thermal)             CV                S
                      KCal/Mol        Cal/Mol-Kelvin    Cal/Mol-Kelvin
 Total                  140.138             38.459            100.333
 Electronic               0.000              0.000              0.000
 Translational            0.889              2.981             40.680
 Rotational               0.889              2.981             30.112
 Vibrational            138.360             32.497             29.541
 Vibration     1          0.595              1.980              5.053
 Vibration     2          0.600              1.963              3.910
 Vibration     3          0.607              1.940              3.238
 Vibration     4          0.608              1.935              3.154
 Vibration     5          0.634              1.852              2.213
 Vibration     6          0.657              1.780              1.808
 Vibration     7          0.689              1.685              1.450
 Vibration     8          0.711              1.620              1.271
 Vibration     9          0.729              1.570              1.154
 Vibration    10          0.755              1.499              1.013
 Vibration    11          0.769              1.462              0.950
 Vibration    12          0.810              1.359              0.793
 Vibration    13          0.875              1.205              0.609
 Vibration    14          0.953              1.042              0.458

                           ! Non-Optimized Parameters !

 1\1\GINC-NODE316\Freq\RB3LYP\6-31G(d)\C9H14O1\VSC10255\08-Dec-2020\0\\
 #N Geom=AllCheck Guess=TCheck SCRF=Check GenChk RB3LYP/6-31G(d) Freq\\
 CID_154355276_JID_379_neutraal\\0,1\C,0.9389656584,0.0286183847,-0.071
 049914\C,0.5592469732,1.4994555014,-0.2583280933\C,1.0520142896,2.1153
 538071,-1.5828335171\C,2.5844233476,2.0839464348,-1.6991002959\C,3.081
 871282,2.95211052,-2.8733170144\C,2.6806173017,4.4228352032,-2.6533275
 058\C,1.2554099338,4.5511657004,-2.1834447951\C,0.5301345811,3.5243658
 903,-1.7344827469\C,4.5819010976,2.8255310069,-2.9939731474\O,5.169881

 Normal termination of Gaussian 16 at Tue Dec  8 10:33:20 2020.

 ----------------------------------------------------------------------
 # B3LYP/6-311++G(d,p) empiricaldispersion=gd3bj scf=xqc pop=npa geom=c
 heck
 ----------------------------------------------------------------------

 --------------------------------------
 CID_154355276_JID_379_Energie_neutraal
 --------------------------------------
 Structure from the checkpoint file:  "JID_379.chk"
 Charge =  0 Multiplicity = 1

 SCF Done:  E(RB3LYP) =  -426.752853304     A.U. after   14 cycles
 Normal termination of Gaussian 16 at Tue Dec  8 10:37:14 2020.

 ----------------------------------------------------------------------
 # B3LYP/6-311++G(d,p) empiricaldispersion=gd3bj scf=xqc pop=npa geom=c
 heck
 ----------------------------------------------------------------------

 ------------------------------------
 CID_154355276_JID_379_Energie_kation
 ------------------------------------
 Structure from the checkpoint file:  "JID_379.chk"
 Charge =  1 Multiplicity = 2

 SCF Done:  E(UB3LYP) =  -426.426723727     A.U. after   23 cycles
 Normal termination of Gaussian 16 at Tue Dec  8 10:42:23 2020.
 Gaussian 16:  ES64L-G16RevA.03 25-Dec-2016

 -----------------------------------
 CID_154355276_JID_379_Energie_anion
 -----------------------------------
 Structure from the checkpoint file:  "JID_379.chk"
 Charge = -1 Multiplicity = 2

                         Standard orientation:
 ---------------------------------------------------------------------
 Center     Atomic      Atomic             Coordinates (Angstroms)
 Number     Number       Type             X           Y           Z
 ---------------------------------------------------------------------
      1          6           0       -2.990638   -1.631933    0.044048
      2          6           0       -2.584081   -0.168166    0.230378
      3          6           0       -1.229306    0.197310   -0.407961
      4          6           0       -0.070604   -0.615118    0.192164
      5          6           0        1.299554   -0.047978   -0.233240
      6          6           0        1.456901    1.397344    0.275402
      7          6           0        0.210318    2.211197    0.047037
      8          6           0       -0.969703    1.679476   -0.279662
      9          6           0        2.400383   -0.924414    0.315125
     10          8           0        3.165203   -1.586798   -0.349929
     11          1           0       -3.003180   -1.904607   -1.018474
     12          1           0       -3.992889   -1.813486    0.446902
     13          1           0       -2.302877   -2.314629    0.554293
     14          1           0       -3.356569    0.479486   -0.205890
     15          1           0       -2.547663    0.077446    1.300782
     16          1           0       -1.299976   -0.049099   -1.481067
     17          1           0       -0.146877   -1.664930   -0.109991
     18          1           0       -0.145638   -0.588972    1.289157
     19          1           0        1.375804   -0.067710   -1.326273
     20          1           0        1.705105    1.391179    1.349491
     21          1           0        2.311792    1.872925   -0.222685
     22          1           0        0.306697    3.291017    0.147206
     23          1           0       -1.822040    2.335516   -0.454253
     24          1           0        2.459749   -0.936066    1.430486
 ---------------------------------------------------------------------

 SCF Done:  E(UB3LYP) =  -426.739470882     A.U. after   33 cycles
 SCF Done:  E(UB3LYP) =  -426.739470883     a.u. after    1 cycles

 The electronic state is 2-A.
 Alpha  occ. eigenvalues --  -18.99444 -10.12547 -10.07352 -10.07079 -10.07066
 Alpha  occ. eigenvalues --  -10.06297 -10.06260 -10.05944 -10.05912 -10.05177
 Alpha  occ. eigenvalues --   -0.92625  -0.74183  -0.68163  -0.64995  -0.61629
 Alpha  occ. eigenvalues --   -0.53742  -0.52981  -0.47636  -0.45619  -0.41718
 Alpha  occ. eigenvalues --   -0.38847  -0.35758  -0.34064  -0.33418  -0.32329
 Alpha  occ. eigenvalues --   -0.31354  -0.30401  -0.29991  -0.27837  -0.27229
 Alpha  occ. eigenvalues --   -0.25116  -0.24888  -0.23785  -0.22611  -0.21363
 Alpha  occ. eigenvalues --   -0.20660  -0.14503  -0.13386   0.04865
 Alpha virt. eigenvalues --    0.06941   0.07162   0.08343   0.08888   0.09535
 Alpha virt. eigenvalues --    0.10389   0.10722   0.11020   0.11694   0.12353
 Alpha virt. eigenvalues --    0.12789   0.12909   0.13531   0.14362   0.15459

  Beta  occ. eigenvalues --  -18.99215 -10.12338 -10.07342 -10.07095 -10.07054
  Beta  occ. eigenvalues --  -10.06243 -10.06231 -10.05932 -10.05888 -10.05139
  Beta  occ. eigenvalues --   -0.92190  -0.74124  -0.68102  -0.64896  -0.61570
  Beta  occ. eigenvalues --   -0.53656  -0.52742  -0.47533  -0.45344  -0.41633
  Beta  occ. eigenvalues --   -0.38779  -0.35661  -0.33956  -0.33223  -0.32209
  Beta  occ. eigenvalues --   -0.31295  -0.30244  -0.29807  -0.27777  -0.26622
  Beta  occ. eigenvalues --   -0.24922  -0.24609  -0.23737  -0.22564  -0.21222
  Beta  occ. eigenvalues --   -0.20542  -0.14447  -0.13225
  Beta virt. eigenvalues --    0.07343   0.08047   0.08725   0.09077   0.09407
  Beta virt. eigenvalues --    0.10061   0.10855   0.11013   0.11350   0.11932
  Beta virt. eigenvalues --    0.12710   0.12887   0.13375   0.13826   0.14545

 Mulliken charges and spin densities:
               1          2
     1  C    1.368372  -2.025044
     2  C   -1.009981   0.805259
     3  C   -0.622608   1.394327
     4  C    0.565775  -1.541122
     5  C    0.144942   0.375541
     6  C   -0.008827  -0.818272
     7  C   -0.356185   0.609324
     8  C    1.122711  -1.715914
     9  C    0.274223  -0.424351
    10  O   -0.276859   0.067354
    11  H   -0.109547   0.240471
    12  H   -0.605162   0.752349
    13  H   -0.291324   0.435432
    14  H   -0.490804   0.639065
    15  H    0.053039   0.081552
    16  H    0.032135   0.114146
    17  H    0.404020  -0.248181
    18  H   -0.290808   0.464663
    19  H    0.032558   0.167660
    20  H    0.106358   0.028760
    21  H    0.127417   0.018062
    22  H   -0.887486   1.080151
    23  H   -0.252291   0.424945
    24  H   -0.029669   0.073824
 Sum of Mulliken charges =  -1.00000   1.00000

 Dipole moment (field-independent basis, Debye):
    X=              3.6532    Y=             -0.1900    Z=             -0.0247  Tot=              3.6582
 Quadrupole moment (field-independent basis, Debye-Ang):
   XX=           -130.5657   YY=           -112.9081   ZZ=            -84.7590
   XY=              4.5227   XZ=              4.3194   YZ=              1.6352

 Summary of Natural Population Analysis:

                                       Natural Population
                Natural  -----------------------------------------------
    Atom  No    Charge         Core      Valence    Rydberg      Total
 -----------------------------------------------------------------------
      C    1   -0.28588      0.99967     2.28058    0.00564     3.28588
      C    2   -0.18350      0.99962     2.17496    0.00891     3.18350
      C    3   -0.12420      0.99957     2.11409    0.01054     3.12420
      C    4   -0.18345      0.99960     2.17484    0.00901     3.18345
      C    5   -0.15580      0.99958     2.14639    0.00983     3.15580
      C    6   -0.20197      0.99960     2.19305    0.00933     3.20197
      C    7   -0.09146      0.99953     2.08146    0.01047     3.09146
      C    8   -0.08868      0.99951     2.07823    0.01093     3.08868
      C    9    0.25858      0.99970     1.72087    0.02086     2.74142
      O   10   -0.26369      0.99988     3.25699    0.00683     4.26369
      H   11    0.09480      0.00000     0.40406    0.00114     0.40520
      H   12    0.10125      0.00000     0.39727    0.00147     0.39875
      H   13    0.09691      0.00000     0.40197    0.00111     0.40309
      H   14    0.09753      0.00000     0.40052    0.00195     0.40247
      H   15    0.09470      0.00000     0.40390    0.00140     0.40530
      H   16    0.09743      0.00000     0.40079    0.00178     0.40257
      H   17    0.10358      0.00000     0.39514    0.00128     0.39642
      H   18    0.09694      0.00000     0.40155    0.00152     0.40306
      H   19    0.10151      0.00000     0.39661    0.00189     0.39849
      H   20    0.10006      0.00000     0.39853    0.00141     0.39994
      H   21    0.10194      0.00000     0.39701    0.00105     0.39806
      H   22    0.09817      0.00000     0.39967    0.00216     0.40183
      H   23    0.09950      0.00000     0.39891    0.00159     0.40050
      H   24    0.03573      0.00000     0.46195    0.00232     0.46427
 =======================================================================
   * Total *   -0.00000      9.99626    27.87932    0.12442    38.00000

 Normal termination of Gaussian 16 at Tue Dec  8 10:48:52 2020.
