 Gaussian 16, Revision A.03,

 -----------------------------------------------------------
 # opt freq B3LYP/6-31G(d) empiricaldispersion=gd3bj scf=xqc
 -----------------------------------------------------------

 --------------------------------
 CID_127851236_JID_10966_neutraal
 --------------------------------
 Symbolic Z-matrix:
 Charge =  0 Multiplicity = 1

 SCF Done:  E(RB3LYP) =  -1277.74060752     A.U. after   15 cycles
 SCF Done:  E(RB3LYP) =  -1277.74782930     A.U. after   12 cycles
 SCF Done:  E(RB3LYP) =  -1277.74878561     A.U. after   12 cycles
 SCF Done:  E(RB3LYP) =  -1277.74900365     A.U. after   12 cycles
 SCF Done:  E(RB3LYP) =  -1277.74908618     A.U. after   11 cycles
 SCF Done:  E(RB3LYP) =  -1277.74919310     A.U. after   11 cycles
 SCF Done:  E(RB3LYP) =  -1277.74923744     A.U. after   11 cycles
 SCF Done:  E(RB3LYP) =  -1277.74924268     A.U. after   10 cycles
 SCF Done:  E(RB3LYP) =  -1277.74924543     A.U. after    8 cycles
 SCF Done:  E(RB3LYP) =  -1277.74924625     A.U. after    9 cycles
 SCF Done:  E(RB3LYP) =  -1277.74924640     A.U. after    8 cycles
 SCF Done:  E(RB3LYP) =  -1277.74924641     A.U. after    8 cycles
 SCF Done:  E(RB3LYP) =  -1277.74924639     A.U. after    7 cycles
 SCF Done:  E(RB3LYP) =  -1277.74924636     A.U. after    7 cycles
 Optimization completed.
    -- Stationary point found.
 Normal termination of Gaussian 16 at Sat Dec 12 16:38:01 2020.

 --------------------------------------------------------------------
 #N Geom=AllCheck Guess=TCheck SCRF=Check GenChk RB3LYP/6-31G(d) Freq
 --------------------------------------------------------------------

 Structure from the checkpoint file:  "JID_10966.chk"
 --------------------------------
 CID_127851236_JID_10966_neutraal
 --------------------------------
 Charge =  0 Multiplicity = 1

 SCF Done:  E(RB3LYP) =  -1277.74924636     A.U. after    1 cycles

  Exact polarizability: 255.711  -4.684 180.585   3.249  -5.607 121.731
 Approx polarizability: 353.795  -4.990 289.728  16.429 -17.756 194.059

                      1                      2                      3
                      A                      A                      A
 Frequencies --     16.9317                42.6255                60.4655
 Red. masses --      4.7543                 4.7886                 2.7520
 Frc consts  --      0.0008                 0.0051                 0.0059
 IR Inten    --      1.0825                 1.4243                 0.8005

                      4                      5                      6
                      A                      A                      A
 Frequencies --     85.3353                90.6263               126.9513
 Red. masses --      4.1984                 3.0084                 7.0437
 Frc consts  --      0.0180                 0.0146                 0.0669
 IR Inten    --      3.2371                 0.9427                 2.3373

                      7                      8                      9
                      A                      A                      A
 Frequencies --    149.6967               168.2343               192.6209
 Red. masses --      3.3535                 3.4324                 1.7209
 Frc consts  --      0.0443                 0.0572                 0.0376
 IR Inten    --      2.7158                 0.6478                 3.5341

                     10                     11                     12
                      A                      A                      A
 Frequencies --    219.9028               222.7832               231.5214
 Red. masses --      1.7343                 2.1721                 4.0004
 Frc consts  --      0.0494                 0.0635                 0.1263
 IR Inten    --      2.0039                 0.6704                 0.5063

                     13                     14                     15
                      A                      A                      A
 Frequencies --    248.2072               258.1533               295.7192
 Red. masses --      1.5732                 2.9471                 4.2463
 Frc consts  --      0.0571                 0.1157                 0.2188
 IR Inten    --      1.3423                 1.2006                 2.4038

                     16                     17                     18
                      A                      A                      A
 Frequencies --    316.6216               325.6476               333.0317
 Red. masses --      2.7860                 2.7457                 5.4400
 Frc consts  --      0.1646                 0.1716                 0.3555
 IR Inten    --      3.7689                 9.9172                 4.2397

                     19                     20                     21
                      A                      A                      A
 Frequencies --    360.0436               384.9180               433.6822
 Red. masses --      2.9770                 5.0520                 5.2472
 Frc consts  --      0.2274                 0.4410                 0.5815
 IR Inten    --      0.6827                 2.1639                 2.7039

                     22                     23                     24
                      A                      A                      A
 Frequencies --    446.7624               458.8227               469.5620
 Red. masses --      4.1997                 4.0191                 2.8831
 Frc consts  --      0.4939                 0.4985                 0.3745
 IR Inten    --      6.5550                25.2467                 5.0554

                     25                     26                     27
                      A                      A                      A
 Frequencies --    488.2531               513.2019               543.4134
 Red. masses --      5.0575                 5.4418                 4.7198
 Frc consts  --      0.7104                 0.8444                 0.8212
 IR Inten    --     12.0937                 6.2732                 3.6456

                     28                     29                     30
                      A                      A                      A
 Frequencies --    556.6543               577.2044               578.8345
 Red. masses --      4.8253                 3.6022                 4.7309
 Frc consts  --      0.8809                 0.7071                 0.9339
 IR Inten    --     17.6534                18.3279                17.1156

                     31                     32                     33
                      A                      A                      A
 Frequencies --    605.7845               623.9971               641.5410
 Red. masses --      4.4048                 2.8563                 4.3856
 Frc consts  --      0.9524                 0.6553                 1.0635
 IR Inten    --     27.1004                 3.9391                 8.7595

                     34                     35                     36
                      A                      A                      A
 Frequencies --    692.1699               698.3705               761.5506
 Red. masses --      7.5011                 3.8271                 5.3188
 Frc consts  --      2.1174                 1.0997                 1.8174
 IR Inten    --    171.7654                58.5485                 7.9181

                     37                     38                     39
                      A                      A                      A
 Frequencies --    853.2524               875.0114               882.1648
 Red. masses --      2.2942                 1.8335                 2.1890
 Frc consts  --      0.9841                 0.8271                 1.0037
 IR Inten    --     23.9997                13.7761                10.1453

                     40                     41                     42
                      A                      A                      A
 Frequencies --    896.9504               904.3324               913.7313
 Red. masses --      2.3429                 1.3973                 3.4547
 Frc consts  --      1.1105                 0.6733                 1.6994
 IR Inten    --      7.5107                 6.5914                11.3302

                     43                     44                     45
                      A                      A                      A
 Frequencies --    924.5136               941.5263               968.7558
 Red. masses --      1.3249                 3.2967                 2.8951
 Frc consts  --      0.6672                 1.7219                 1.6008
 IR Inten    --      5.0206               192.1499                 6.6030

                     46                     47                     48
                      A                      A                      A
 Frequencies --   1028.4372              1036.5438              1058.2575
 Red. masses --      2.3502                 2.3321                 2.4087
 Frc consts  --      1.4646                 1.4763                 1.5894
 IR Inten    --      2.6421                 1.8754                 0.4800

                     49                     50                     51
                      A                      A                      A
 Frequencies --   1075.7724              1076.6770              1104.8798
 Red. masses --      2.9053                 1.5877                 2.9921
 Frc consts  --      1.9810                 1.0844                 2.1520
 IR Inten    --     16.5932                 9.8403                55.3053

                     52                     53                     54
                      A                      A                      A
 Frequencies --   1112.0168              1124.3754              1132.1925
 Red. masses --      2.5804                 2.8545                 1.2390
 Frc consts  --      1.8800                 2.1262                 0.9357
 IR Inten    --     55.1762                32.6853                 1.3252

                     55                     56                     57
                      A                      A                      A
 Frequencies --   1154.4255              1186.0338              1191.1037
 Red. masses --      1.9243                 1.3966                 1.2039
 Frc consts  --      1.5109                 1.1575                 1.0063
 IR Inten    --    159.5084                 6.3195                 5.2428

                     58                     59                     60
                      A                      A                      A
 Frequencies --   1214.6721              1221.4644              1231.7424
 Red. masses --      1.2590                 3.6828                 1.5736
 Frc consts  --      1.0945                 3.2374                 1.4067
 IR Inten    --     31.1326                60.4914                62.5145

                     61                     62                     63
                      A                      A                      A
 Frequencies --   1232.6110              1269.2339              1282.8422
 Red. masses --      1.5306                 1.5165                 1.8827
 Frc consts  --      1.3701                 1.4394                 1.8255
 IR Inten    --     38.0390                 7.5871                15.1447

                     64                     65                     66
                      A                      A                      A
 Frequencies --   1289.2033              1302.4220              1313.1564
 Red. masses --      2.8811                 1.3364                 8.6880
 Frc consts  --      2.8213                 1.3356                 8.8268
 IR Inten    --     12.5518                30.8951               185.0918

                     67                     68                     69
                      A                      A                      A
 Frequencies --   1336.6949              1348.4866              1362.5615
 Red. masses --      2.4924                 2.3111                 1.5005
 Frc consts  --      2.6238                 2.4760                 1.6414
 IR Inten    --     41.4797               148.3724                 0.8689

                     70                     71                     72
                      A                      A                      A
 Frequencies --   1373.8378              1377.4530              1393.3634
 Red. masses --      1.8971                 2.5327                 2.5317
 Frc consts  --      2.1097                 2.8313                 2.8960
 IR Inten    --     44.8988                 7.8129               103.0442

                     73                     74                     75
                      A                      A                      A
 Frequencies --   1394.0813              1432.2121              1459.5095
 Red. masses --      1.4573                 1.6377                 1.1473
 Frc consts  --      1.6687                 1.9793                 1.4399
 IR Inten    --      8.8697                 3.1093                 0.7863

                     76                     77                     78
                      A                      A                      A
 Frequencies --   1485.8945              1487.6284              1494.6082
 Red. masses --      4.0671                 1.1670                 1.4470
 Frc consts  --      5.2907                 1.5216                 1.9044
 IR Inten    --      2.2367                 0.9966                44.9068

                     79                     80                     81
                      A                      A                      A
 Frequencies --   1499.7014              1511.7417              1513.7108
 Red. masses --      1.3492                 1.1093                 1.0471
 Frc consts  --      1.7878                 1.4936                 1.4135
 IR Inten    --     38.2430                 6.7162                 8.8210

                     82                     83                     84
                      A                      A                      A
 Frequencies --   1519.1721              1522.2204              1525.4102
 Red. masses --      1.1886                 1.2588                 1.0506
 Frc consts  --      1.6162                 1.7186                 1.4403
 IR Inten    --     23.5705                37.2680                 3.1256

                     85                     86                     87
                      A                      A                      A
 Frequencies --   1528.2787              1543.0035              1543.1110
 Red. masses --      1.0519                 1.0521                 1.1753
 Frc consts  --      1.4475                 1.4758                 1.6488
 IR Inten    --     10.4677                10.0341                26.1079

                     88                     89                     90
                      A                      A                      A
 Frequencies --   1641.8395              1654.1256              1786.0947
 Red. masses --      8.1147                 6.2679                11.7150
 Frc consts  --     12.8879                10.1043                22.0192
 IR Inten    --     20.9951                52.5974               393.7748

                     91                     92                     93
                      A                      A                      A
 Frequencies --   3022.3426              3023.3510              3029.0284
 Red. masses --      1.0709                 1.0490                 1.0695
 Frc consts  --      5.7635                 5.6494                 5.7812
 IR Inten    --     19.2687                61.5698                17.5706

                     94                     95                     96
                      A                      A                      A
 Frequencies --   3036.3982              3047.3589              3053.7046
 Red. masses --      1.0420                 1.0686                 1.0719
 Frc consts  --      5.6601                 5.8469                 5.8891
 IR Inten    --     49.7698                16.0022                21.6151

                     97                     98                     99
                      A                      A                      A
 Frequencies --   3061.8251              3097.7211              3104.0306
 Red. masses --      1.0623                 1.0937                 1.0935
 Frc consts  --      5.8677                 6.1838                 6.2077
 IR Inten    --     26.7149                23.7271                16.7241

                    100                    101                    102
                      A                      A                      A
 Frequencies --   3109.1920              3110.9169              3114.2955
 Red. masses --      1.1016                 1.0909                 1.0951
 Frc consts  --      6.2742                 6.2206                 6.2581
 IR Inten    --     40.0430                22.2785                19.6902

                    103                    104                    105
                      A                      A                      A
 Frequencies --   3131.8799              3140.0972              3149.2348
 Red. masses --      1.0957                 1.0941                 1.1029
 Frc consts  --      6.3323                 6.3564                 6.4444
 IR Inten    --     12.3525                12.4320                18.0329

                    106                    107                    108
                      A                      A                      A
 Frequencies --   3184.4003              3214.6937              3220.1828
 Red. masses --      1.0990                 1.0909                 1.0908
 Frc consts  --      6.5663                 6.6423                 6.6644
 IR Inten    --      2.3144                 0.6908                 1.1328

 - Thermochemistry -
 -------------------
 Temperature   298.150 Kelvin.  Pressure   1.00000 Atm.
 Atom     1 has atomic number  6 and mass  12.00000

 Molecular mass:   294.10381 amu.
 Principal axes and moments of inertia in atomic units:
                           1         2         3
     Eigenvalues --  2640.570509997.30412**********
           X            0.99994  -0.00189  -0.01102
           Y            0.00183   0.99999  -0.00512
           Z            0.01103   0.00510   0.99993
 This molecule is an asymmetric top.
 Rotational symmetry number  1.
 Warning -- assumption of classical behavior for rotation
           may cause significant error
 Rotational temperatures (Kelvin)      0.03280     0.00866     0.00759
 Rotational constants (GHZ):           0.68347     0.18052     0.15815
 Zero-point vibrational energy     823051.9 (Joules/Mol)
                                  196.71413 (Kcal/Mol)
 Warning -- explicit consideration of  31 degrees of freedom as
           vibrations may cause significant error
 Vibrational temperatures:     24.36    61.33    87.00   122.78   130.39
          (Kelvin)            182.65   215.38   242.05   277.14   316.39
                              320.54   333.11   357.11   371.42   425.47
                              455.55   468.53   479.16   518.02   553.81
                              623.97   642.79   660.14   675.59   702.49
                              738.38   781.85   800.90   830.47   832.81
                              871.59   897.79   923.03   995.88  1004.80
                             1095.70  1227.64  1258.95  1269.24  1290.51
                             1301.13  1314.66  1330.17  1354.65  1393.82
                             1479.69  1491.36  1522.60  1547.80  1549.10
                             1589.68  1599.94  1617.73  1628.97  1660.96
                             1706.44  1713.73  1747.64  1757.41  1772.20
                             1773.45  1826.14  1845.72  1854.88  1873.89
                             1889.34  1923.21  1940.17  1960.42  1976.65
                             1981.85  2004.74  2005.77  2060.63  2099.91
                             2137.87  2140.37  2150.41  2157.74  2175.06
                             2177.89  2185.75  2190.14  2194.72  2198.85
                             2220.04  2220.19  2362.24  2379.92  2569.79
                             4348.48  4349.93  4358.10  4368.70  4384.47
                             4393.60  4405.28  4456.93  4466.01  4473.43
                             4475.92  4480.78  4506.08  4517.90  4531.05
                             4581.64  4625.23  4633.12

 Zero-point correction=                           0.313484 (Hartree/Particle)
 Thermal correction to Energy=                    0.331727
 Thermal correction to Enthalpy=                  0.332671
 Thermal correction to Gibbs Free Energy=         0.266569
 Sum of electronic and zero-point Energies=          -1277.435762
 Sum of electronic and thermal Energies=             -1277.417520
 Sum of electronic and thermal Enthalpies=           -1277.416575
 Sum of electronic and thermal Free Energies=        -1277.482677

                     E (Thermal)             CV                S
                      KCal/Mol        Cal/Mol-Kelvin    Cal/Mol-Kelvin
 Total                  208.162             70.868            139.123
 Electronic               0.000              0.000              0.000
 Translational            0.889              2.981             42.934
 Rotational               0.889              2.981             34.065
 Vibrational            206.384             64.906             62.124
 Vibration     1          0.593              1.986              6.965
 Vibration     2          0.595              1.980              5.133
 Vibration     3          0.597              1.973              4.442
 Vibration     4          0.601              1.959              3.764
 Vibration     5          0.602              1.956              3.646
 Vibration     6          0.611              1.926              2.992
 Vibration     7          0.618              1.903              2.676
 Vibration     8          0.625              1.882              2.455
 Vibration     9          0.635              1.850              2.202
 Vibration    10          0.647              1.811              1.960
 Vibration    11          0.648              1.806              1.936
 Vibration    12          0.653              1.793              1.867
 Vibration    13          0.662              1.766              1.743
 Vibration    14          0.667              1.749              1.674
 Vibration    15          0.690              1.682              1.441
 Vibration    16          0.703              1.642              1.327
 Vibration    17          0.710              1.624              1.282
 Vibration    18          0.715              1.610              1.245
 Vibration    19          0.735              1.555              1.122
 Vibration    20          0.754              1.502              1.020
 Vibration    21          0.794              1.397              0.847
 Vibration    22          0.806              1.368              0.806
 Vibration    23          0.817              1.341              0.770
 Vibration    24          0.827              1.318              0.739
 Vibration    25          0.844              1.276              0.688
 Vibration    26          0.868              1.221              0.626
 Vibration    27          0.899              1.154              0.558
 Vibration    28          0.912              1.125              0.531
 Vibration    29          0.934              1.081              0.491
 Vibration    30          0.935              1.077              0.488
 Vibration    31          0.964              1.020              0.440

                           ! Non-Optimized Parameters !
 Normal termination of Gaussian 16 at Sat Dec 12 16:57:21 2020.

 ----------------------------------------------------------------------
 # B3LYP/6-311++G(d,p) empiricaldispersion=gd3bj scf=xqc pop=npa geom=c
 heck
 ----------------------------------------------------------------------

 ----------------------------------------
 CID_127851236_JID_10966_Energie_neutraal
 ----------------------------------------
 Structure from the checkpoint file:  "JID_10966.chk"
 Charge =  0 Multiplicity = 1

 SCF Done:  E(RB3LYP) =  -1278.01168269     A.U. after   16 cycles
 Normal termination of Gaussian 16 at Sat Dec 12 17:05:27 2020.

 ----------------------------------------------------------------------
 # B3LYP/6-311++G(d,p) empiricaldispersion=gd3bj scf=xqc pop=npa geom=c
 heck
 ----------------------------------------------------------------------

 --------------------------------------
 CID_127851236_JID_10966_Energie_kation
 --------------------------------------
 Structure from the checkpoint file:  "JID_10966.chk"
 Charge =  1 Multiplicity = 2

 SCF Done:  E(UB3LYP) =  -1277.71824625     A.U. after   24 cycles
 Normal termination of Gaussian 16 at Sat Dec 12 17:21:38 2020.
 Gaussian 16:  ES64L-G16RevA.03 25-Dec-2016

 ----------------------------------------------------------------------
 # B3LYP/6-311++G(d,p) empiricaldispersion=gd3bj scf=xqc pop=npa geom=c
 heck
 ----------------------------------------------------------------------

 -------------------------------------
 CID_127851236_JID_10966_Energie_anion
 -------------------------------------
 Structure from the checkpoint file:  "JID_10966.chk"
 Charge = -1 Multiplicity = 2

                         Standard orientation:
 ---------------------------------------------------------------------
 Center     Atomic      Atomic             Coordinates (Angstroms)
 Number     Number       Type             X           Y           Z
 ---------------------------------------------------------------------
      1          6           0       -4.859275    0.980212    0.555176
      2          7           0       -3.480596    0.510778    0.745369
      3          6           0       -3.266578   -0.161399    2.030095
      4         16           0       -2.885801   -0.383468   -0.579820
      5          8           0       -3.204515   -1.813467   -0.442878
      6          8           0       -3.298440    0.352646   -1.779106
      7          6           0       -1.130538   -0.194823   -0.343515
      8          6           0       -0.551720    1.064739   -0.485774
      9          6           0        0.822936    1.224310   -0.345625
     10          6           0        1.615771    0.094563   -0.047441
     11          6           0        1.021769   -1.172747    0.121203
     12          6           0       -0.352440   -1.310445   -0.043721
     13          6           0        1.909182   -2.332696    0.489193
     14          6           0        3.245273   -2.205653   -0.241770
     15          6           0        3.884917   -0.850937   -0.004657
     16          8           0        5.093441   -0.685030    0.058995
     17          7           0        3.011697    0.227314    0.101621
     18          6           0        3.656474    1.551365    0.200705
     19          6           0        2.652410    2.650505    0.516028
     20          6           0        1.477323    2.578083   -0.462097
     21          1           0       -5.066568    1.720106    1.334014
     22          1           0       -5.596515    0.167457    0.631747
     23          1           0       -4.945239    1.455019   -0.421838
     24          1           0       -3.890360   -1.058184    2.146294
     25          1           0       -2.215516   -0.444152    2.126829
     26          1           0       -3.504299    0.551537    2.824979
     27          1           0       -1.175802    1.923221   -0.711640
     28          1           0       -0.827459   -2.279863    0.064190
     29          1           0        1.420499   -3.282394    0.251316
     30          1           0        2.089030   -2.329833    1.574680
     31          1           0        3.089858   -2.314602   -1.324378
     32          1           0        3.967352   -2.964986    0.065192
     33          1           0        4.432988    1.479381    0.964840
     34          1           0        4.167074    1.759808   -0.747608
     35          1           0        2.281486    2.540654    1.542470
     36          1           0        3.162195    3.617417    0.453410
     37          1           0        0.743574    3.366018   -0.263571
     38          1           0        1.845887    2.738581   -1.485643
 ---------------------------------------------------------------------

 SCF Done:  E(UB3LYP) =  -1278.01606385     A.U. after   31 cycles

 The electronic state is 2-A.
 Alpha  occ. eigenvalues --  -88.93178 -18.99277 -18.99174 -18.97630 -14.24386
 Alpha  occ. eigenvalues --  -14.23130 -10.15207 -10.10769 -10.09734 -10.09641
 Alpha  occ. eigenvalues --  -10.08587 -10.08159 -10.07694 -10.07629 -10.07615
 Alpha  occ. eigenvalues --  -10.06589 -10.06120 -10.05968 -10.05772 -10.05223
 Alpha  occ. eigenvalues --   -7.99371  -5.95668  -5.95634  -5.95430  -0.99288
 Alpha  occ. eigenvalues --   -0.93316  -0.88370  -0.84306  -0.82399  -0.74406
 Alpha  occ. eigenvalues --   -0.72221  -0.68236  -0.65613  -0.63710  -0.61760
 Alpha  occ. eigenvalues --   -0.59224  -0.57443  -0.55031  -0.52676  -0.51965
 Alpha  occ. eigenvalues --   -0.47458  -0.45309  -0.43297  -0.41274  -0.40124
 Alpha  occ. eigenvalues --   -0.39102  -0.38631  -0.38388  -0.36818  -0.36090
 Alpha  occ. eigenvalues --   -0.34877  -0.33803  -0.33280  -0.32809  -0.32011
 Alpha  occ. eigenvalues --   -0.31351  -0.30856  -0.30569  -0.30286  -0.29606
 Alpha  occ. eigenvalues --   -0.29165  -0.28485  -0.27933  -0.27465  -0.25884
 Alpha  occ. eigenvalues --   -0.24448  -0.24307  -0.23670  -0.22564  -0.22100
 Alpha  occ. eigenvalues --   -0.20516  -0.19856  -0.18716  -0.18311  -0.14982
 Alpha  occ. eigenvalues --   -0.14592  -0.13464  -0.10636   0.04033
 Alpha virt. eigenvalues --    0.06648   0.06952   0.07949   0.08558   0.08975
 Alpha virt. eigenvalues --    0.09385   0.09718   0.09866   0.10504   0.11019
 Alpha virt. eigenvalues --    0.11056   0.11827   0.11982   0.12493   0.12764

  Beta  occ. eigenvalues --  -88.93166 -18.99253 -18.99131 -18.97450 -14.24472
  Beta  occ. eigenvalues --  -14.23105 -10.15032 -10.10762 -10.09724 -10.09602
  Beta  occ. eigenvalues --  -10.08214 -10.08157 -10.07703 -10.07625 -10.07606
  Beta  occ. eigenvalues --  -10.06665 -10.06094 -10.05754 -10.05695 -10.05061
  Beta  occ. eigenvalues --   -7.99357  -5.95650  -5.95590  -5.95428  -0.99169
  Beta  occ. eigenvalues --   -0.93009  -0.88290  -0.84147  -0.82320  -0.74148
  Beta  occ. eigenvalues --   -0.72152  -0.68128  -0.65319  -0.63417  -0.61695
  Beta  occ. eigenvalues --   -0.59033  -0.57280  -0.54850  -0.52453  -0.51782
  Beta  occ. eigenvalues --   -0.47369  -0.45231  -0.43090  -0.41118  -0.40041
  Beta  occ. eigenvalues --   -0.38945  -0.38509  -0.38224  -0.36770  -0.36012
  Beta  occ. eigenvalues --   -0.34785  -0.33740  -0.33107  -0.32736  -0.31949
  Beta  occ. eigenvalues --   -0.31208  -0.30768  -0.30425  -0.30235  -0.29338
  Beta  occ. eigenvalues --   -0.28859  -0.28399  -0.27891  -0.27340  -0.25780
  Beta  occ. eigenvalues --   -0.24198  -0.24082  -0.23040  -0.22472  -0.22005
  Beta  occ. eigenvalues --   -0.20319  -0.19394  -0.18267  -0.18128  -0.14837
  Beta  occ. eigenvalues --   -0.14502  -0.12774  -0.09661
  Beta virt. eigenvalues --    0.06582   0.07064   0.07918   0.08601   0.08891
  Beta virt. eigenvalues --    0.09156   0.09416   0.09755   0.09948   0.10529
  Beta virt. eigenvalues --    0.11021   0.11292   0.11755   0.12245   0.12473

 Mulliken charges and spin densities:
               1          2
     1  C    0.066416  -0.344867
     2  N   -0.203532   0.190530
     3  C   -0.130628  -0.309680
     4  S    0.653602  -0.336103
     5  O   -0.128540   0.014494
     6  O   -0.221911  -0.012367
     7  C    0.007243  -0.229947
     8  C   -0.712385   0.170210
     9  C    0.301717   0.216457
    10  C   -0.430480   0.262671
    11  C    0.351051   0.026759
    12  C   -0.525678   0.082692
    13  C   -0.340708   0.041297
    14  C   -0.325674  -0.019277
    15  C   -0.046188   0.106925
    16  O   -0.382999   0.063596
    17  N    0.183503  -0.027431
    18  C   -0.105825  -0.052104
    19  C   -0.264317  -0.149496
    20  C   -0.455124   0.095034
    21  H   -0.166503   0.309941
    22  H    0.044110   0.084190
    23  H    0.083604   0.079598
    24  H    0.095784   0.087851
    25  H    0.079945   0.039023
    26  H   -0.086412   0.234564
    27  H    0.154429   0.030480
    28  H    0.208138   0.016129
    29  H    0.119794   0.025459
    30  H    0.163297  -0.000569
    31  H    0.146693   0.016762
    32  H    0.176780   0.000083
    33  H    0.206115  -0.011975
    34  H    0.153635   0.026260
    35  H    0.057535   0.102087
    36  H    0.120276   0.025766
    37  H    0.007588   0.146578
    38  H    0.145648  -0.001618
 Sum of Mulliken charges =  -1.00000   1.00000

 Dipole moment (field-independent basis, Debye):
    X=              2.2082    Y=              0.8949    Z=              1.4993  Tot=              2.8151
 Quadrupole moment (field-independent basis, Debye-Ang):
   XX=           -215.5915   YY=           -144.6194   ZZ=           -146.1472
   XY=              4.2555   XZ=             -5.4359   YZ=             -4.1360

 Summary of Natural Population Analysis:

                                       Natural Population
                Natural  -----------------------------------------------
    Atom  No    Charge         Core      Valence    Rydberg      Total
 -----------------------------------------------------------------------
      C    1   -0.18351      0.99964     2.17460    0.00927     3.18351
      N    2   -0.36428      0.99977     2.85031    0.01421     3.86428
      C    3   -0.18465      0.99963     2.17528    0.00974     3.18465
      S    4    1.11459      4.99913     1.78808    0.09820     6.88541
      O    5   -0.47413      0.99991     3.46894    0.00529     4.47413
      O    6   -0.46748      0.99991     3.46228    0.00529     4.46748
      C    7   -0.11090      0.99936     2.09583    0.01571     3.11090
      C    8   -0.05347      0.99947     2.04310    0.01090     3.05347
      C    9   -0.04649      0.99950     2.03640    0.01059     3.04649
      C   10    0.15017      0.99940     1.84009    0.01033     2.84983
      C   11   -0.03048      0.99949     2.02226    0.00872     3.03048
      C   12   -0.08198      0.99947     2.07344    0.00907     3.08198
      C   13   -0.19191      0.99961     2.18347    0.00883     3.19191
      C   14   -0.22613      0.99960     2.21999    0.00653     3.22613
      C   15    0.37215      0.99967     1.60705    0.02113     2.62785
      O   16   -0.31070      0.99988     3.30470    0.00613     4.31070
      N   17   -0.25556      0.99961     2.74759    0.00836     3.75556
      C   18   -0.07915      0.99962     2.06977    0.00976     3.07915
      C   19   -0.19278      0.99963     2.18604    0.00710     3.19278
      C   20   -0.19156      0.99960     2.18410    0.00785     3.19156
      H   21    0.09639      0.00000     0.40232    0.00129     0.40361
      H   22    0.08548      0.00000     0.41325    0.00127     0.41452
      H   23    0.11125      0.00000     0.38766    0.00110     0.38875
      H   24    0.09071      0.00000     0.40814    0.00115     0.40929
      H   25    0.10801      0.00000     0.39107    0.00092     0.39199
      H   26    0.09578      0.00000     0.40324    0.00098     0.40422
      H   27    0.10455      0.00000     0.39418    0.00127     0.39545
      H   28    0.10994      0.00000     0.38888    0.00118     0.39006
      H   29    0.10028      0.00000     0.39817    0.00155     0.39972
      H   30    0.09894      0.00000     0.39976    0.00129     0.40106
      H   31    0.10695      0.00000     0.39203    0.00102     0.39305
      H   32    0.10671      0.00000     0.39215    0.00114     0.39329
      H   33    0.10535      0.00000     0.39337    0.00129     0.39465
      H   34    0.09113      0.00000     0.40698    0.00189     0.40887
      H   35    0.09898      0.00000     0.39975    0.00127     0.40102
      H   36    0.09773      0.00000     0.40113    0.00114     0.40227
      H   37    0.10318      0.00000     0.39556    0.00126     0.39682
      H   38    0.09687      0.00000     0.40189    0.00124     0.40313
 =======================================================================
   * Total *    0.00000     23.99189    53.70286    0.30525    78.00000

 Normal termination of Gaussian 16 at Sat Dec 12 17:41:59 2020.
