 Gaussian 16, Revision A.03,

 -----------------------------------------------------------
 # opt freq B3LYP/6-31G(d) empiricaldispersion=gd3bj scf=xqc
 -----------------------------------------------------------

 -------------------------------
 CID_142873416_JID_7643_neutraal
 -------------------------------
 Symbolic Z-matrix:
 Charge =  0 Multiplicity = 1

 SCF Done:  E(RB3LYP) =  -729.150825735     A.U. after   15 cycles
 SCF Done:  E(RB3LYP) =  -729.154411575     A.U. after   13 cycles
 SCF Done:  E(RB3LYP) =  -729.154966574     A.U. after   11 cycles
 SCF Done:  E(RB3LYP) =  -729.155302428     A.U. after   12 cycles
 SCF Done:  E(RB3LYP) =  -729.155408609     A.U. after   11 cycles
 SCF Done:  E(RB3LYP) =  -729.155406078     A.U. after   11 cycles
 SCF Done:  E(RB3LYP) =  -729.155629032     A.U. after   11 cycles
 SCF Done:  E(RB3LYP) =  -729.156020679     A.U. after   12 cycles
 SCF Done:  E(RB3LYP) =  -729.156099170     A.U. after   10 cycles
 SCF Done:  E(RB3LYP) =  -729.156137526     A.U. after   10 cycles
 SCF Done:  E(RB3LYP) =  -729.158007431     A.U. after    9 cycles
 SCF Done:  E(RB3LYP) =  -729.158008037     A.U. after    8 cycles
 SCF Done:  E(RB3LYP) =  -729.158008113     A.U. after    7 cycles
 SCF Done:  E(RB3LYP) =  -729.158008181     A.U. after    6 cycles
 SCF Done:  E(RB3LYP) =  -729.158008220     A.U. after    6 cycles
 Optimization completed.
    -- Stationary point found.
 Normal termination of Gaussian 16 at Mon Dec 14 17:31:48 2020.

 --------------------------------------------------------------------
 #N Geom=AllCheck Guess=TCheck SCRF=Check GenChk RB3LYP/6-31G(d) Freq
 --------------------------------------------------------------------

 Structure from the checkpoint file:  "JID_7643.chk"
 -------------------------------
 CID_142873416_JID_7643_neutraal
 -------------------------------
 Charge =  0 Multiplicity = 1

 SCF Done:  E(RB3LYP) =  -729.158008220     A.U. after    1 cycles

  Exact polarizability: 204.738  12.965 173.094  -5.786  -6.094  97.384
 Approx polarizability: 310.737  17.217 312.787  -7.140 -11.879 139.890

 ******    1 imaginary frequencies (negative Signs) ******

                      1                      2                      3
                      A                      A                      A
 Frequencies --     -3.4277                30.6232                37.7047
 Red. masses --      2.9532                 2.2376                 4.1098
 Frc consts  --      0.0000                 0.0012                 0.0034
 IR Inten    --      0.2158                 0.0066                 0.0718

                      4                      5                      6
                      A                      A                      A
 Frequencies --     70.1545                74.6072                89.0055
 Red. masses --      2.4852                 1.6287                 3.0135
 Frc consts  --      0.0072                 0.0053                 0.0141
 IR Inten    --      0.9634                 0.0319                 3.7222

                      7                      8                      9
                      A                      A                      A
 Frequencies --     99.2110               106.6655               148.5248
 Red. masses --      2.7706                 2.1566                 3.6810
 Frc consts  --      0.0161                 0.0145                 0.0478
 IR Inten    --      0.1904                 0.0716                 0.3653

                     10                     11                     12
                      A                      A                      A
 Frequencies --    178.2349               220.8316               223.3071
 Red. masses --      3.2373                 4.3901                 4.2461
 Frc consts  --      0.0606                 0.1261                 0.1248
 IR Inten    --      1.9951                 0.1383                 0.3756

                     13                     14                     15
                      A                      A                      A
 Frequencies --    316.0936               324.2577               328.9805
 Red. masses --      4.8895                 1.0147                 2.4453
 Frc consts  --      0.2878                 0.0629                 0.1559
 IR Inten    --      6.8391                 0.0314                 6.9494

                     16                     17                     18
                      A                      A                      A
 Frequencies --    347.6751               396.8864               421.4424
 Red. masses --      3.0455                 4.3639                 6.0813
 Frc consts  --      0.2169                 0.4050                 0.6364
 IR Inten    --      2.9278                 0.8134                 2.4073

                     19                     20                     21
                      A                      A                      A
 Frequencies --    436.6941               491.8585               503.7755
 Red. masses --      3.2294                 6.2241                 3.3172
 Frc consts  --      0.3628                 0.8872                 0.4960
 IR Inten    --      2.8081                 1.2217                 2.2847

                     22                     23                     24
                      A                      A                      A
 Frequencies --    547.8871               586.0799               616.7083
 Red. masses --      3.4367                 4.0202                 2.0784
 Frc consts  --      0.6078                 0.8136                 0.4657
 IR Inten    --      2.3311                 1.8773                16.3246

                     25                     26                     27
                      A                      A                      A
 Frequencies --    633.4555               646.8552               685.8958
 Red. masses --      5.0577                 2.1976                 3.8645
 Frc consts  --      1.1957                 0.5418                 1.0712
 IR Inten    --      7.6248                16.5253                 2.3124

                     28                     29                     30
                      A                      A                      A
 Frequencies --    721.4198               742.7861               783.0865
 Red. masses --      2.4932                 3.0170                 1.7446
 Frc consts  --      0.7645                 0.9807                 0.6303
 IR Inten    --     81.4670                21.5001                28.8897

                     31                     32                     33
                      A                      A                      A
 Frequencies --    796.1575               806.2488               832.2053
 Red. masses --      2.7991                 3.3534                 1.0629
 Frc consts  --      1.0454                 1.2843                 0.4337
 IR Inten    --     61.8046                 0.8611                10.3254

                     34                     35                     36
                      A                      A                      A
 Frequencies --    835.7299               839.9845               887.9306
 Red. masses --      1.0591                 1.9989                 1.5619
 Frc consts  --      0.4358                 0.8310                 0.7255
 IR Inten    --      6.4412                89.9647                 1.5244

                     37                     38                     39
                      A                      A                      A
 Frequencies --    902.0397               909.5761               970.8364
 Red. masses --      2.1987                 2.8728                 1.3772
 Frc consts  --      1.0541                 1.4003                 0.7648
 IR Inten    --      3.8910                 6.2148                 2.3121

                     40                     41                     42
                      A                      A                      A
 Frequencies --    981.2399               998.1455               998.8195
 Red. masses --      1.7129                 1.9066                 1.4942
 Frc consts  --      0.9717                 1.1192                 0.8783
 IR Inten    --      4.1652                 4.8178                 2.5810

                     43                     44                     45
                      A                      A                      A
 Frequencies --   1013.5455              1022.4047              1068.0700
 Red. masses --      3.2434                 3.1641                 2.3478
 Frc consts  --      1.9631                 1.9487                 1.5780
 IR Inten    --      0.0396                 0.7034                 7.0549

                     46                     47                     48
                      A                      A                      A
 Frequencies --   1106.5835              1130.0355              1148.1837
 Red. masses --      2.9517                 1.7565                 3.5690
 Frc consts  --      2.1296                 1.3215                 2.7722
 IR Inten    --      5.7516                 1.8672                13.7324

                     49                     50                     51
                      A                      A                      A
 Frequencies --   1160.6376              1189.3911              1207.0216
 Red. masses --      3.2529                 1.3515                 1.5581
 Frc consts  --      2.5817                 1.1265                 1.3374
 IR Inten    --      6.7333                 7.2051                16.8776

                     52                     53                     54
                      A                      A                      A
 Frequencies --   1211.2507              1235.5330              1236.4231
 Red. masses --      1.1358                 1.5251                 1.6846
 Frc consts  --      0.9818                 1.3717                 1.5173
 IR Inten    --      8.1008                 5.1372                13.2499

                     55                     56                     57
                      A                      A                      A
 Frequencies --   1237.7867              1274.4630              1299.9585
 Red. masses --      1.5750                 1.5162                 2.0777
 Frc consts  --      1.4218                 1.4510                 2.0687
 IR Inten    --      3.4366                11.2310                 2.3340

                     58                     59                     60
                      A                      A                      A
 Frequencies --   1306.6616              1344.9733              1361.7581
 Red. masses --      2.4059                 1.4033                 2.2635
 Frc consts  --      2.4202                 1.4957                 2.4730
 IR Inten    --      5.0510                 8.1723                30.0970

                     61                     62                     63
                      A                      A                      A
 Frequencies --   1376.4997              1384.9076              1403.0905
 Red. masses --      5.1950                 1.2942                 1.7853
 Frc consts  --      5.7995                 1.4625                 2.0707
 IR Inten    --     20.3855                 2.1750                 2.6582

                     64                     65                     66
                      A                      A                      A
 Frequencies --   1416.9491              1432.1988              1454.0402
 Red. masses --      1.4617                 1.1989                 1.2600
 Frc consts  --      1.7291                 1.4489                 1.5695
 IR Inten    --     13.6630                 0.4986                 0.5798

                     67                     68                     69
                      A                      A                      A
 Frequencies --   1474.4962              1502.2855              1506.0514
 Red. masses --      2.3880                 1.1069                 2.0480
 Frc consts  --      3.0589                 1.4718                 2.7369
 IR Inten    --     18.8403                 1.8508                16.6655

                     70                     71                     72
                      A                      A                      A
 Frequencies --   1514.5848              1517.7755              1520.9297
 Red. masses --      1.1437                 1.2264                 1.1382
 Frc consts  --      1.5457                 1.6646                 1.5513
 IR Inten    --      0.9371                 3.5443                 3.3873

                     73                     74                     75
                      A                      A                      A
 Frequencies --   1528.8291              1533.2121              1534.8844
 Red. masses --      1.0245                 1.0253                 1.0617
 Frc consts  --      1.4109                 1.4201                 1.4737
 IR Inten    --      4.5803                 1.5356                 6.4847

                     76                     77                     78
                      A                      A                      A
 Frequencies --   1538.2070              1546.7813              1612.8120
 Red. masses --      1.0632                 2.6587                 5.7318
 Frc consts  --      1.4822                 3.7478                 8.7843
 IR Inten    --      5.4067                41.0659                 9.4274

                     79                     80                     81
                      A                      A                      A
 Frequencies --   1668.1350              1696.9301              1778.9925
 Red. masses --      5.7591                 6.8679                 8.7109
 Frc consts  --      9.4421                11.6521                16.2428
 IR Inten    --     36.9356                92.1131               473.0566

                     82                     83                     84
                      A                      A                      A
 Frequencies --   3008.2085              3014.1787              3046.2663
 Red. masses --      1.0701                 1.0628                 1.0872
 Frc consts  --      5.7056                 5.6889                 5.9440
 IR Inten    --     36.3944                40.0613                11.0078

                     85                     86                     87
                      A                      A                      A
 Frequencies --   3051.3540              3051.3824              3060.9405
 Red. masses --      1.0385                 1.0373                 1.0725
 Frc consts  --      5.6967                 5.6907                 5.9203
 IR Inten    --      6.3020                38.3348                60.4143

                     88                     89                     90
                      A                      A                      A
 Frequencies --   3074.0986              3100.1034              3104.8470
 Red. masses --      1.0927                 1.1014                 1.1056
 Frc consts  --      6.0842                 6.2364                 6.2794
 IR Inten    --     24.4269                 9.8594                46.6860

                     91                     92                     93
                      A                      A                      A
 Frequencies --   3108.3829              3131.2405              3140.8993
 Red. masses --      1.0996                 1.1020                 1.0998
 Frc consts  --      6.2594                 6.3662                 6.3924
 IR Inten    --     20.8212                36.6146                59.5578

                     94                     95                     96
                      A                      A                      A
 Frequencies --   3188.7489              3205.7247              3217.9021
 Red. masses --      1.0865                 1.0905                 1.0930
 Frc consts  --      6.5088                 6.6027                 6.6685
 IR Inten    --      5.6557                18.3470                14.9642

                     97                     98                     99
                      A                      A                      A
 Frequencies --   3227.6164              3477.6600              3592.5726
 Red. masses --      1.0940                 1.0739                 1.0769
 Frc consts  --      6.7149                 7.6520                 8.1889
 IR Inten    --      7.9527                 0.7971                44.6927

 - Thermochemistry -
 -------------------
 Temperature   298.150 Kelvin.  Pressure   1.00000 Atm.
 Atom     1 has atomic number  6 and mass  12.00000

 Molecular mass:   230.14191 amu.
 Principal axes and moments of inertia in atomic units:
                           1         2         3
     Eigenvalues --  2907.925824747.320645319.93406
           X            0.99965   0.02457   0.00945
           Y           -0.02448   0.99966  -0.00946
           Z           -0.00968   0.00923   0.99991
 This molecule is an asymmetric top.
 Rotational symmetry number  1.
 Warning -- assumption of classical behavior for rotation
           may cause significant error
 Rotational temperatures (Kelvin)      0.02979     0.01824     0.01628
 Rotational constants (GHZ):           0.62063     0.38016     0.33924
    1 imaginary frequencies ignored.
 Zero-point vibrational energy     788751.9 (Joules/Mol)
                                  188.51623 (Kcal/Mol)
 Warning -- explicit consideration of  23 degrees of freedom as
           vibrations may cause significant error
 Vibrational temperatures:     44.06    54.25   100.94   107.34   128.06
          (Kelvin)            142.74   153.47   213.69   256.44   317.73
                              321.29   454.79   466.53   473.33   500.23
                              571.03   606.36   628.31   707.67   724.82
                              788.29   843.24   887.31   911.40   930.68
                              986.85  1037.96  1068.70  1126.69  1145.49
                             1160.01  1197.36  1202.43  1208.55  1277.53
                             1297.83  1308.68  1396.82  1411.79  1436.11
                             1437.08  1458.27  1471.01  1536.71  1592.13
                             1625.87  1651.98  1669.90  1711.27  1736.63
                             1742.72  1777.66  1778.94  1780.90  1833.67
                             1870.35  1879.99  1935.12  1959.27  1980.48
                             1992.57  2018.73  2038.67  2060.61  2092.04
                             2121.47  2161.45  2166.87  2179.15  2183.74
                             2188.28  2199.64  2205.95  2208.36  2213.14
                             2225.47  2320.48  2400.07  2441.50  2559.57
                             4328.14  4336.73  4382.90  4390.22  4390.26
                             4404.01  4422.94  4460.36  4467.18  4472.27
                             4505.16  4519.05  4587.90  4612.32  4629.84
                             4643.82  5003.58  5168.91

 Zero-point correction=                           0.300420 (Hartree/Particle)
 Thermal correction to Energy=                    0.316246
 Thermal correction to Enthalpy=                  0.317191
 Thermal correction to Gibbs Free Energy=         0.255981
 Sum of electronic and zero-point Energies=           -728.857588
 Sum of electronic and thermal Energies=              -728.841762
 Sum of electronic and thermal Enthalpies=            -728.840818
 Sum of electronic and thermal Free Energies=         -728.902027

                     E (Thermal)             CV                S
                      KCal/Mol        Cal/Mol-Kelvin    Cal/Mol-Kelvin
 Total                  198.448             60.112            128.827
 Electronic               0.000              0.000              0.000
 Translational            0.889              2.981             42.203
 Rotational               0.889              2.981             32.663
 Vibrational            196.670             54.150             53.961
 Vibration     1          0.594              1.984              5.789
 Vibration     2          0.594              1.982              5.376
 Vibration     3          0.598              1.968              4.149
 Vibration     4          0.599              1.966              4.028
 Vibration     5          0.602              1.957              3.682
 Vibration     6          0.604              1.950              3.470
 Vibration     7          0.606              1.944              3.329
 Vibration     8          0.618              1.904              2.691
 Vibration     9          0.629              1.869              2.347
 Vibration    10          0.648              1.809              1.952
 Vibration    11          0.649              1.806              1.932
 Vibration    12          0.703              1.643              1.330
 Vibration    13          0.709              1.627              1.289
 Vibration    14          0.712              1.618              1.265
 Vibration    15          0.725              1.580              1.177
 Vibration    16          0.763              1.477              0.974
 Vibration    17          0.784              1.424              0.887
 Vibration    18          0.797              1.390              0.837
 Vibration    19          0.848              1.268              0.679
 Vibration    20          0.859              1.242              0.649
 Vibration    21          0.903              1.144              0.549
 Vibration    22          0.943              1.061              0.474
 Vibration    23          0.976              0.997              0.422

                           ! Non-Optimized Parameters !
 Normal termination of Gaussian 16 at Mon Dec 14 17:46:32 2020.

 ----------------------------------------------------------------------
 # B3LYP/6-311++G(d,p) empiricaldispersion=gd3bj scf=xqc pop=npa geom=c
 heck
 ----------------------------------------------------------------------

 ---------------------------------------
 CID_142873416_JID_7643_Energie_neutraal
 ---------------------------------------
 Structure from the checkpoint file:  "JID_7643.chk"
 Charge =  0 Multiplicity = 1

 SCF Done:  E(RB3LYP) =  -729.358215646     A.U. after   15 cycles
 Normal termination of Gaussian 16 at Mon Dec 14 17:53:46 2020.

 ----------------------------------------------------------------------
 # B3LYP/6-311++G(d,p) empiricaldispersion=gd3bj scf=xqc pop=npa geom=c
 heck
 ----------------------------------------------------------------------

 -------------------------------------
 CID_142873416_JID_7643_Energie_kation
 -------------------------------------
 Structure from the checkpoint file:  "JID_7643.chk"
 Charge =  1 Multiplicity = 2

 SCF Done:  E(UB3LYP) =  -729.080158112     A.U. after   25 cycles
 Normal termination of Gaussian 16 at Mon Dec 14 18:10:10 2020.
 Gaussian 16:  ES64L-G16RevA.03 25-Dec-2016

 ----------------------------------------------------------------------
 # B3LYP/6-311++G(d,p) empiricaldispersion=gd3bj scf=xqc pop=npa geom=c
 heck
 ----------------------------------------------------------------------

 ------------------------------------
 CID_142873416_JID_7643_Energie_anion
 ------------------------------------
 Structure from the checkpoint file:  "JID_7643.chk"
 Charge = -1 Multiplicity = 2

                         Standard orientation:
 ---------------------------------------------------------------------
 Center     Atomic      Atomic             Coordinates (Angstroms)
 Number     Number       Type             X           Y           Z
 ---------------------------------------------------------------------
      1          6           0        0.205282   -0.365192    3.047253
      2          6           0        0.980783    0.930200    2.805172
      3          6           0       -2.862572   -1.047962   -0.241219
      4          6           0       -3.591884    0.249069    0.142786
      5          7           0       -3.189068    1.388921   -0.676240
      6          6           0       -1.759957    1.671948   -0.540707
      7          6           0       -0.854972    0.452199   -0.537149
      8          6           0       -1.387561   -0.792283   -0.403300
      9          7           0       -0.569418   -1.906667   -0.393241
     10          6           0        0.819416   -1.907210   -0.477495
     11          8           0        1.446787   -2.962057   -0.453110
     12          6           0        1.407455   -0.563216   -0.581434
     13          6           0        2.803990   -0.451499   -0.629058
     14          6           0        3.404025    0.795111   -0.711733
     15          6           0        2.601981    1.946413   -0.752882
     16          6           0        1.219778    1.849166   -0.708990
     17          6           0        0.584468    0.591575   -0.618014
     18          1           0       -0.672554   -0.193278    3.681796
     19          1           0        0.830199   -1.116531    3.543107
     20          1           0       -0.144292   -0.797830    2.105167
     21          1           0        0.356448    1.678902    2.304979
     22          1           0        1.332675    1.365650    3.747709
     23          1           0        1.852894    0.756700    2.166846
     24          1           0       -3.021567   -1.820151    0.524655
     25          1           0       -3.276537   -1.450686   -1.178196
     26          1           0       -4.675688    0.115171    0.063399
     27          1           0       -3.369018    0.496334    1.188168
     28          1           0       -3.390661    1.177597   -1.652861
     29          1           0       -1.478436    2.348753   -1.355673
     30          1           0       -1.609950    2.239803    0.390473
     31          1           0       -0.981858   -2.826538   -0.291693
     32          1           0        3.386368   -1.366092   -0.595381
     33          1           0        4.485798    0.882244   -0.745171
     34          1           0        3.067128    2.926351   -0.815904
     35          1           0        0.622764    2.754377   -0.729555
 ---------------------------------------------------------------------

 SCF Done:  E(UB3LYP) =  -729.352759532     A.U. after   33 cycles
 SCF Done:  E(UB3LYP) =  -729.354886619     a.u. after    7 cycles

 The electronic state is 2-A.
 Alpha  occ. eigenvalues --  -18.95268 -14.23698 -14.19929 -10.13531 -10.10871
 Alpha  occ. eigenvalues --  -10.09492 -10.09482 -10.07724 -10.07045 -10.05734
 Alpha  occ. eigenvalues --  -10.05459 -10.05385 -10.05295 -10.05198 -10.05065
 Alpha  occ. eigenvalues --  -10.04575 -10.04153  -0.91056  -0.83480  -0.81141
 Alpha  occ. eigenvalues --   -0.74091  -0.68020  -0.66935  -0.64820  -0.63850
 Alpha  occ. eigenvalues --   -0.61662  -0.55175  -0.54095  -0.52489  -0.51142
 Alpha  occ. eigenvalues --   -0.48736  -0.46094  -0.43718  -0.42079  -0.39405
 Alpha  occ. eigenvalues --   -0.36964  -0.35694  -0.34730  -0.33740  -0.33110
 Alpha  occ. eigenvalues --   -0.32660  -0.32133  -0.31342  -0.30876  -0.30617
 Alpha  occ. eigenvalues --   -0.29626  -0.28961  -0.28441  -0.26624  -0.26335
 Alpha  occ. eigenvalues --   -0.25362  -0.24837  -0.24001  -0.23401  -0.22913
 Alpha  occ. eigenvalues --   -0.22466  -0.20728  -0.15858  -0.13920  -0.13673
 Alpha  occ. eigenvalues --   -0.12909  -0.09251   0.04457
 Alpha virt. eigenvalues --    0.06030   0.07596   0.07804   0.08287   0.08622
 Alpha virt. eigenvalues --    0.08986   0.09584   0.10053   0.10834   0.11176
 Alpha virt. eigenvalues --    0.12006   0.12196   0.12913   0.13199   0.13668

  Beta  occ. eigenvalues --  -18.95114 -14.23696 -14.19913 -10.13357 -10.10876
  Beta  occ. eigenvalues --  -10.09491 -10.09460 -10.07696 -10.07062 -10.05680
  Beta  occ. eigenvalues --  -10.05523 -10.05381 -10.05274 -10.05194 -10.04879
  Beta  occ. eigenvalues --  -10.04432 -10.03911  -0.90787  -0.83384  -0.81094
  Beta  occ. eigenvalues --   -0.73874  -0.67901  -0.66843  -0.64812  -0.63513
  Beta  occ. eigenvalues --   -0.61454  -0.55097  -0.53968  -0.52152  -0.51125
  Beta  occ. eigenvalues --   -0.48633  -0.45879  -0.43637  -0.41954  -0.39318
  Beta  occ. eigenvalues --   -0.36810  -0.35631  -0.34626  -0.33660  -0.33099
  Beta  occ. eigenvalues --   -0.32527  -0.32025  -0.31209  -0.30732  -0.30464
  Beta  occ. eigenvalues --   -0.29444  -0.28728  -0.28285  -0.26553  -0.26252
  Beta  occ. eigenvalues --   -0.25255  -0.24585  -0.23983  -0.23083  -0.22818
  Beta  occ. eigenvalues --   -0.22358  -0.20288  -0.15442  -0.13558  -0.12862
  Beta  occ. eigenvalues --   -0.12667  -0.08750
  Beta virt. eigenvalues --    0.06901   0.07657   0.07935   0.08300   0.08695
  Beta virt. eigenvalues --    0.08773   0.09304   0.09756   0.10142   0.10777
  Beta virt. eigenvalues --    0.11281   0.12207   0.12330   0.12909   0.13243

 Mulliken charges and spin densities:
               1          2
     1  C   -0.380622  -0.089275
     2  C   -0.468481   0.102004
     3  C   -1.008824   0.383688
     4  C    0.613313  -1.053082
     5  N   -0.148443   0.198482
     6  C    0.271271  -1.015892
     7  C   -0.322222   0.390393
     8  C    0.227961  -0.324168
     9  N   -0.203314   0.013713
    10  C   -0.122694   0.210779
    11  O   -0.390106   0.062568
    12  C    0.263709  -0.032727
    13  C   -0.131677   0.182282
    14  C   -0.316666  -0.054103
    15  C   -0.708515   0.121237
    16  C   -0.211352   0.013093
    17  C    0.958277  -0.039888
    18  H    0.033252   0.073401
    19  H    0.075579   0.033305
    20  H    0.445831  -0.186835
    21  H    0.094414   0.000811
    22  H    0.105082   0.024228
    23  H    0.151629  -0.003325
    24  H   -0.294307   0.412563
    25  H   -0.188932   0.386095
    26  H   -0.762288   0.970880
    27  H    0.249056  -0.101924
    28  H    0.077371   0.158504
    29  H    0.156637   0.009426
    30  H    0.147656   0.087649
    31  H    0.216572   0.099398
    32  H    0.189743  -0.013334
    33  H    0.128767   0.003855
    34  H    0.120099  -0.007663
    35  H    0.132223  -0.016138
 Sum of Mulliken charges =  -1.00000   1.00000

 Dipole moment (field-independent basis, Debye):
    X=              2.4965    Y=              3.2933    Z=              1.3471  Tot=              4.3466
 Quadrupole moment (field-independent basis, Debye-Ang):
   XX=           -168.8341   YY=           -138.3082   ZZ=           -125.0809
   XY=              6.7519   XZ=             -0.6532   YZ=             -1.9341

 Summary of Natural Population Analysis:

                                       Natural Population
                Natural  -----------------------------------------------
    Atom  No    Charge         Core      Valence    Rydberg      Total
 -----------------------------------------------------------------------
      C    1   -0.28615      0.99968     2.28214    0.00434     3.28615
      C    2   -0.28716      0.99968     2.28300    0.00448     3.28716
      C    3   -0.21175      0.99960     2.20253    0.00963     3.21175
      C    4   -0.08556      0.99964     2.07355    0.01237     3.08556
      N    5   -0.33326      0.99976     2.82106    0.01243     3.83326
      C    6   -0.09021      0.99960     2.07857    0.01204     3.09021
      C    7   -0.05554      0.99941     2.04704    0.00909     3.05554
      C    8    0.10418      0.99944     1.88476    0.01162     2.89582
      N    9   -0.29516      0.99963     2.78639    0.00914     3.79516
      C   10    0.34962      0.99961     1.62747    0.02331     2.65038
      O   11   -0.32103      0.99988     3.31589    0.00525     4.32103
      C   12   -0.06773      0.99945     2.05761    0.01068     3.06773
      C   13   -0.03575      0.99954     2.02771    0.00850     3.03575
      C   14   -0.12677      0.99957     2.11810    0.00910     3.12677
      C   15   -0.06062      0.99958     2.05237    0.00868     3.06062
      C   16   -0.08689      0.99954     2.07915    0.00820     3.08689
      C   17   -0.01429      0.99948     2.00435    0.01045     3.01429
      H   18    0.08907      0.00000     0.40978    0.00115     0.41093
      H   19    0.09226      0.00000     0.40677    0.00097     0.40774
      H   20    0.10331      0.00000     0.39520    0.00149     0.39669
      H   21    0.09661      0.00000     0.40203    0.00136     0.40339
      H   22    0.08696      0.00000     0.41218    0.00086     0.41304
      H   23    0.10580      0.00000     0.39292    0.00128     0.39420
      H   24    0.10293      0.00000     0.39544    0.00163     0.39707
      H   25    0.10353      0.00000     0.39406    0.00241     0.39647
      H   26    0.09740      0.00000     0.40076    0.00184     0.40260
      H   27    0.09004      0.00000     0.40850    0.00146     0.40996
      H   28    0.16987      0.00000     0.32785    0.00227     0.33013
      H   29    0.09635      0.00000     0.40239    0.00126     0.40365
      H   30    0.09225      0.00000     0.40640    0.00135     0.40775
      H   31    0.19490      0.00000     0.30275    0.00235     0.30510
      H   32    0.10621      0.00000     0.39280    0.00098     0.39379
      H   33    0.09319      0.00000     0.40586    0.00095     0.40681
      H   34    0.09037      0.00000     0.40873    0.00090     0.40963
      H   35    0.09304      0.00000     0.40545    0.00150     0.40696
 =======================================================================
   * Total *    0.00000     16.99309    44.81160    0.19531    62.00000

 Normal termination of Gaussian 16 at Mon Dec 14 20:22:22 2020.
