 Gaussian 16, Revision A.03,

 -----------------------------------------------------------
 # opt freq B3LYP/6-31G(d) empiricaldispersion=gd3bj scf=xqc
 -----------------------------------------------------------

 ------------------------------
 CID_83116522_JID_6190_neutraal
 ------------------------------
 Symbolic Z-matrix:
 Charge =  0 Multiplicity = 1

 SCF Done:  E(RB3LYP) =  -724.296842767     A.U. after   14 cycles
 SCF Done:  E(RB3LYP) =  -724.303786744     A.U. after   12 cycles
 SCF Done:  E(RB3LYP) =  -724.304458202     A.U. after   12 cycles
 SCF Done:  E(RB3LYP) =  -724.305385489     A.U. after   11 cycles
 SCF Done:  E(RB3LYP) =  -724.305673535     A.U. after   11 cycles
 SCF Done:  E(RB3LYP) =  -724.305922084     A.U. after   12 cycles
 SCF Done:  E(RB3LYP) =  -724.306078955     A.U. after   12 cycles
 SCF Done:  E(RB3LYP) =  -724.306259647     A.U. after   12 cycles
 SCF Done:  E(RB3LYP) =  -724.306407083     A.U. after   12 cycles
 SCF Done:  E(RB3LYP) =  -724.306524737     A.U. after   11 cycles
 SCF Done:  E(RB3LYP) =  -724.306555449     A.U. after    7 cycles
 SCF Done:  E(RB3LYP) =  -724.306555663     A.U. after    7 cycles
 SCF Done:  E(RB3LYP) =  -724.306555810     A.U. after    7 cycles
 SCF Done:  E(RB3LYP) =  -724.306555863     A.U. after    7 cycles
 SCF Done:  E(RB3LYP) =  -724.306555875     A.U. after    6 cycles
 Optimization completed.
    -- Stationary point found.
 Normal termination of Gaussian 16 at Thu Dec 10 21:20:59 2020.

 --------------------------------------------------------------------
 #N Geom=AllCheck Guess=TCheck SCRF=Check GenChk RB3LYP/6-31G(d) Freq
 --------------------------------------------------------------------

 Structure from the checkpoint file:  "JID_6190.chk"
 ------------------------------
 CID_83116522_JID_6190_neutraal
 ------------------------------
 Charge =  0 Multiplicity = 1

 SCF Done:  E(RB3LYP) =  -724.306555875     A.U. after    1 cycles

  Exact polarizability: 196.442   4.395 139.816   7.555  -7.189 100.865
 Approx polarizability: 249.739  10.891 225.795  20.736 -17.098 161.981

                      1                      2                      3
                      A                      A                      A
 Frequencies --     20.1370                36.1846                46.3299
 Red. masses --      4.2177                 4.2314                 4.3322
 Frc consts  --      0.0010                 0.0033                 0.0055
 IR Inten    --      0.3330                 1.8961                 1.4244

                      4                      5                      6
                      A                      A                      A
 Frequencies --     77.8776                92.7329               102.9794
 Red. masses --      3.7348                 2.2012                 2.8697
 Frc consts  --      0.0133                 0.0112                 0.0179
 IR Inten    --      0.3841                 2.2882                 1.9892

                      7                      8                      9
                      A                      A                      A
 Frequencies --    120.6097               137.4797               162.0284
 Red. masses --      3.7119                 2.6990                 1.1522
 Frc consts  --      0.0318                 0.0301                 0.0178
 IR Inten    --      1.0826                 1.4404                 1.8066

                     10                     11                     12
                      A                      A                      A
 Frequencies --    200.1788               230.5348               252.9339
 Red. masses --      2.9074                 2.5664                 2.9383
 Frc consts  --      0.0686                 0.0804                 0.1108
 IR Inten    --      0.3447                 1.3963                 9.2546

                     13                     14                     15
                      A                      A                      A
 Frequencies --    292.0091               315.2601               340.8683
 Red. masses --      2.2656                 3.1335                 2.9097
 Frc consts  --      0.1138                 0.1835                 0.1992
 IR Inten    --      8.4817                 4.3904                11.9114

                     16                     17                     18
                      A                      A                      A
 Frequencies --    346.2380               399.9812               415.2545
 Red. masses --      2.9519                 2.4152                 1.9855
 Frc consts  --      0.2085                 0.2277                 0.2017
 IR Inten    --      0.7841                 6.5047                35.8745

                     19                     20                     21
                      A                      A                      A
 Frequencies --    424.5915               467.4117               488.7236
 Red. masses --      1.5396                 3.2184                 3.1125
 Frc consts  --      0.1635                 0.4143                 0.4380
 IR Inten    --     15.6137                 5.6230                 8.1863

                     22                     23                     24
                      A                      A                      A
 Frequencies --    540.0668               562.3014               573.4274
 Red. masses --      3.2552                 4.1535                 5.0428
 Frc consts  --      0.5594                 0.7738                 0.9770
 IR Inten    --     43.5642                 0.7979                 2.6725

                     25                     26                     27
                      A                      A                      A
 Frequencies --    610.8661               627.7777               723.4291
 Red. masses --      4.9263                 3.8303                 2.1445
 Frc consts  --      1.0831                 0.8894                 0.6612
 IR Inten    --     18.3917                 9.4353                57.5401

                     28                     29                     30
                      A                      A                      A
 Frequencies --    738.3681               743.7576               756.4335
 Red. masses --      3.1148                 2.0213                 1.7274
 Frc consts  --      1.0005                 0.6588                 0.5823
 IR Inten    --     15.0486                14.6376                27.6296

                     31                     32                     33
                      A                      A                      A
 Frequencies --    776.4215               790.0735               814.8500
 Red. masses --      2.2279                 2.4408                 2.4648
 Frc consts  --      0.7913                 0.8977                 0.9642
 IR Inten    --    159.9674                46.0387                94.8569

                     34                     35                     36
                      A                      A                      A
 Frequencies --    835.2991               859.1923               873.8618
 Red. masses --      1.9513                 1.5046                 1.7078
 Frc consts  --      0.8022                 0.6544                 0.7684
 IR Inten    --     23.3932                 5.7444                51.6835

                     37                     38                     39
                      A                      A                      A
 Frequencies --    911.0631               922.9655               953.9147
 Red. masses --      1.3567                 2.9920                 1.2275
 Frc consts  --      0.6635                 1.5017                 0.6581
 IR Inten    --      7.9032                10.2114                 0.0995

                     40                     41                     42
                      A                      A                      A
 Frequencies --    968.5882              1033.9937              1066.9555
 Red. masses --      2.0315                 2.1971                 2.1663
 Frc consts  --      1.1229                 1.3840                 1.4530
 IR Inten    --      8.9128                20.7993                 3.9488

                     43                     44                     45
                      A                      A                      A
 Frequencies --   1094.5904              1094.9716              1101.9907
 Red. masses --      1.7438                 1.4483                 1.9345
 Frc consts  --      1.2309                 1.0231                 1.3841
 IR Inten    --     18.2305                 8.5955                55.8944

                     46                     47                     48
                      A                      A                      A
 Frequencies --   1131.8633              1145.1734              1152.5356
 Red. masses --      2.4612                 1.2226                 3.2730
 Frc consts  --      1.8577                 0.9447                 2.5615
 IR Inten    --     41.2713                 4.9569                38.9930

                     49                     50                     51
                      A                      A                      A
 Frequencies --   1179.1684              1181.0188              1192.4460
 Red. masses --      1.2224                 1.3930                 1.1001
 Frc consts  --      1.0014                 1.1447                 0.9216
 IR Inten    --      9.0091                 8.6909                 3.9247

                     52                     53                     54
                      A                      A                      A
 Frequencies --   1223.1501              1258.5552              1282.7894
 Red. masses --      1.6743                 2.1664                 2.0186
 Frc consts  --      1.4759                 2.0217                 1.9571
 IR Inten    --    243.2183                32.3801                 9.2186

                     55                     56                     57
                      A                      A                      A
 Frequencies --   1296.0371              1306.6906              1319.1624
 Red. masses --      3.4368                 2.1816                 1.5808
 Frc consts  --      3.4013                 2.1947                 1.6208
 IR Inten    --     72.3229                27.2622                40.6272

                     58                     59                     60
                      A                      A                      A
 Frequencies --   1347.9784              1379.8836              1394.6612
 Red. masses --      1.8022                 2.5651                 1.4374
 Frc consts  --      1.9294                 2.8776                 1.6472
 IR Inten    --     11.9434                 1.9847                78.8475

                     61                     62                     63
                      A                      A                      A
 Frequencies --   1417.5806              1442.2220              1462.4886
 Red. masses --      1.4707                 1.9738                 1.1627
 Frc consts  --      1.7413                 2.4190                 1.4653
 IR Inten    --     36.4046               205.9048                 2.9385

                     64                     65                     66
                      A                      A                      A
 Frequencies --   1474.9047              1479.0125              1498.5294
 Red. masses --      1.3362                 1.5427                 1.2356
 Frc consts  --      1.7126                 1.9883                 1.6347
 IR Inten    --      6.5491                43.5756                58.3006

                     67                     68                     69
                      A                      A                      A
 Frequencies --   1514.6451              1522.6806              1526.2388
 Red. masses --      1.0732                 1.1791                 1.0610
 Frc consts  --      1.4506                 1.6107                 1.4561
 IR Inten    --     16.6806                19.5916                14.7736

                     70                     71                     72
                      A                      A                      A
 Frequencies --   1528.5280              1535.6864              1537.7103
 Red. masses --      1.8195                 1.0874                 1.0656
 Frc consts  --      2.5047                 1.5109                 1.4845
 IR Inten    --     22.5479                16.4558                 3.1642

                     73                     74                     75
                      A                      A                      A
 Frequencies --   1558.6483              1561.7294              1650.0894
 Red. masses --      2.5906                 1.2237                 2.0548
 Frc consts  --      3.7081                 1.7584                 3.2963
 IR Inten    --     61.6002                64.3137                 9.9425

                     76                     77                     78
                      A                      A                      A
 Frequencies --   1655.7494              1684.3557              1783.0893
 Red. masses --      4.5531                 1.9287                 7.2915
 Frc consts  --      7.3544                 3.2240                13.6587
 IR Inten    --      7.0565                84.2175               419.9397

                     79                     80                     81
                      A                      A                      A
 Frequencies --   2990.9431              3021.2687              3027.9025
 Red. masses --      1.0725                 1.0446                 1.0451
 Frc consts  --      5.6530                 5.6178                 5.6452
 IR Inten    --     60.2691                38.8661                96.6930

                     82                     83                     84
                      A                      A                      A
 Frequencies --   3040.0941              3068.6311              3090.0838
 Red. masses --      1.0707                 1.1038                 1.0938
 Frc consts  --      5.8304                 6.1240                 6.1533
 IR Inten    --     40.7736                41.5621                34.3958

                     85                     86                     87
                      A                      A                      A
 Frequencies --   3114.0614              3135.9938              3168.9253
 Red. masses --      1.0912                 1.0937                 1.0876
 Frc consts  --      6.2347                 6.3375                 6.4346
 IR Inten    --      9.6939                19.8234                20.6675

                     88                     89                     90
                      A                      A                      A
 Frequencies --   3173.6504              3182.9364              3188.0913
 Red. masses --      1.0882                 1.0945                 1.0969
 Frc consts  --      6.4580                 6.5333                 6.5684
 IR Inten    --      6.8078                 6.8386                 4.1796

                     91                     92                     93
                      A                      A                      A
 Frequencies --   3193.5111              3210.5092              3503.1249
 Red. masses --      1.0906                 1.0969                 1.0501
 Frc consts  --      6.5530                 6.6611                 7.5927
 IR Inten    --     23.3675                26.7970                11.3341

                     94                     95                     96
                      A                      A                      A
 Frequencies --   3508.4802              3576.2953              3616.1552
 Red. masses --      1.0727                 1.0746                 1.0954
 Frc consts  --      7.7797                 8.0979                 8.4393
 IR Inten    --      3.5177                19.3598                12.6430

 - Thermochemistry -
 -------------------
 Temperature   298.150 Kelvin.  Pressure   1.00000 Atm.
 Atom     1 has atomic number  6 and mass  12.00000

 Molecular mass:   222.14806 amu.
 Principal axes and moments of inertia in atomic units:
                           1         2         3
     Eigenvalues --  1319.226689304.949739691.43100
           X            0.99994  -0.00601  -0.00860
           Y            0.00602   0.99998   0.00068
           Z            0.00860  -0.00073   0.99996
 This molecule is an asymmetric top.
 Rotational symmetry number  1.
 Warning -- assumption of classical behavior for rotation
           may cause significant error
 Rotational temperatures (Kelvin)      0.06566     0.00931     0.00894
 Rotational constants (GHZ):           1.36803     0.19395     0.18622
 Zero-point vibrational energy     773871.2 (Joules/Mol)
                                  184.95966 (Kcal/Mol)
 Warning -- explicit consideration of  25 degrees of freedom as
           vibrations may cause significant error
 Vibrational temperatures:     28.97    52.06    66.66   112.05   133.42
          (Kelvin)            148.16   173.53   197.80   233.12   288.01
                              331.69   363.92   420.14   453.59   490.43
                              498.16   575.48   597.46   610.89   672.50
                              703.16   777.04   809.03   825.03   878.90
                              903.23  1040.85  1062.35  1070.10  1088.34
                             1117.10  1136.74  1172.39  1201.81  1236.19
                             1257.29  1310.82  1327.94  1372.47  1393.58
                             1487.69  1535.11  1574.87  1575.42  1585.52
                             1628.50  1647.65  1658.24  1696.56  1699.22
                             1715.66  1759.84  1810.78  1845.65  1864.71
                             1880.04  1897.98  1939.44  1985.34  2006.61
                             2039.58  2075.04  2104.19  2122.06  2127.97
                             2156.05  2179.24  2190.80  2195.92  2199.21
                             2209.51  2212.42  2242.55  2246.98  2374.11
                             2382.25  2423.41  2565.47  4303.30  4346.93
                             4356.48  4374.02  4415.08  4445.94  4480.44
                             4512.00  4559.38  4566.18  4579.54  4586.95
                             4594.75  4619.21  5040.22  5047.92  5145.49
                             5202.84

 Zero-point correction=                           0.294752 (Hartree/Particle)
 Thermal correction to Energy=                    0.311218
 Thermal correction to Enthalpy=                  0.312162
 Thermal correction to Gibbs Free Energy=         0.249015
 Sum of electronic and zero-point Energies=           -724.011804
 Sum of electronic and thermal Energies=              -723.995338
 Sum of electronic and thermal Enthalpies=            -723.994393
 Sum of electronic and thermal Free Energies=         -724.057541

                     E (Thermal)             CV                S
                      KCal/Mol        Cal/Mol-Kelvin    Cal/Mol-Kelvin
 Total                  195.292             61.541            132.906
 Electronic               0.000              0.000              0.000
 Translational            0.889              2.981             42.097
 Rotational               0.889              2.981             33.142
 Vibrational            193.515             55.580             57.667
 Vibration     1          0.593              1.986              6.621
 Vibration     2          0.594              1.982              5.458
 Vibration     3          0.595              1.979              4.968
 Vibration     4          0.599              1.964              3.944
 Vibration     5          0.602              1.954              3.602
 Vibration     6          0.605              1.947              3.397
 Vibration     7          0.609              1.932              3.091
 Vibration     8          0.614              1.916              2.839
 Vibration     9          0.622              1.889              2.526
 Vibration    10          0.638              1.840              2.131
 Vibration    11          0.652              1.794              1.875
 Vibration    12          0.664              1.758              1.710
 Vibration    13          0.687              1.689              1.462
 Vibration    14          0.703              1.645              1.335
 Vibration    15          0.720              1.594              1.208
 Vibration    16          0.724              1.583              1.183
 Vibration    17          0.766              1.470              0.963
 Vibration    18          0.779              1.437              0.908
 Vibration    19          0.787              1.417              0.877
 Vibration    20          0.825              1.322              0.745
 Vibration    21          0.845              1.275              0.687
 Vibration    22          0.895              1.161              0.565
 Vibration    23          0.918              1.113              0.519
 Vibration    24          0.930              1.089              0.498
 Vibration    25          0.970              1.009              0.431

 Optimization completed.
    -- Stationary point found.
 Normal termination of Gaussian 16 at Thu Dec 10 21:30:40 2020.

 ----------------------------------------------------------------------
 # B3LYP/6-311++G(d,p) empiricaldispersion=gd3bj scf=xqc pop=npa geom=c
 heck
 ----------------------------------------------------------------------

 --------------------------------------
 CID_83116522_JID_6190_Energie_neutraal
 --------------------------------------
 Structure from the checkpoint file:  "JID_6190.chk"
 Charge =  0 Multiplicity = 1

 SCF Done:  E(RB3LYP) =  -724.522894664     A.U. after   15 cycles
 Normal termination of Gaussian 16 at Thu Dec 10 21:35:43 2020.

 ----------------------------------------------------------------------
 # B3LYP/6-311++G(d,p) empiricaldispersion=gd3bj scf=xqc pop=npa geom=c
 heck
 ----------------------------------------------------------------------

 ------------------------------------
 CID_83116522_JID_6190_Energie_kation
 ------------------------------------
 Structure from the checkpoint file:  "JID_6190.chk"
 Charge =  1 Multiplicity = 2

 SCF Done:  E(UB3LYP) =  -724.248471271     A.U. after   28 cycles
 Normal termination of Gaussian 16 at Thu Dec 10 21:49:16 2020.
 Gaussian 16:  ES64L-G16RevA.03 25-Dec-2016

 ----------------------------------------------------------------------
 # B3LYP/6-311++G(d,p) empiricaldispersion=gd3bj scf=xqc pop=npa geom=c
 heck
 ----------------------------------------------------------------------

 -----------------------------------
 CID_83116522_JID_6190_Energie_anion
 -----------------------------------
 Structure from the checkpoint file:  "JID_6190.chk"
 Charge = -1 Multiplicity = 2

                         Standard orientation:
 ---------------------------------------------------------------------
 Center     Atomic      Atomic             Coordinates (Angstroms)
 Number     Number       Type             X           Y           Z
 ---------------------------------------------------------------------
      1          6           0        5.300288   -0.431542   -0.504655
      2          7           0        3.850569   -0.343012   -0.435572
      3          6           0        3.129041   -1.282089   -1.281608
      4          6           0        3.309422    0.203662    0.711991
      5          8           0        3.986557    0.512915    1.687015
      6          7           0        1.918392    0.384361    0.707815
      7          6           0        1.217624    1.049035   -0.403493
      8          6           0       -0.120409    0.385390   -0.710032
      9          7           0       -0.927525    0.296323    0.517800
     10          6           0       -2.268849   -0.143013    0.316028
     11          6           0       -2.689730   -1.437954    0.617823
     12          6           0       -4.018947   -1.825376    0.435852
     13          6           0       -4.932743   -0.905216   -0.075787
     14          6           0       -4.527829    0.394803   -0.378148
     15          6           0       -3.202700    0.796320   -0.176893
     16          7           0       -2.759131    2.090473   -0.477518
     17          1           0        5.667999   -1.389870   -0.109249
     18          1           0        5.736412    0.373634    0.084861
     19          1           0        5.617944   -0.340607   -1.549365
     20          1           0        2.113253   -1.416875   -0.912616
     21          1           0        3.089405   -0.941949   -2.324833
     22          1           0        3.629504   -2.260237   -1.262471
     23          1           0        1.668066    0.778612    1.607664
     24          1           0        1.045322    2.102736   -0.146016
     25          1           0        1.857655    1.032280   -1.288381
     26          1           0       -0.668474    0.991975   -1.437034
     27          1           0        0.037097   -0.608538   -1.160038
     28          1           0       -0.451174   -0.331751    1.161385
     29          1           0       -1.960214   -2.148427    1.001713
     30          1           0       -4.330134   -2.836253    0.680814
     31          1           0       -5.968874   -1.191873   -0.231973
     32          1           0       -5.246590    1.116306   -0.760241
     33          1           0       -3.495805    2.786588   -0.463755
     34          1           0       -1.980994    2.359799    0.119268
 ---------------------------------------------------------------------

 SCF Done:  E(UB3LYP) =  -724.512092779     A.U. after   33 cycles
 SCF Done:  E(UB3LYP) =  -724.512092779     a.u. after    1 cycles

 The electronic state is 2-A.
 Alpha  occ. eigenvalues --  -18.99417 -14.24945 -14.23909 -14.22895 -14.22301
 Alpha  occ. eigenvalues --  -10.20285 -10.12209 -10.12049 -10.11446 -10.11059
 Alpha  occ. eigenvalues --  -10.11040 -10.10479 -10.08630 -10.08517 -10.08128
 Alpha  occ. eigenvalues --  -10.08072  -0.95972  -0.85718  -0.84837  -0.82517
 Alpha  occ. eigenvalues --   -0.80684  -0.74830  -0.67178  -0.64553  -0.63254
 Alpha  occ. eigenvalues --   -0.62480  -0.60145  -0.53789  -0.53270  -0.50340
 Alpha  occ. eigenvalues --   -0.47788  -0.44270  -0.42851  -0.42538  -0.41114
 Alpha  occ. eigenvalues --   -0.40609  -0.38929  -0.38323  -0.36816  -0.36146
 Alpha  occ. eigenvalues --   -0.34556  -0.34217  -0.33343  -0.32789  -0.31906
 Alpha  occ. eigenvalues --   -0.31529  -0.30562  -0.29592  -0.29430  -0.28970
 Alpha  occ. eigenvalues --   -0.28454  -0.27258  -0.26221  -0.22545  -0.19954
 Alpha  occ. eigenvalues --   -0.18955  -0.16247  -0.15341  -0.14839  -0.11748
 Alpha  occ. eigenvalues --    0.03891
 Alpha virt. eigenvalues --    0.05216   0.06237   0.06972   0.07411   0.07628
 Alpha virt. eigenvalues --    0.07809   0.08712   0.08868   0.09019   0.09982
 Alpha virt. eigenvalues --    0.10652   0.11026   0.11197   0.11389   0.12061

  Beta  occ. eigenvalues --  -18.99415 -14.24942 -14.23901 -14.22887 -14.22253
  Beta  occ. eigenvalues --  -10.20284 -10.12207 -10.12032 -10.11443 -10.11045
  Beta  occ. eigenvalues --  -10.10993 -10.10448 -10.08619 -10.08509 -10.08127
  Beta  occ. eigenvalues --  -10.08053  -0.95967  -0.85699  -0.84823  -0.82490
  Beta  occ. eigenvalues --   -0.80647  -0.74804  -0.67155  -0.64519  -0.63197
  Beta  occ. eigenvalues --   -0.62446  -0.60094  -0.53748  -0.53234  -0.50310
  Beta  occ. eigenvalues --   -0.47748  -0.44231  -0.42808  -0.42505  -0.41070
  Beta  occ. eigenvalues --   -0.40574  -0.38890  -0.38297  -0.36782  -0.36112
  Beta  occ. eigenvalues --   -0.34528  -0.34177  -0.33319  -0.32761  -0.31871
  Beta  occ. eigenvalues --   -0.31486  -0.30531  -0.29565  -0.29407  -0.28939
  Beta  occ. eigenvalues --   -0.28430  -0.27235  -0.26195  -0.22513  -0.19934
  Beta  occ. eigenvalues --   -0.18938  -0.16222  -0.15321  -0.14805  -0.11721
  Beta virt. eigenvalues --    0.05966   0.06386   0.06772   0.07177   0.07696
  Beta virt. eigenvalues --    0.08133   0.08235   0.08837   0.09102   0.09500
  Beta virt. eigenvalues --    0.10407   0.10804   0.11246   0.11302   0.11746

 Mulliken charges and spin densities:
               1          2
     1  C    0.508598  -0.821719
     2  N   -0.262150   0.234066
     3  C    0.873406  -1.320810
     4  C   -0.212740   0.290777
     5  O   -0.367115   0.001871
     6  N   -0.261252   0.047419
     7  C    0.014811  -0.433155
     8  C   -0.099106  -0.339264
     9  N    0.069467  -0.039994
    10  C    0.600293  -0.589555
    11  C    0.192645   0.022202
    12  C   -0.180837  -0.124838
    13  C    0.448330  -0.797681
    14  C   -0.490515   0.246654
    15  C   -0.414720   0.183471
    16  N   -0.278698  -0.033222
    17  H   -0.039454   0.197291
    18  H    0.022220   0.146418
    19  H   -0.353209   0.505352
    20  H   -0.026961   0.185783
    21  H   -0.401923   0.587612
    22  H   -0.317286   0.466384
    23  H    0.216129   0.086718
    24  H   -0.148598   0.326450
    25  H    0.045824   0.159127
    26  H    0.120071   0.093720
    27  H    0.067480   0.052163
    28  H    0.395188  -0.141896
    29  H   -0.162362   0.279566
    30  H    0.073830   0.076794
    31  H    0.071976   0.063359
    32  H   -0.513239   0.673397
    33  H   -0.327866   0.589256
    34  H    0.137764   0.126283
 Sum of Mulliken charges =  -1.00000   1.00000

 Dipole moment (field-independent basis, Debye):
    X=             -2.1081    Y=             -2.1408    Z=              2.5763  Tot=              3.9578
 Quadrupole moment (field-independent basis, Debye-Ang):
   XX=           -209.4687   YY=           -140.6123   ZZ=           -137.7758
   XY=             19.4777   XZ=              1.7691   YZ=             -2.7902

 Summary of Natural Population Analysis:

                                       Natural Population
                Natural  -----------------------------------------------
    Atom  No    Charge         Core      Valence    Rydberg      Total
 -----------------------------------------------------------------------
      C    1   -0.17468      0.99964     2.16658    0.00846     3.17468
      N    2   -0.26709      0.99966     2.75718    0.01025     3.76709
      C    3   -0.17829      0.99963     2.16986    0.00880     3.17829
      C    4    0.41413      0.99966     1.56334    0.02287     2.58587
      O    5   -0.33798      0.99988     3.33290    0.00521     4.33798
      N    6   -0.34614      0.99968     2.83761    0.00885     3.84614
      C    7   -0.09385      0.99960     2.08288    0.01137     3.09385
      C    8   -0.09004      0.99960     2.08147    0.00897     3.09004
      N    9   -0.34087      0.99971     2.83003    0.01113     3.84087
      C   10    0.06036      0.99943     1.92921    0.01099     2.93964
      C   11   -0.10954      0.99952     2.10117    0.00885     3.10954
      C   12   -0.12179      0.99957     2.11175    0.01048     3.12179
      C   13   -0.10200      0.99957     2.09311    0.00932     3.10200
      C   14   -0.12093      0.99953     2.11128    0.01012     3.12093
      C   15    0.07916      0.99945     1.90954    0.01185     2.92084
      N   16   -0.39886      0.99972     2.88832    0.01083     3.89886
      H   17    0.09020      0.00000     0.40872    0.00108     0.40980
      H   18    0.11002      0.00000     0.38905    0.00093     0.38998
      H   19    0.09561      0.00000     0.40301    0.00138     0.40439
      H   20    0.10384      0.00000     0.39409    0.00206     0.39616
      H   21    0.09679      0.00000     0.40099    0.00223     0.40321
      H   22    0.09561      0.00000     0.40272    0.00167     0.40439
      H   23    0.19219      0.00000     0.30500    0.00281     0.30781
      H   24    0.09348      0.00000     0.40504    0.00148     0.40652
      H   25    0.10450      0.00000     0.39385    0.00165     0.39550
      H   26    0.10557      0.00000     0.39270    0.00172     0.39443
      H   27    0.08339      0.00000     0.41493    0.00168     0.41661
      H   28    0.18018      0.00000     0.31611    0.00370     0.31982
      H   29    0.09932      0.00000     0.39961    0.00107     0.40068
      H   30    0.09853      0.00000     0.40067    0.00079     0.40147
      H   31    0.09852      0.00000     0.40071    0.00078     0.40148
      H   32    0.10187      0.00000     0.39687    0.00125     0.39813
      H   33    0.18790      0.00000     0.30711    0.00499     0.31210
      H   34    0.19089      0.00000     0.30650    0.00262     0.30911
 =======================================================================
   * Total *   -0.00000     15.99385    43.80391    0.20224    60.00000

 Normal termination of Gaussian 16 at Thu Dec 10 22:05:04 2020.
