 Gaussian 16, Revision A.03,

 -----------------------------------------------------------
 # opt freq B3LYP/6-31G(d) empiricaldispersion=gd3bj scf=xqc
 -----------------------------------------------------------

 -------------------------------
 CID_116999228_JID_5345_neutraal
 -------------------------------
 Symbolic Z-matrix:
 Charge =  0 Multiplicity = 1

 SCF Done:  E(RB3LYP) =  -975.868900485     A.U. after   14 cycles
 SCF Done:  E(RB3LYP) =  -975.872038348     A.U. after   12 cycles
 SCF Done:  E(RB3LYP) =  -975.872463200     A.U. after   11 cycles
 SCF Done:  E(RB3LYP) =  -975.872595663     A.U. after   11 cycles
 SCF Done:  E(RB3LYP) =  -975.872673084     A.U. after   10 cycles
 SCF Done:  E(RB3LYP) =  -975.872704185     A.U. after   10 cycles
 SCF Done:  E(RB3LYP) =  -975.872708885     A.U. after    9 cycles
 SCF Done:  E(RB3LYP) =  -975.872709814     A.U. after    8 cycles
 SCF Done:  E(RB3LYP) =  -975.872710640     A.U. after    9 cycles
 SCF Done:  E(RB3LYP) =  -975.872710947     A.U. after    8 cycles
 SCF Done:  E(RB3LYP) =  -975.872711061     A.U. after    8 cycles
 Optimization completed.
    -- Stationary point found.
 Normal termination of Gaussian 16 at Thu Dec 10 15:35:35 2020.

 --------------------------------------------------------------------
 #N Geom=AllCheck Guess=TCheck SCRF=Check GenChk RB3LYP/6-31G(d) Freq
 --------------------------------------------------------------------

 Structure from the checkpoint file:  "JID_5345.chk"
 -------------------------------
 CID_116999228_JID_5345_neutraal
 -------------------------------
 Charge =  0 Multiplicity = 1

 SCF Done:  E(RB3LYP) =  -975.872711061     A.U. after    1 cycles

  Exact polarizability: 208.262  14.264 158.649  17.078  -7.816 101.504
 Approx polarizability: 279.337  23.359 260.224  32.448 -23.393 160.433

                      1                      2                      3
                      A                      A                      A
 Frequencies --     19.0597                40.7257                54.2900
 Red. masses --      3.6745                 4.2802                 3.7182
 Frc consts  --      0.0008                 0.0042                 0.0065
 IR Inten    --      0.6833                 0.4039                 1.3369

                      4                      5                      6
                      A                      A                      A
 Frequencies --     68.3845                90.5475               135.5046
 Red. masses --      3.5045                 3.9015                 4.2569
 Frc consts  --      0.0097                 0.0188                 0.0461
 IR Inten    --      2.7118                 0.7583                 0.0406

                      7                      8                      9
                      A                      A                      A
 Frequencies --    179.7321               221.0909               263.0740
 Red. masses --      2.0796                 3.0495                 1.5819
 Frc consts  --      0.0396                 0.0878                 0.0645
 IR Inten    --     13.3046                 4.6585                24.0829

                     10                     11                     12
                      A                      A                      A
 Frequencies --    281.5194               302.1334               304.6551
 Red. masses --      3.4677                 2.1008                 2.0660
 Frc consts  --      0.1619                 0.1130                 0.1130
 IR Inten    --      3.5936                13.2736                16.2213

                     13                     14                     15
                      A                      A                      A
 Frequencies --    333.4486               365.5225               383.1810
 Red. masses --      4.3027                 3.1076                 4.7594
 Frc consts  --      0.2819                 0.2446                 0.4117
 IR Inten    --      2.3440                 3.5907                 4.5852

                     16                     17                     18
                      A                      A                      A
 Frequencies --    416.9385               450.3035               460.2083
 Red. masses --      2.1237                 2.5687                 2.8858
 Frc consts  --      0.2175                 0.3069                 0.3601
 IR Inten    --      5.3809                12.9559                 8.7291

                     19                     20                     21
                      A                      A                      A
 Frequencies --    491.3139               508.5194               538.7015
 Red. masses --      1.4990                 2.7756                 4.0582
 Frc consts  --      0.2132                 0.4229                 0.6939
 IR Inten    --     81.0278                 8.3842                 2.0332

                     22                     23                     24
                      A                      A                      A
 Frequencies --    606.6864               655.2285               687.0234
 Red. masses --      4.8901                 3.2061                 2.7809
 Frc consts  --      1.0605                 0.8110                 0.7733
 IR Inten    --     10.5730                 9.0863                15.4701

                     25                     26                     27
                      A                      A                      A
 Frequencies --    695.4828               725.6591               742.2849
 Red. masses --      4.9158                 3.3813                 2.4640
 Frc consts  --      1.4009                 1.0490                 0.7999
 IR Inten    --      1.0860                 0.7910                 2.2890

                     28                     29                     30
                      A                      A                      A
 Frequencies --    778.6960               804.2764               822.0367
 Red. masses --      1.7742                 2.0124                 1.5477
 Frc consts  --      0.6339                 0.7670                 0.6162
 IR Inten    --      7.9964                 9.0102                 7.6495

                     31                     32                     33
                      A                      A                      A
 Frequencies --    860.9182               875.3224               901.2993
 Red. masses --      1.5388                 1.3094                 2.7671
 Frc consts  --      0.6720                 0.5911                 1.3244
 IR Inten    --     13.8095               162.0566                 1.0214

                     34                     35                     36
                      A                      A                      A
 Frequencies --    915.3404               928.6157               938.1225
 Red. masses --      2.0523                 2.0131                 1.3025
 Frc consts  --      1.0131                 1.0228                 0.6754
 IR Inten    --      7.7754                 3.2909                 0.2806

                     37                     38                     39
                      A                      A                      A
 Frequencies --    966.5644               993.4113              1010.6974
 Red. masses --      1.9105                 2.2327                 1.5971
 Frc consts  --      1.0516                 1.2982                 0.9612
 IR Inten    --     12.7182                 1.8360                 2.5602

                     40                     41                     42
                      A                      A                      A
 Frequencies --   1052.0313              1074.0341              1083.3621
 Red. masses --      1.6328                 1.8655                 4.4276
 Frc consts  --      1.0647                 1.2679                 3.0617
 IR Inten    --      3.7433                 6.6072                41.6393

                     43                     44                     45
                      A                      A                      A
 Frequencies --   1088.6410              1123.2451              1138.5790
 Red. masses --      2.3536                 1.9807                 2.3213
 Frc consts  --      1.6434                 1.4724                 1.7730
 IR Inten    --      0.8409                 1.7936                 6.5246

                     46                     47                     48
                      A                      A                      A
 Frequencies --   1156.5420              1181.5144              1205.9330
 Red. masses --      1.3667                 1.3805                 1.2934
 Frc consts  --      1.0771                 1.1354                 1.1082
 IR Inten    --      3.1667                 9.9155                16.7057

                     49                     50                     51
                      A                      A                      A
 Frequencies --   1216.5861              1227.9863              1238.2582
 Red. masses --      1.4518                 1.2975                 1.3928
 Frc consts  --      1.2660                 1.1528                 1.2583
 IR Inten    --      8.8575                 2.2357                 1.3804

                     52                     53                     54
                      A                      A                      A
 Frequencies --   1252.5243              1300.0539              1314.5725
 Red. masses --      1.2634                 1.9280                 1.5560
 Frc consts  --      1.1678                 1.9199                 1.5843
 IR Inten    --      3.9186                 4.4635                 4.0231

                     55                     56                     57
                      A                      A                      A
 Frequencies --   1319.6026              1341.7500              1362.5870
 Red. masses --      1.4035                 1.4872                 1.4073
 Frc consts  --      1.4400                 1.5775                 1.5394
 IR Inten    --      1.2363                 2.7852                21.9097

                     58                     59                     60
                      A                      A                      A
 Frequencies --   1366.1787              1375.5562              1395.1948
 Red. masses --      1.6217                 1.6449                 1.3668
 Frc consts  --      1.7833                 1.8338                 1.5676
 IR Inten    --     45.5251                60.5175                14.8838

                     61                     62                     63
                      A                      A                      A
 Frequencies --   1406.5870              1415.8136              1443.0731
 Red. masses --      1.5704                 1.4712                 2.0201
 Frc consts  --      1.8305                 1.7376                 2.4785
 IR Inten    --     20.9752                 1.1519                12.8412

                     64                     65                     66
                      A                      A                      A
 Frequencies --   1449.2127              1495.5377              1506.7317
 Red. masses --      1.4614                 1.0998                 1.0869
 Frc consts  --      1.8084                 1.4493                 1.4539
 IR Inten    --      6.9959                 7.5137                 2.4435

                     67                     68                     69
                      A                      A                      A
 Frequencies --   1517.7714              1525.6801              1527.7005
 Red. masses --      1.1077                 1.3316                 1.0959
 Frc consts  --      1.5034                 1.8262                 1.5070
 IR Inten    --      5.5512                50.3479                 4.6099

                     70                     71                     72
                      A                      A                      A
 Frequencies --   1543.5932              1547.1062              1560.4035
 Red. masses --      1.4931                 1.2354                 1.8961
 Frc consts  --      2.0961                 1.7422                 2.7202
 IR Inten    --     45.8272                27.6646                14.6984

                     73                     74                     75
                      A                      A                      A
 Frequencies --   1629.2034              1664.9282              1700.3226
 Red. masses --      6.0499                 5.5412                 1.0882
 Frc consts  --      9.4613                 9.0500                 1.8536
 IR Inten    --     24.6597                31.6874                32.3511

                     76                     77                     78
                      A                      A                      A
 Frequencies --   2960.4107              3001.3453              3036.6518
 Red. masses --      1.0730                 1.0695                 1.0617
 Frc consts  --      5.5405                 5.6763                 5.7681
 IR Inten    --    102.8637                71.8271                17.1556

                     79                     80                     81
                      A                      A                      A
 Frequencies --   3043.7985              3050.9783              3069.5124
 Red. masses --      1.0606                 1.0639                 1.1004
 Frc consts  --      5.7893                 5.8349                 6.1086
 IR Inten    --     42.7781                12.1724                 8.8213

                     82                     83                     84
                      A                      A                      A
 Frequencies --   3071.8229              3075.2415              3084.1716
 Red. masses --      1.0874                 1.0865                 1.1001
 Frc consts  --      6.0457                 6.0541                 6.1656
 IR Inten    --     65.0299                16.6668                50.9058

                     85                     86                     87
                      A                      A                      A
 Frequencies --   3090.2963              3095.8339              3142.7508
 Red. masses --      1.0652                 1.1044                 1.1090
 Frc consts  --      5.9937                 6.2366                 6.4534
 IR Inten    --     49.0934                65.4707                 9.3239

                     88                     89                     90
                      A                      A                      A
 Frequencies --   3158.0042              3179.5235              3196.7429
 Red. masses --      1.0888                 1.0865                 1.0945
 Frc consts  --      6.3976                 6.4717                 6.5902
 IR Inten    --     23.5533                 7.2561                16.7016

                     91                     92                     93
                      A                      A                      A
 Frequencies --   3467.3936              3549.6391              3590.7030
 Red. masses --      1.0498                 1.0920                 1.0757
 Frc consts  --      7.4365                 8.1066                 8.1713
 IR Inten    --      2.3469                 1.2543                 7.4206

 - Thermochemistry -
 -------------------
 Temperature   298.150 Kelvin.  Pressure   1.00000 Atm.
 Atom     1 has atomic number  6 and mass  12.00000

 Molecular mass:   222.11907 amu.
 Principal axes and moments of inertia in atomic units:
                           1         2         3
     Eigenvalues --  1615.622486908.802587873.81581
           X            0.99996   0.00851  -0.00179
           Y           -0.00851   0.99996   0.00181
           Z            0.00180  -0.00180   1.00000
 This molecule is an asymmetric top.
 Rotational symmetry number  1.
 Warning -- assumption of classical behavior for rotation
           may cause significant error
 Rotational temperatures (Kelvin)      0.05361     0.01254     0.01100
 Rotational constants (GHZ):           1.11706     0.26122     0.22921
 Zero-point vibrational energy     756217.8 (Joules/Mol)
                                  180.74038 (Kcal/Mol)
 Warning -- explicit consideration of  22 degrees of freedom as
           vibrations may cause significant error
 Vibrational temperatures:     27.42    58.60    78.11    98.39   130.28
          (Kelvin)            194.96   258.59   318.10   378.50   405.04
                              434.70   438.33   479.76   525.91   551.31
                              599.88   647.89   662.14   706.89   731.65
                              775.07   872.89   942.73   988.47  1000.64
                             1044.06  1067.98  1120.37  1157.17  1182.73
                             1238.67  1259.39  1296.77  1316.97  1336.07
                             1349.75  1390.67  1429.30  1454.17  1513.64
                             1545.30  1558.72  1566.31  1616.10  1638.16
                             1664.01  1699.94  1735.07  1750.40  1766.80
                             1781.58  1802.10  1870.49  1891.38  1898.61
                             1930.48  1960.46  1965.63  1979.12  2007.37
                             2023.76  2037.04  2076.26  2085.09  2151.75
                             2167.85  2183.73  2195.11  2198.02  2220.89
                             2225.94  2245.07  2344.06  2395.46  2446.38
                             4259.37  4318.27  4369.06  4379.35  4389.68
                             4416.34  4419.67  4424.59  4437.44  4446.25
                             4454.21  4521.72  4543.66  4574.63  4599.40
                             4988.81  5107.14  5166.22

 Zero-point correction=                           0.288028 (Hartree/Particle)
 Thermal correction to Energy=                    0.302837
 Thermal correction to Enthalpy=                  0.303781
 Thermal correction to Gibbs Free Energy=         0.244415
 Sum of electronic and zero-point Energies=           -975.584683
 Sum of electronic and thermal Energies=              -975.569874
 Sum of electronic and thermal Enthalpies=            -975.568930
 Sum of electronic and thermal Free Energies=         -975.628296

                     E (Thermal)             CV                S
                      KCal/Mol        Cal/Mol-Kelvin    Cal/Mol-Kelvin
 Total                  190.033             57.094            124.948
 Electronic               0.000              0.000              0.000
 Translational            0.889              2.981             42.097
 Rotational               0.889              2.981             32.841
 Vibrational            188.256             51.132             50.010
 Vibration     1          0.593              1.986              6.730
 Vibration     2          0.594              1.981              5.223
 Vibration     3          0.596              1.976              4.655
 Vibration     4          0.598              1.969              4.199
 Vibration     5          0.602              1.956              3.648
 Vibration     6          0.613              1.918              2.866
 Vibration     7          0.629              1.867              2.331
 Vibration     8          0.648              1.809              1.950
 Vibration     9          0.670              1.741              1.641
 Vibration    10          0.681              1.708              1.524
 Vibration    11          0.694              1.670              1.405
 Vibration    12          0.696              1.665              1.391
 Vibration    13          0.715              1.609              1.243
 Vibration    14          0.739              1.543              1.099
 Vibration    15          0.752              1.506              1.027
 Vibration    16          0.780              1.433              0.902
 Vibration    17          0.809              1.360              0.795
 Vibration    18          0.818              1.338              0.765
 Vibration    19          0.847              1.269              0.680
 Vibration    20          0.864              1.231              0.637
 Vibration    21          0.894              1.164              0.568
 Vibration    22          0.965              1.018              0.438

                           ! Non-Optimized Parameters !
 Normal termination of Gaussian 16 at Thu Dec 10 15:46:21 2020.

 ----------------------------------------------------------------------
 # B3LYP/6-311++G(d,p) empiricaldispersion=gd3bj scf=xqc pop=npa geom=c
 heck
 ----------------------------------------------------------------------

 ---------------------------------------
 CID_116999228_JID_5345_Energie_neutraal
 ---------------------------------------
 Structure from the checkpoint file:  "JID_5345.chk"
 Charge =  0 Multiplicity = 1

 SCF Done:  E(RB3LYP) =  -976.062887145     A.U. after   16 cycles
 Normal termination of Gaussian 16 at Thu Dec 10 15:51:50 2020.

 ----------------------------------------------------------------------
 # B3LYP/6-311++G(d,p) empiricaldispersion=gd3bj scf=xqc pop=npa geom=c
 heck
 ----------------------------------------------------------------------

 -------------------------------------
 CID_116999228_JID_5345_Energie_kation
 -------------------------------------
 Structure from the checkpoint file:  "JID_5345.chk"
 Charge =  1 Multiplicity = 2

 SCF Done:  E(UB3LYP) =  -975.805367516     A.U. after   25 cycles
 Normal termination of Gaussian 16 at Thu Dec 10 16:04:57 2020.
 Gaussian 16:  ES64L-G16RevA.03 25-Dec-2016

 ----------------------------------------------------------------------
 # B3LYP/6-311++G(d,p) empiricaldispersion=gd3bj scf=xqc pop=npa geom=c
 heck
 ----------------------------------------------------------------------

 ------------------------------------
 CID_116999228_JID_5345_Energie_anion
 ------------------------------------
 Structure from the checkpoint file:  "JID_5345.chk"
 Charge = -1 Multiplicity = 2

                         Standard orientation:
 ---------------------------------------------------------------------
 Center     Atomic      Atomic             Coordinates (Angstroms)
 Number     Number       Type             X           Y           Z
 ---------------------------------------------------------------------
      1          6           0        3.005594    1.973128    0.118966
      2          6           0        4.057760    0.889597   -0.095966
      3         16           0        3.510149   -0.703277    0.616961
      4          6           0        1.810964   -0.718972    0.066280
      5          6           0        1.150481    0.421465   -0.433311
      6          7           0        1.798181    1.645340   -0.620667
      7          6           0       -0.198211    0.300165   -0.809742
      8          6           0       -0.901768   -0.896326   -0.698405
      9          6           0       -0.227598   -2.019544   -0.199945
     10          6           0        1.109471   -1.925383    0.166407
     11          6           0       -2.365468   -0.979019   -1.067516
     12          6           0       -3.289154   -1.142912    0.157471
     13          6           0       -3.209036   -0.000515    1.179573
     14          6           0       -3.576198    1.378862    0.625516
     15          7           0       -4.943864    1.390933    0.090862
     16          1           0        2.827919    2.096272    1.198965
     17          1           0        3.382084    2.925687   -0.271407
     18          1           0        4.264176    0.773126   -1.163236
     19          1           0        4.987088    1.144795    0.420071
     20          1           0        1.157637    2.421298   -0.724819
     21          1           0       -0.703259    1.180620   -1.203950
     22          1           0       -0.746487   -2.969860   -0.108901
     23          1           0        1.631101   -2.803327    0.538684
     24          1           0       -2.650815   -0.083897   -1.633959
     25          1           0       -2.527104   -1.832052   -1.739387
     26          1           0       -4.325017   -1.255900   -0.188315
     27          1           0       -3.036178   -2.082539    0.664372
     28          1           0       -3.886316   -0.228181    2.011226
     29          1           0       -2.191978    0.048007    1.587842
     30          1           0       -3.536991    2.105807    1.445595
     31          1           0       -2.811388    1.696526   -0.105797
     32          1           0       -5.196736    2.339486   -0.180851
     33          1           0       -4.981364    0.839386   -0.764848
 ---------------------------------------------------------------------

 SCF Done:  E(UB3LYP) =  -976.053699249     A.U. after   31 cycles

 The electronic state is 2-A.
 Alpha  occ. eigenvalues --  -88.75617 -14.22640 -14.19703 -10.12291 -10.11269
 Alpha  occ. eigenvalues --  -10.11076 -10.10667 -10.09245 -10.08511 -10.08443
 Alpha  occ. eigenvalues --  -10.08092 -10.07817 -10.07293 -10.07271 -10.06864
 Alpha  occ. eigenvalues --   -7.84246  -5.80630  -5.80272  -5.79628  -0.84751
 Alpha  occ. eigenvalues --   -0.78772  -0.76196  -0.72098  -0.70358  -0.66499
 Alpha  occ. eigenvalues --   -0.64744  -0.61572  -0.57487  -0.55320  -0.52894
 Alpha  occ. eigenvalues --   -0.51980  -0.47456  -0.45484  -0.42899  -0.41097
 Alpha  occ. eigenvalues --   -0.39516  -0.39104  -0.38349  -0.36391  -0.34792
 Alpha  occ. eigenvalues --   -0.34587  -0.33552  -0.32424  -0.31497  -0.30975
 Alpha  occ. eigenvalues --   -0.30687  -0.29618  -0.28901  -0.28260  -0.26255
 Alpha  occ. eigenvalues --   -0.25587  -0.24551  -0.23611  -0.23072  -0.22360
 Alpha  occ. eigenvalues --   -0.20466  -0.18635  -0.14968  -0.13108  -0.09928
 Alpha  occ. eigenvalues --    0.04000
 Alpha virt. eigenvalues --    0.05614   0.06835   0.07240   0.07676   0.08235
 Alpha virt. eigenvalues --    0.08563   0.08925   0.09225   0.09382   0.10085
 Alpha virt. eigenvalues --    0.10218   0.10782   0.11529   0.12029   0.12404

  Beta  occ. eigenvalues --  -88.75616 -14.22614 -14.19667 -10.12288 -10.11229
  Beta  occ. eigenvalues --  -10.11054 -10.10662 -10.09224 -10.08511 -10.08443
  Beta  occ. eigenvalues --  -10.08080 -10.07812 -10.07287 -10.07255 -10.06862
  Beta  occ. eigenvalues --   -7.84246  -5.80630  -5.80271  -5.79627  -0.84706
  Beta  occ. eigenvalues --   -0.78714  -0.76178  -0.72074  -0.70330  -0.66470
  Beta  occ. eigenvalues --   -0.64723  -0.61534  -0.57445  -0.55274  -0.52847
  Beta  occ. eigenvalues --   -0.51942  -0.47418  -0.45440  -0.42833  -0.41067
  Beta  occ. eigenvalues --   -0.39480  -0.39078  -0.38314  -0.36354  -0.34763
  Beta  occ. eigenvalues --   -0.34540  -0.33506  -0.32397  -0.31455  -0.30944
  Beta  occ. eigenvalues --   -0.30642  -0.29590  -0.28877  -0.28237  -0.26234
  Beta  occ. eigenvalues --   -0.25562  -0.24537  -0.23590  -0.23053  -0.22335
  Beta  occ. eigenvalues --   -0.20445  -0.18619  -0.14931  -0.13090  -0.09912
  Beta virt. eigenvalues --    0.06149   0.06689   0.07227   0.07457   0.08308
  Beta virt. eigenvalues --    0.08364   0.08831   0.09140   0.09464   0.09769
  Beta virt. eigenvalues --    0.10171   0.10769   0.11110   0.11626   0.12320

 Mulliken charges and spin densities:
               1          2
     1  C    0.717627  -1.011888
     2  C   -0.117645  -0.290109
     3  S   -0.257289  -0.448223
     4  C    1.541567   0.180067
     5  C   -1.371391   0.150427
     6  N   -0.230299   0.281708
     7  C   -0.319438  -0.519856
     8  C    1.305072  -0.136784
     9  C   -0.743602   0.160260
    10  C   -0.268110   0.035730
    11  C    0.630279  -0.997701
    12  C   -0.017476  -0.334682
    13  C   -0.513595   0.280730
    14  C    0.730964  -1.168057
    15  N   -0.427977   0.053267
    16  H    0.068395   0.085242
    17  H   -0.992229   1.195139
    18  H    0.190100   0.031561
    19  H   -0.419351   0.624316
    20  H   -0.248968   0.518068
    21  H   -0.467393   0.628011
    22  H    0.075867   0.048260
    23  H    0.096520   0.059005
    24  H   -0.033476   0.212890
    25  H    0.073571   0.088273
    26  H    0.054482   0.090734
    27  H    0.103726   0.020109
    28  H    0.134968   0.020005
    29  H    0.131415  -0.004287
    30  H   -0.133682   0.284773
    31  H   -0.211855   0.328754
    32  H   -0.148030   0.394496
    33  H    0.067252   0.139764
 Sum of Mulliken charges =  -1.00000   1.00000

 Dipole moment (field-independent basis, Debye):
    X=             -0.2558    Y=             -8.6157    Z=              1.2887  Tot=              8.7153
 Quadrupole moment (field-independent basis, Debye-Ang):
   XX=           -195.7403   YY=           -152.6862   ZZ=           -127.9656
   XY=             -1.6491   XZ=             -0.4280   YZ=              4.6268

 Summary of Natural Population Analysis:

                                       Natural Population
                Natural  -----------------------------------------------
    Atom  No    Charge         Core      Valence    Rydberg      Total
 -----------------------------------------------------------------------
      C    1   -0.08945      0.99961     2.07705    0.01280     3.08945
      C    2   -0.25074      0.99959     2.24003    0.01112     3.25074
      S    3    0.11631      4.99956     2.86499    0.01914     7.88369
      C    4   -0.11209      0.99937     2.10113    0.01159     3.11209
      C    5    0.08286      0.99942     1.90547    0.01225     2.91714
      N    6   -0.31396      0.99968     2.80198    0.01230     3.81396
      C    7   -0.11355      0.99947     2.10455    0.00953     3.11355
      C    8   -0.01254      0.99951     2.00235    0.01068     3.01254
      C    9   -0.11991      0.99951     2.11225    0.00815     3.11991
      C   10   -0.09989      0.99952     2.09088    0.00950     3.09989
      C   11   -0.19952      0.99960     2.19042    0.00950     3.19952
      C   12   -0.18629      0.99962     2.17944    0.00723     3.18629
      C   13   -0.19601      0.99962     2.18765    0.00873     3.19601
      C   14   -0.09189      0.99964     2.08079    0.01146     3.09189
      N   15   -0.42559      0.99977     2.91510    0.01072     3.92559
      H   16    0.08782      0.00000     0.41037    0.00181     0.41218
      H   17    0.10635      0.00000     0.38828    0.00538     0.39365
      H   18    0.10378      0.00000     0.39460    0.00162     0.39622
      H   19    0.11064      0.00000     0.38784    0.00152     0.38936
      H   20    0.19262      0.00000     0.30207    0.00531     0.30738
      H   21    0.10202      0.00000     0.39582    0.00216     0.39798
      H   22    0.09658      0.00000     0.40211    0.00131     0.40342
      H   23    0.09968      0.00000     0.39938    0.00094     0.40032
      H   24    0.10125      0.00000     0.39737    0.00138     0.39875
      H   25    0.10067      0.00000     0.39838    0.00095     0.39933
      H   26    0.09585      0.00000     0.40302    0.00113     0.40415
      H   27    0.09560      0.00000     0.40330    0.00110     0.40440
      H   28    0.09715      0.00000     0.40175    0.00110     0.40285
      H   29    0.10184      0.00000     0.39705    0.00111     0.39816
      H   30    0.09107      0.00000     0.40784    0.00108     0.40893
      H   31    0.08107      0.00000     0.41625    0.00268     0.41893
      H   32    0.17754      0.00000     0.32021    0.00226     0.32246
      H   33    0.17074      0.00000     0.32731    0.00195     0.32926
 =======================================================================
   * Total *    0.00000     18.99349    40.80703    0.19948    60.00000

 Normal termination of Gaussian 16 at Thu Dec 10 16:20:39 2020.
