 Gaussian 16, Revision A.03,

 -----------------------------------------------------------
 # opt freq B3LYP/6-31G(d) empiricaldispersion=gd3bj scf=xqc
 -----------------------------------------------------------

 ------------------------------
 CID_102319463_JID_205_neutraal
 ------------------------------
 Symbolic Z-matrix:
 Charge =  0 Multiplicity = 1

 SCF Done:  E(RB3LYP) =  -497.963431908     A.U. after   16 cycles
 SCF Done:  E(RB3LYP) =  -497.976883762     A.U. after   14 cycles
 SCF Done:  E(RB3LYP) =  -497.979902553     A.U. after   14 cycles
 SCF Done:  E(RB3LYP) =  -497.981154281     A.U. after   14 cycles
 SCF Done:  E(RB3LYP) =  -497.981801756     A.U. after   13 cycles
 SCF Done:  E(RB3LYP) =  -497.982132106     A.U. after   14 cycles
 SCF Done:  E(RB3LYP) =  -497.982277983     A.U. after   13 cycles
 SCF Done:  E(RB3LYP) =  -497.982330026     A.U. after   11 cycles
 SCF Done:  E(RB3LYP) =  -497.982353624     A.U. after   11 cycles
 SCF Done:  E(RB3LYP) =  -497.982363019     A.U. after   10 cycles
 SCF Done:  E(RB3LYP) =  -497.982365518     A.U. after   10 cycles
 Optimization completed.
    -- Stationary point found.
 Normal termination of Gaussian 16 at Tue Dec  8 10:18:24 2020.

 --------------------------------------------------------------------
 #N Geom=AllCheck Guess=TCheck SCRF=Check GenChk RB3LYP/6-31G(d) Freq
 --------------------------------------------------------------------

 Structure from the checkpoint file:  "JID_205.chk"
 ------------------------------
 CID_102319463_JID_205_neutraal
 ------------------------------
 Charge =  0 Multiplicity = 1

 SCF Done:  E(RB3LYP) =  -497.982365518     A.U. after    1 cycles

  Exact polarizability:  84.725  -0.323  81.310   1.281   0.043  33.842
 Approx polarizability: 198.621   0.563 197.143   3.205  -1.002  62.120

                      1                      2                      3
                      A                      A                      A
 Frequencies --    255.4647               324.4570               338.8024
 Red. masses --      9.3327                11.0535                11.2767
 Frc consts  --      0.3589                 0.6856                 0.7626
 IR Inten    --      4.8092                 2.1074                 1.6914

                      4                      5                      6
                      A                      A                      A
 Frequencies --    489.6432               540.6813               557.1419
 Red. masses --      2.3983                 5.1149                 7.0572
 Frc consts  --      0.3388                 0.8810                 1.2907
 IR Inten    --     65.9386                20.6613                 4.8732

                      7                      8                      9
                      A                      A                      A
 Frequencies --    599.2093               696.8960               716.2955
 Red. masses --      4.4394                 4.2089                12.5174
 Frc consts  --      0.9391                 1.2043                 3.7840
 IR Inten    --     20.9970                25.7976                13.3607

                     10                     11                     12
                      A                      A                      A
 Frequencies --    735.6098               752.8458               798.2334
 Red. masses --     12.6605                10.8036                11.8093
 Frc consts  --      4.0364                 3.6077                 4.4334
 IR Inten    --      3.8740                28.9958                 7.2587

                     13                     14                     15
                      A                      A                      A
 Frequencies --    867.5651               917.4970               988.5585
 Red. masses --     12.9464                10.9523                12.4111
 Frc consts  --      5.7412                 5.4321                 7.1461
 IR Inten    --     14.7327                 3.9731               130.3971

                     16                     17                     18
                      A                      A                      A
 Frequencies --   1042.1591              1141.0551              1172.6992
 Red. masses --      6.5634                12.3324                12.4221
 Frc consts  --      4.2000                 9.4605                10.0651
 IR Inten    --     44.5043                28.2631                10.5175

                     19                     20                     21
                      A                      A                      A
 Frequencies --   1197.2189              1289.1554              1311.5683
 Red. masses --      9.7998                 3.2349                11.4431
 Frc consts  --      8.2759                 3.1675                11.5978
 IR Inten    --     10.3430                 6.4015                 1.4962

                     22                     23                     24
                      A                      A                      A
 Frequencies --   1366.6761              1387.6254              1479.1516
 Red. masses --     12.7433                 3.9195                 5.9028
 Frc consts  --     14.0238                 4.4465                 7.6091
 IR Inten    --     11.5353                11.4007                 4.8040

                     25                     26                     27
                      A                      A                      A
 Frequencies --   1495.3959              1519.5931              3651.4125
 Red. masses --      4.9661                 5.6867                 1.0822
 Frc consts  --      6.5430                 7.7369                 8.5016
 IR Inten    --     28.8233                 7.5092               160.7486

 - Thermochemistry -
 -------------------
 Temperature   298.150 Kelvin.  Pressure   1.00000 Atm.
 Atom     1 has atomic number  6 and mass  12.00000

 Molecular mass:   135.02934 amu.
 Principal axes and moments of inertia in atomic units:
                           1         2         3
     Eigenvalues --   756.18862 762.367801432.93390
           X            0.93016   0.36709   0.00702
           Y           -0.36710   0.93018   0.00054
           Z           -0.00633  -0.00308   0.99998
 This molecule is an asymmetric top.
 Rotational symmetry number  1.
 Warning -- assumption of classical behavior for rotation
           may cause significant error
 Rotational temperatures (Kelvin)      0.11454     0.11361     0.06045
 Rotational constants (GHZ):           2.38663     2.36728     1.25947
 Zero-point vibrational energy     165279.7 (Joules/Mol)
                                   39.50280 (Kcal/Mol)
 Warning -- explicit consideration of   7 degrees of freedom as
           vibrations may cause significant error
 Vibrational temperatures:    367.56   466.82   487.46   704.49   777.92
          (Kelvin)            801.60   862.13  1002.68  1030.59  1058.38
                             1083.18  1148.48  1248.23  1320.07  1422.32
                             1499.43  1641.72  1687.25  1722.53  1854.81
                             1887.05  1966.34  1996.48  2128.17  2151.54
                             2186.36  5253.57

 Zero-point correction=                           0.062952 (Hartree/Particle)
 Thermal correction to Energy=                    0.068584
 Thermal correction to Enthalpy=                  0.069528
 Thermal correction to Gibbs Free Energy=         0.032799
 Sum of electronic and zero-point Energies=           -497.919414
 Sum of electronic and thermal Energies=              -497.913782
 Sum of electronic and thermal Enthalpies=            -497.912838
 Sum of electronic and thermal Free Energies=         -497.949566

                     E (Thermal)             CV                S
                      KCal/Mol        Cal/Mol-Kelvin    Cal/Mol-Kelvin
 Total                   43.037             22.485             77.302
 Electronic               0.000              0.000              0.000
 Translational            0.889              2.981             40.613
 Rotational               0.889              2.981             28.204
 Vibrational             41.259             16.524              8.485
 Vibration     1          0.666              1.754              1.693
 Vibration     2          0.709              1.627              1.288
 Vibration     3          0.719              1.598              1.218
 Vibration     4          0.845              1.273              0.685
 Vibration     5          0.896              1.160              0.564
 Vibration     6          0.913              1.124              0.530
 Vibration     7          0.957              1.033              0.451

 Optimization completed.
    -- Stationary point found.
 Normal termination of Gaussian 16 at Tue Dec  8 10:20:10 2020.

 ----------------------------------------------------------------------
 # B3LYP/6-311++G(d,p) empiricaldispersion=gd3bj scf=xqc pop=npa geom=c
 heck
 ----------------------------------------------------------------------

 --------------------------------------
 CID_102319463_JID_205_Energie_neutraal
 --------------------------------------
 Structure from the checkpoint file:  "JID_205.chk"
 Charge =  0 Multiplicity = 1

 SCF Done:  E(RB3LYP) =  -498.108963720     A.U. after   15 cycles
 Normal termination of Gaussian 16 at Tue Dec  8 10:20:40 2020.

 ----------------------------------------------------------------------
 # B3LYP/6-311++G(d,p) empiricaldispersion=gd3bj scf=xqc pop=npa geom=c
 heck
 ----------------------------------------------------------------------

 ------------------------------------
 CID_102319463_JID_205_Energie_kation
 ------------------------------------
 Structure from the checkpoint file:  "JID_205.chk"
 Charge =  1 Multiplicity = 2

 SCF Done:  E(UB3LYP) =  -497.737094171     A.U. after   28 cycles
 Normal termination of Gaussian 16 at Tue Dec  8 10:22:01 2020.
 Gaussian 16:  ES64L-G16RevA.03 25-Dec-2016

 ----------------------------------------------------------------------
 # B3LYP/6-311++G(d,p) empiricaldispersion=gd3bj scf=xqc pop=npa geom=c
 heck
 ----------------------------------------------------------------------

 -----------------------------------
 CID_102319463_JID_205_Energie_anion
 -----------------------------------
 Structure from the checkpoint file:  "JID_205.chk"
 Charge = -1 Multiplicity = 2

                         Standard orientation:
 ---------------------------------------------------------------------
 Center     Atomic      Atomic             Coordinates (Angstroms)
 Number     Number       Type             X           Y           Z
 ---------------------------------------------------------------------
      1          6           0       -1.034214    0.728157    0.246678
      2          7           0       -0.565668    1.932587   -0.218832
      3          7           0        0.798575    1.836489   -0.229291
      4          6           0        1.151891    0.604538    0.231240
      5          7           0        0.020283    0.014171    0.677160
      6          6           0       -0.032372   -1.261632    0.209982
      7          7           0       -1.275268   -1.510729   -0.217136
      8          7           0       -1.900406   -0.280985   -0.126902
      9          7           0        1.282967   -1.573966   -0.201787
     10          7           0        1.973597   -0.448826   -0.206284
     11          1           0       -2.850383   -0.207569   -0.465889
 ---------------------------------------------------------------------

 SCF Done:  E(UB3LYP) =  -498.178890621     A.U. after   22 cycles

 The electronic state is 2-A.
 Alpha  occ. eigenvalues --  -14.25671 -14.21849 -14.20129 -14.19517 -14.18655
 Alpha  occ. eigenvalues --  -14.18476 -14.18265 -10.12833 -10.10961 -10.09710
 Alpha  occ. eigenvalues --   -0.98647  -0.88951  -0.86450  -0.76489  -0.70018
 Alpha  occ. eigenvalues --   -0.65763  -0.56778  -0.52460  -0.48615  -0.46399
 Alpha  occ. eigenvalues --   -0.39463  -0.36140  -0.35621  -0.34092  -0.26934
 Alpha  occ. eigenvalues --   -0.24644  -0.21751  -0.20303  -0.17686  -0.16241
 Alpha  occ. eigenvalues --   -0.12692  -0.12185  -0.10768  -0.09631   0.00391
 Alpha virt. eigenvalues --    0.08934   0.11206   0.13352   0.13935   0.14924
 Alpha virt. eigenvalues --    0.15763   0.16550   0.17906   0.18224   0.19101
 Alpha virt. eigenvalues --    0.19615   0.20320   0.21474   0.21643   0.23195

  Beta  occ. eigenvalues --  -14.25287 -14.21859 -14.19459 -14.19400 -14.18168
  Beta  occ. eigenvalues --  -14.18044 -14.17707 -10.12798 -10.11080 -10.09856
  Beta  occ. eigenvalues --   -0.98370  -0.88166  -0.85756  -0.75963  -0.69160
  Beta  occ. eigenvalues --   -0.65344  -0.55653  -0.52138  -0.48263  -0.46138
  Beta  occ. eigenvalues --   -0.39125  -0.35669  -0.35268  -0.33715  -0.24778
  Beta  occ. eigenvalues --   -0.23113  -0.20759  -0.19415  -0.16821  -0.15450
  Beta  occ. eigenvalues --   -0.11653  -0.10044  -0.09704  -0.08635
  Beta virt. eigenvalues --    0.08206   0.09146   0.12034   0.13657   0.14937
  Beta virt. eigenvalues --    0.15092   0.16243   0.16691   0.18173   0.18327
  Beta virt. eigenvalues --    0.19205   0.19643   0.20371   0.21577   0.21761

 Mulliken charges and spin densities:
               1          2
     1  C    0.000321   0.037153
     2  N   -0.158888   0.000889
     3  N   -0.163647   0.224524
     4  C   -0.119575  -0.086239
     5  N   -0.119569  -0.012664
     6  C   -0.059773  -0.063919
     7  N   -0.212792   0.342884
     8  N   -0.176736   0.137944
     9  N   -0.156155   0.177003
    10  N   -0.144091   0.246878
    11  H    0.310904  -0.004454
 Sum of Mulliken charges =  -1.00000   1.00000

 Dipole moment (field-independent basis, Debye):
    X=             -4.9453    Y=             -0.1690    Z=              1.5063  Tot=              5.1724
 Quadrupole moment (field-independent basis, Debye-Ang):
   XX=            -68.9202   YY=            -84.9260   ZZ=            -60.3842
   XY=              0.8288   XZ=              3.2170   YZ=              0.1710

 Summary of Natural Population Analysis:

                                       Natural Population
                Natural  -----------------------------------------------
    Atom  No    Charge         Core      Valence    Rydberg      Total
 -----------------------------------------------------------------------
      C    1    0.24239      0.99951     1.74057    0.01753     2.75761
      N    2   -0.17831      0.99973     2.66261    0.01597     3.67831
      N    3   -0.07160      0.99972     2.55528    0.01661     3.57160
      C    4    0.17846      0.99952     1.80194    0.02007     2.82154
      N    5   -0.23778      0.99948     2.71950    0.01880     3.73778
      C    6    0.19806      0.99956     1.78214    0.02025     2.80194
      N    7   -0.04105      0.99969     2.52659    0.01477     3.54105
      N    8   -0.14559      0.99968     2.63332    0.01259     3.64559
      N    9   -0.08482      0.99975     2.56809    0.01698     3.58482
      N   10   -0.05129      0.99974     2.53436    0.01719     3.55129
      H   11    0.19153      0.00000     0.30696    0.00151     0.30847
 =======================================================================
   * Total *    0.00000      9.99637    23.83137    0.17226    34.00000

 Normal termination of Gaussian 16 at Tue Dec  8 10:23:08 2020.
