 Gaussian 16, Revision A.03,

 -----------------------------------------------------------
 # opt freq B3LYP/6-31G(d) empiricaldispersion=gd3bj scf=xqc
 -----------------------------------------------------------

 ------------------------------
 CID_59148594_JID_5562_neutraal
 ------------------------------
 Symbolic Z-matrix:
 Charge =  0 Multiplicity = 1

 SCF Done:  E(RB3LYP) =  -687.619471356     A.U. after   15 cycles
 SCF Done:  E(RB3LYP) =  -687.623904081     A.U. after   13 cycles
 SCF Done:  E(RB3LYP) =  -687.623796183     A.U. after   13 cycles
 SCF Done:  E(RB3LYP) =  -687.625664632     A.U. after   13 cycles
 SCF Done:  E(RB3LYP) =  -687.625900527     A.U. after   12 cycles
 SCF Done:  E(RB3LYP) =  -687.625971508     A.U. after   12 cycles
 SCF Done:  E(RB3LYP) =  -687.626029077     A.U. after   10 cycles
 SCF Done:  E(RB3LYP) =  -687.626033187     A.U. after   10 cycles
 SCF Done:  E(RB3LYP) =  -687.626040187     A.U. after    9 cycles
 SCF Done:  E(RB3LYP) =  -687.626040399     A.U. after    8 cycles
 Optimization completed.
    -- Stationary point found.
 Normal termination of Gaussian 16 at Thu Dec 10 16:24:47 2020.

 --------------------------------------------------------------------
 #N Geom=AllCheck Guess=TCheck SCRF=Check GenChk RB3LYP/6-31G(d) Freq
 --------------------------------------------------------------------

 Structure from the checkpoint file:  "JID_5562.chk"
 ------------------------------
 CID_59148594_JID_5562_neutraal
 ------------------------------
 Charge =  0 Multiplicity = 1

 SCF Done:  E(RB3LYP) =  -687.626040399     A.U. after    1 cycles

  Exact polarizability: 178.161  -1.380 116.944   0.005  -0.012  85.893
 Approx polarizability: 226.935  -4.022 217.032   0.010  -0.046 121.876

                      1                      2                      3
                      A                      A                      A
 Frequencies --     34.6956                42.9424                73.6596
 Red. masses --      5.0620                 4.9762                 4.0918
 Frc consts  --      0.0036                 0.0054                 0.0131
 IR Inten    --      0.0205                 0.1124                 0.1889

                      4                      5                      6
                      A                      A                      A
 Frequencies --    117.0048               143.6117               167.4837
 Red. masses --      5.7236                 4.1363                 4.3360
 Frc consts  --      0.0462                 0.0503                 0.0717
 IR Inten    --      0.6597                 0.4024                 2.0258

                      7                      8                      9
                      A                      A                      A
 Frequencies --    212.9800               229.9601               308.3142
 Red. masses --      4.5005                 1.8011                 4.9891
 Frc consts  --      0.1203                 0.0561                 0.2794
 IR Inten    --      4.1454                 0.0022                 8.0831

                     10                     11                     12
                      A                      A                      A
 Frequencies --    338.5634               339.8203               404.2017
 Red. masses --      2.0414                 4.2837                 4.2682
 Frc consts  --      0.1379                 0.2915                 0.4109
 IR Inten    --      4.0757                 0.4512                 9.2979

                     13                     14                     15
                      A                      A                      A
 Frequencies --    408.3823               417.5928               455.2781
 Red. masses --      4.0310                 3.2960                 3.6047
 Frc consts  --      0.3961                 0.3386                 0.4402
 IR Inten    --      1.5721                 0.2626                 1.4927

                     16                     17                     18
                      A                      A                      A
 Frequencies --    474.9435               491.5516               584.3759
 Red. masses --      4.7203                 1.8658                 3.0907
 Frc consts  --      0.6273                 0.2656                 0.6219
 IR Inten    --      3.3141                 2.7806                 2.7187

                     19                     20                     21
                      A                      A                      A
 Frequencies --    645.0057               737.5613               756.3723
 Red. masses --      8.5427                 2.9113                 4.4909
 Frc consts  --      2.0940                 0.9331                 1.5137
 IR Inten    --     10.0880                10.5363                21.2152

                     22                     23                     24
                      A                      A                      A
 Frequencies --    758.7871               794.1141               810.1251
 Red. masses --      8.8153                 2.8279                 1.4286
 Frc consts  --      2.9904                 1.0507                 0.5524
 IR Inten    --      1.3567                 6.5145                 0.2824

                     25                     26                     27
                      A                      A                      A
 Frequencies --    851.1363               857.3361               912.5327
 Red. masses --      3.8496                 2.3559                 1.8467
 Frc consts  --      1.6431                 1.0203                 0.9060
 IR Inten    --     11.3890                 1.6527                 7.2639

                     28                     29                     30
                      A                      A                      A
 Frequencies --    921.9835               944.8115               946.4929
 Red. masses --      1.7520                 1.7801                 1.4693
 Frc consts  --      0.8775                 0.9362                 0.7755
 IR Inten    --      8.8448                 0.9149                 0.4557

                     31                     32                     33
                      A                      A                      A
 Frequencies --    958.3893              1005.9733              1023.9345
 Red. masses --      3.8619                 1.3954                 1.5083
 Frc consts  --      2.0900                 0.8320                 0.9317
 IR Inten    --      9.9537                 0.0002                 0.5913

                     34                     35                     36
                      A                      A                      A
 Frequencies --   1033.8473              1053.6566              1066.7429
 Red. masses --      2.0559                 3.0472                 3.6058
 Frc consts  --      1.2947                 1.9932                 2.4175
 IR Inten    --      4.8806                 4.7524                90.2089

                     37                     38                     39
                      A                      A                      A
 Frequencies --   1077.9145              1099.3292              1112.0091
 Red. masses --      1.3300                 1.1993                 2.4212
 Frc consts  --      0.9105                 0.8539                 1.7640
 IR Inten    --      1.6805                 0.0040                 1.5086

                     40                     41                     42
                      A                      A                      A
 Frequencies --   1135.8670              1181.4392              1191.7408
 Red. masses --      7.2320                 2.8137                 2.3425
 Frc consts  --      5.4975                 2.3140                 1.9601
 IR Inten    --     59.5312               221.7957                10.5975

                     43                     44                     45
                      A                      A                      A
 Frequencies --   1219.9786              1225.7260              1262.3551
 Red. masses --      1.8746                 1.5075                11.1750
 Frc consts  --      1.6439                 1.3344                10.4921
 IR Inten    --     14.6828                 0.3818                 6.7701

                     46                     47                     48
                      A                      A                      A
 Frequencies --   1290.8020              1301.6831              1305.8580
 Red. masses --      1.2786                 1.2664                 1.4003
 Frc consts  --      1.2551                 1.2643                 1.4069
 IR Inten    --     13.3348                 1.3025                13.2429

                     49                     50                     51
                      A                      A                      A
 Frequencies --   1320.9611              1350.8824              1378.8914
 Red. masses --      2.5851                 1.3269                 1.2495
 Frc consts  --      2.6578                 1.4267                 1.3997
 IR Inten    --    444.5935                 0.0181                 0.9051

                     52                     53                     54
                      A                      A                      A
 Frequencies --   1383.4269              1385.0559              1399.9934
 Red. masses --      1.3814                 1.3685                 1.4031
 Frc consts  --      1.5577                 1.5468                 1.6203
 IR Inten    --      0.3394                97.0537                 0.8607

                     55                     56                     57
                      A                      A                      A
 Frequencies --   1402.7771              1413.6446              1436.1732
 Red. masses --      1.4751                 1.4367                 1.3910
 Frc consts  --      1.7103                 1.6915                 1.6904
 IR Inten    --      1.9530                 4.3080                12.2731

                     58                     59                     60
                      A                      A                      A
 Frequencies --   1458.4074              1478.0216              1516.5309
 Red. masses --      2.8416                 2.0833                 1.0897
 Frc consts  --      3.5610                 2.6814                 1.4765
 IR Inten    --     20.7374                24.2255                 3.0128

                     61                     62                     63
                      A                      A                      A
 Frequencies --   1516.5988              1526.5405              1527.5406
 Red. masses --      1.0899                 1.0932                 1.0894
 Frc consts  --      1.4769                 1.5009                 1.4977
 IR Inten    --      0.9592                 2.8810                 6.6311

                     64                     65                     66
                      A                      A                      A
 Frequencies --   1545.1388              1611.0196              1641.7001
 Red. masses --      1.0967                 5.6044                 5.2838
 Frc consts  --      1.5427                 8.5701                 8.3904
 IR Inten    --      2.9479                49.4327               107.8990

                     67                     68                     69
                      A                      A                      A
 Frequencies --   1795.3502              3026.0002              3026.6612
 Red. masses --     12.1327                 1.0678                 1.0708
 Frc consts  --     23.0413                 5.7605                 5.7795
 IR Inten    --    195.7982                12.6756                30.2090

                     70                     71                     72
                      A                      A                      A
 Frequencies --   3036.8584              3064.0827              3064.3663
 Red. masses --      1.0611                 1.0651                 1.0744
 Frc consts  --      5.7658                 5.8915                 5.9445
 IR Inten    --     32.6463                27.1359                24.7473

                     73                     74                     75
                      A                      A                      A
 Frequencies --   3068.5281              3083.0860              3083.8184
 Red. masses --      1.0778                 1.0953                 1.0952
 Frc consts  --      5.9793                 6.1342                 6.1365
 IR Inten    --     22.5308                56.8699                62.7080

                     76                     77                     78
                      A                      A                      A
 Frequencies --   3087.3934              3124.5890              3130.2611
 Red. masses --      1.1000                 1.1000                 1.0989
 Frc consts  --      6.1779                 6.3272                 6.3439
 IR Inten    --     27.5480                 2.3375                34.8789

                     79                     80                     81
                      A                      A                      A
 Frequencies --   3196.4386              3207.0295              3212.2151
 Red. masses --      1.0902                 1.0923                 1.0925
 Frc consts  --      6.5629                 6.6192                 6.6416
 IR Inten    --     29.1698                 2.7069                 4.2077

 - Thermochemistry -
 -------------------
 Temperature   298.150 Kelvin.  Pressure   1.00000 Atm.
 Atom     1 has atomic number  6 and mass  12.00000

 Molecular mass:   206.10553 amu.
 Principal axes and moments of inertia in atomic units:
                           1         2         3
     Eigenvalues --   912.276396904.061017080.40989
           X            1.00000   0.00038  -0.00000
           Y           -0.00038   1.00000   0.00013
           Z            0.00000  -0.00013   1.00000
 This molecule is an asymmetric top.
 Rotational symmetry number  1.
 Warning -- assumption of classical behavior for rotation
           may cause significant error
 Rotational temperatures (Kelvin)      0.09494     0.01255     0.01223
 Rotational constants (GHZ):           1.97828     0.26140     0.25489
 Zero-point vibrational energy     641370.9 (Joules/Mol)
                                  153.29134 (Kcal/Mol)
 Warning -- explicit consideration of  18 degrees of freedom as
           vibrations may cause significant error
 Vibrational temperatures:     49.92    61.78   105.98   168.34   206.63
          (Kelvin)            240.97   306.43   330.86   443.60   487.12
                              488.93   581.56   587.57   600.82   655.04
                              683.34   707.23   840.79   928.02  1061.19
                             1088.25  1091.73  1142.55  1165.59  1224.60
                             1233.52  1312.93  1326.53  1359.37  1361.79
                             1378.91  1447.37  1473.21  1487.48  1515.98
                             1534.81  1550.88  1581.69  1599.93  1634.26
                             1699.83  1714.65  1755.28  1763.55  1816.25
                             1857.18  1872.83  1878.84  1900.57  1943.62
                             1983.92  1990.44  1992.79  2014.28  2018.28
                             2033.92  2066.33  2098.32  2126.54  2181.95
                             2182.05  2196.35  2197.79  2223.11  2317.90
                             2362.04  2583.11  4353.74  4354.69  4369.36
                             4408.53  4408.94  4414.93  4435.87  4436.93
                             4442.07  4495.59  4503.75  4598.96  4614.20
                             4621.66

 Zero-point correction=                           0.244285 (Hartree/Particle)
 Thermal correction to Energy=                    0.257026
 Thermal correction to Enthalpy=                  0.257970
 Thermal correction to Gibbs Free Energy=         0.203833
 Sum of electronic and zero-point Energies=           -687.381755
 Sum of electronic and thermal Energies=              -687.369015
 Sum of electronic and thermal Enthalpies=            -687.368071
 Sum of electronic and thermal Free Energies=         -687.422207

                     E (Thermal)             CV                S
                      KCal/Mol        Cal/Mol-Kelvin    Cal/Mol-Kelvin
 Total                  161.286             49.105            113.940
 Electronic               0.000              0.000              0.000
 Translational            0.889              2.981             41.874
 Rotational               0.889              2.981             32.167
 Vibrational            159.508             43.143             39.900
 Vibration     1          0.594              1.983              5.541
 Vibration     2          0.595              1.980              5.119
 Vibration     3          0.599              1.966              4.053
 Vibration     4          0.608              1.935              3.149
 Vibration     5          0.616              1.910              2.755
 Vibration     6          0.624              1.882              2.464
 Vibration     7          0.644              1.821              2.018
 Vibration     8          0.652              1.795              1.879
 Vibration     9          0.698              1.658              1.371
 Vibration    10          0.719              1.598              1.219
 Vibration    11          0.720              1.596              1.213
 Vibration    12          0.769              1.461              0.947
 Vibration    13          0.773              1.452              0.932
 Vibration    14          0.781              1.432              0.900
 Vibration    15          0.814              1.349              0.780
 Vibration    16          0.832              1.306              0.724
 Vibration    17          0.847              1.269              0.680
 Vibration    18          0.941              1.065              0.477

 Optimization completed.
    -- Stationary point found.
 Normal termination of Gaussian 16 at Thu Dec 10 16:33:10 2020.

 ----------------------------------------------------------------------
 # B3LYP/6-311++G(d,p) empiricaldispersion=gd3bj scf=xqc pop=npa geom=c
 heck
 ----------------------------------------------------------------------

 --------------------------------------
 CID_59148594_JID_5562_Energie_neutraal
 --------------------------------------
 Structure from the checkpoint file:  "JID_5562.chk"
 Charge =  0 Multiplicity = 1

 SCF Done:  E(RB3LYP) =  -687.810753924     A.U. after   15 cycles
 Normal termination of Gaussian 16 at Thu Dec 10 16:36:26 2020.

 ----------------------------------------------------------------------
 # B3LYP/6-311++G(d,p) empiricaldispersion=gd3bj scf=xqc pop=npa geom=c
 heck
 ----------------------------------------------------------------------

 ------------------------------------
 CID_59148594_JID_5562_Energie_kation
 ------------------------------------
 Structure from the checkpoint file:  "JID_5562.chk"
 Charge =  1 Multiplicity = 2

 SCF Done:  E(UB3LYP) =  -687.465507019     A.U. after   33 cycles
 SCF Done:  E(UB3LYP) =  -687.465507021     a.u. after    2 cycles
 Normal termination of Gaussian 16 at Thu Dec 10 16:54:16 2020.
 Gaussian 16:  ES64L-G16RevA.03 25-Dec-2016

 ----------------------------------------------------------------------
 # B3LYP/6-311++G(d,p) empiricaldispersion=gd3bj scf=xqc pop=npa geom=c
 heck
 ----------------------------------------------------------------------

 -----------------------------------
 CID_59148594_JID_5562_Energie_anion
 -----------------------------------
 Structure from the checkpoint file:  "JID_5562.chk"
 Charge = -1 Multiplicity = 2

                         Standard orientation:
 ---------------------------------------------------------------------
 Center     Atomic      Atomic             Coordinates (Angstroms)
 Number     Number       Type             X           Y           Z
 ---------------------------------------------------------------------
      1          6           0        4.334121   -0.437794    0.000088
      2          6           0        3.731159    0.185073   -1.266791
      3          6           0        2.198525    0.066977   -1.271728
      4          6           0        1.631288    0.698454   -0.000461
      5          6           0        2.198830    0.068945    1.271649
      6          6           0        3.731458    0.186832    1.266251
      7          8           0        0.171420    0.736112   -0.000124
      8          6           0       -0.538648   -0.404034    0.000445
      9          8           0       -0.079233   -1.529923    0.001235
     10          6           0       -2.002597   -0.127299    0.000130
     11          6           0       -2.558913    1.155135   -0.000477
     12          7           0       -3.880383    1.358517   -0.000655
     13          6           0       -4.640451    0.257306   -0.000260
     14          7           0       -4.227485   -1.016341    0.000248
     15          6           0       -2.904082   -1.196310    0.000483
     16          1           0        5.423960   -0.316541   -0.000119
     17          1           0        4.134376   -1.518483    0.000848
     18          1           0        4.017812    1.245477   -1.320788
     19          1           0        4.139644   -0.295258   -2.163321
     20          1           0        1.905969   -0.986020   -1.312750
     21          1           0        1.771647    0.566641   -2.149309
     22          1           0        1.875283    1.766577   -0.001369
     23          1           0        1.906066   -0.983940    1.314338
     24          1           0        1.772169    0.570033    2.148519
     25          1           0        4.140059   -0.292372    2.163331
     26          1           0        4.018278    1.247264    1.318790
     27          1           0       -1.922327    2.035356   -0.000717
     28          1           0       -5.716885    0.414762   -0.000446
     29          1           0       -2.532612   -2.217949    0.000987
 ---------------------------------------------------------------------

 SCF Done:  E(UB3LYP) =  -687.824570999     A.U. after   28 cycles

 The electronic state is 2-A.
 Alpha  occ. eigenvalues --  -19.01290 -18.93172 -14.14921 -14.14851 -10.11864
 Alpha  occ. eigenvalues --  -10.11772 -10.08229 -10.08074 -10.08072 -10.06184
 Alpha  occ. eigenvalues --  -10.06183 -10.04650 -10.04575 -10.04410 -10.00691
 Alpha  occ. eigenvalues --   -0.94903  -0.85704  -0.81354  -0.73993  -0.71875
 Alpha  occ. eigenvalues --   -0.65387  -0.65234  -0.62462  -0.53981  -0.52079
 Alpha  occ. eigenvalues --   -0.49674  -0.48683  -0.47391  -0.42612  -0.38343
 Alpha  occ. eigenvalues --   -0.37141  -0.35819  -0.35195  -0.35092  -0.33820
 Alpha  occ. eigenvalues --   -0.32149  -0.31781  -0.30246  -0.29246  -0.27424
 Alpha  occ. eigenvalues --   -0.25902  -0.25556  -0.25246  -0.25087  -0.24378
 Alpha  occ. eigenvalues --   -0.24194  -0.23253  -0.21690  -0.20223  -0.16301
 Alpha  occ. eigenvalues --   -0.15360  -0.14769  -0.12290  -0.11149  -0.09044
 Alpha  occ. eigenvalues --    0.05182
 Alpha virt. eigenvalues --    0.06208   0.08137   0.08154   0.09362   0.10900
 Alpha virt. eigenvalues --    0.11303   0.11313   0.11827   0.11976   0.12099
 Alpha virt. eigenvalues --    0.12576   0.13792   0.14109   0.14989   0.15396

  Beta  occ. eigenvalues --  -19.01190 -18.92825 -14.15018 -14.14938 -10.11869
  Beta  occ. eigenvalues --  -10.11465 -10.08229 -10.08073 -10.08071 -10.06175
  Beta  occ. eigenvalues --  -10.06175 -10.04365 -10.04210 -10.04128 -10.00472
  Beta  occ. eigenvalues --   -0.94559  -0.85153  -0.81032  -0.73974  -0.71728
  Beta  occ. eigenvalues --   -0.65228  -0.65192  -0.61923  -0.53687  -0.52061
  Beta  occ. eigenvalues --   -0.48980  -0.48428  -0.47248  -0.42427  -0.38187
  Beta  occ. eigenvalues --   -0.37037  -0.35596  -0.35065  -0.34905  -0.33736
  Beta  occ. eigenvalues --   -0.31575  -0.31453  -0.29976  -0.29227  -0.26434
  Beta  occ. eigenvalues --   -0.25801  -0.25390  -0.25137  -0.24286  -0.24233
  Beta  occ. eigenvalues --   -0.23971  -0.23196  -0.21300  -0.20094  -0.15212
  Beta  occ. eigenvalues --   -0.14674  -0.14562  -0.10841  -0.10158  -0.09075
  Beta virt. eigenvalues --    0.06190   0.08097   0.08118   0.09331   0.10846
  Beta virt. eigenvalues --    0.11258   0.11284   0.11712   0.11936   0.12238
  Beta virt. eigenvalues --    0.12476   0.12532   0.13734   0.14065   0.15071

 Mulliken charges and spin densities:
               1          2
     1  C   -0.309797  -0.001128
     2  C   -0.363226   0.004859
     3  C   -0.033494  -0.008815
     4  C   -0.266197   0.002509
     5  C   -0.033419  -0.008761
     6  C   -0.363248   0.004878
     7  O    0.107476   0.016728
     8  C   -1.992052   0.048227
     9  O   -0.285371   0.125620
    10  C    1.326349   0.250374
    11  C   -0.170978   0.161828
    12  N   -0.128148  -0.064061
    13  C   -0.080927   0.383069
    14  N   -0.110402  -0.059174
    15  C   -0.414919   0.171032
    16  H    0.148635   0.000009
    17  H    0.117390  -0.000016
    18  H    0.113405   0.000179
    19  H    0.153184  -0.000604
    20  H    0.192768   0.009213
    21  H    0.144212   0.003813
    22  H    0.146202  -0.000497
    23  H    0.192809   0.009174
    24  H    0.144200   0.003808
    25  H    0.153175  -0.000609
    26  H    0.113429   0.000167
    27  H    0.174428  -0.010836
    28  H    0.148081  -0.029350
    29  H    0.176434  -0.011635
 Sum of Mulliken charges =  -1.00000   1.00000

 Dipole moment (field-independent basis, Debye):
    X=             12.2656    Y=              1.6322    Z=             -0.0014  Tot=             12.3737
 Quadrupole moment (field-independent basis, Debye-Ang):
   XX=           -152.5580   YY=           -107.9279   ZZ=            -95.5942
   XY=              1.9822   XZ=             -0.0029   YZ=              0.0068

 Summary of Natural Population Analysis:

                                       Natural Population
                Natural  -----------------------------------------------
    Atom  No    Charge         Core      Valence    Rydberg      Total
 -----------------------------------------------------------------------
      C    1   -0.19050      0.99964     2.18390    0.00696     3.19050
      C    2   -0.18869      0.99964     2.18208    0.00698     3.18869
      C    3   -0.20696      0.99960     2.19939    0.00797     3.20696
      C    4    0.07096      0.99951     1.91638    0.01315     2.92904
      C    5   -0.20696      0.99960     2.19939    0.00797     3.20696
      C    6   -0.18869      0.99964     2.18208    0.00698     3.18869
      O    7   -0.28497      0.99986     3.27517    0.00994     4.28497
      C    8    0.43570      0.99965     1.54037    0.02428     2.56430
      O    9   -0.30346      0.99987     3.29826    0.00533     4.30346
      C   10   -0.08549      0.99945     2.07753    0.00851     3.08549
      C   11    0.08987      0.99957     1.89630    0.01426     2.91013
      N   12   -0.28219      0.99972     2.77007    0.01240     3.78219
      C   13    0.22427      0.99968     1.75515    0.02090     2.77573
      N   14   -0.27991      0.99972     2.76788    0.01231     3.77991
      C   15    0.09452      0.99957     1.89130    0.01461     2.90548
      H   16    0.09215      0.00000     0.40667    0.00117     0.40785
      H   17    0.09506      0.00000     0.40364    0.00130     0.40494
      H   18    0.08801      0.00000     0.41052    0.00147     0.41199
      H   19    0.09549      0.00000     0.40339    0.00112     0.40451
      H   20    0.11426      0.00000     0.38436    0.00138     0.38574
      H   21    0.10004      0.00000     0.39878    0.00118     0.39996
      H   22    0.08351      0.00000     0.41519    0.00130     0.41649
      H   23    0.11426      0.00000     0.38436    0.00138     0.38574
      H   24    0.10004      0.00000     0.39878    0.00118     0.39996
      H   25    0.09549      0.00000     0.40339    0.00112     0.40451
      H   26    0.08801      0.00000     0.41052    0.00147     0.41199
      H   27    0.08485      0.00000     0.41397    0.00118     0.41515
      H   28    0.06231      0.00000     0.43603    0.00165     0.43769
      H   29    0.08901      0.00000     0.40970    0.00128     0.41099
 =======================================================================
   * Total *    0.00000     14.99472    39.81457    0.19072    55.00000

 Normal termination of Gaussian 16 at Thu Dec 10 17:15:46 2020.
