 Gaussian 16, Revision A.03,

 -----------------------------------------------------------
 # opt freq B3LYP/6-31G(d) empiricaldispersion=gd3bj scf=xqc
 -----------------------------------------------------------

 -------------------------------
 CID_116211613_JID_8130_neutraal
 -------------------------------
 Symbolic Z-matrix:
 Charge =  0 Multiplicity = 1

 SCF Done:  E(RB3LYP) =  -1562.71399286     A.U. after   15 cycles
 SCF Done:  E(RB3LYP) =  -1562.72408356     A.U. after   12 cycles
 SCF Done:  E(RB3LYP) =  -1562.72575759     A.U. after   12 cycles
 SCF Done:  E(RB3LYP) =  -1562.72565194     A.U. after   12 cycles
 SCF Done:  E(RB3LYP) =  -1562.72627469     A.U. after   12 cycles
 SCF Done:  E(RB3LYP) =  -1562.72638235     A.U. after   11 cycles
 SCF Done:  E(RB3LYP) =  -1562.72645906     A.U. after   11 cycles
 SCF Done:  E(RB3LYP) =  -1562.72650475     A.U. after   10 cycles
 SCF Done:  E(RB3LYP) =  -1562.72656172     A.U. after   12 cycles
 SCF Done:  E(RB3LYP) =  -1562.72657303     A.U. after   11 cycles
 SCF Done:  E(RB3LYP) =  -1562.72792525     A.U. after   10 cycles
 SCF Done:  E(RB3LYP) =  -1562.72792622     A.U. after    9 cycles
 SCF Done:  E(RB3LYP) =  -1562.72792657     A.U. after    8 cycles
 SCF Done:  E(RB3LYP) =  -1562.72792664     A.U. after    7 cycles
 SCF Done:  E(RB3LYP) =  -1562.72792659     A.U. after    7 cycles
 Optimization completed.
    -- Stationary point found.
 Normal termination of Gaussian 16 at Fri Dec 11 19:16:48 2020.

 --------------------------------------------------------------------
 #N Geom=AllCheck Guess=TCheck SCRF=Check GenChk RB3LYP/6-31G(d) Freq
 --------------------------------------------------------------------

 Structure from the checkpoint file:  "JID_8130.chk"
 -------------------------------
 CID_116211613_JID_8130_neutraal
 -------------------------------
 Charge =  0 Multiplicity = 1

 SCF Done:  E(RB3LYP) =  -1562.72792659     A.U. after    1 cycles

  Exact polarizability: 209.302   8.480 156.294   0.415   9.556 142.470
 Approx polarizability: 254.620  10.037 242.433  -3.501  20.821 239.992

                      1                      2                      3
                      A                      A                      A
 Frequencies --     12.3240                20.6362                25.8775
 Red. masses --      5.9824                 3.5913                 3.6507
 Frc consts  --      0.0005                 0.0009                 0.0014
 IR Inten    --      0.0038                 0.1269                 1.1778

                      4                      5                      6
                      A                      A                      A
 Frequencies --     35.6689                44.9610                76.4253
 Red. masses --      5.1767                 3.9988                 4.4236
 Frc consts  --      0.0039                 0.0048                 0.0152
 IR Inten    --      2.1292                 1.2591                 2.0844

                      7                      8                      9
                      A                      A                      A
 Frequencies --     82.9670                85.3365               107.2402
 Red. masses --      3.8353                 3.9434                 2.9084
 Frc consts  --      0.0156                 0.0169                 0.0197
 IR Inten    --      0.6971                 0.2642                 1.9693

                     10                     11                     12
                      A                      A                      A
 Frequencies --    108.1555               136.1602               167.4117
 Red. masses --      5.3160                 4.3847                 2.2671
 Frc consts  --      0.0366                 0.0479                 0.0374
 IR Inten    --      0.8460                 1.6687                 1.6116

                     13                     14                     15
                      A                      A                      A
 Frequencies --    192.5688               201.6546               238.5685
 Red. masses --      1.1389                 3.1995                 2.9849
 Frc consts  --      0.0249                 0.0767                 0.1001
 IR Inten    --      0.4993                 1.3351                 3.0338

                     16                     17                     18
                      A                      A                      A
 Frequencies --    249.8224               262.0853               301.4512
 Red. masses --      1.9232                 3.4374                 2.2888
 Frc consts  --      0.0707                 0.1391                 0.1225
 IR Inten    --      2.5045                 2.7322                 1.2235

                     19                     20                     21
                      A                      A                      A
 Frequencies --    307.8770               334.6081               350.3083
 Red. masses --      3.6072                 5.5446                 3.0061
 Frc consts  --      0.2015                 0.3658                 0.2174
 IR Inten    --      4.6921                 6.4780                 0.5863

                     22                     23                     24
                      A                      A                      A
 Frequencies --    364.9547               398.4132               415.0111
 Red. masses --      2.5488                 3.0792                 2.7654
 Frc consts  --      0.2000                 0.2880                 0.2806
 IR Inten    --      1.2364                 8.2900                10.0872

                     25                     26                     27
                      A                      A                      A
 Frequencies --    458.9483               472.2278               477.8074
 Red. masses --      2.7767                 3.6961                 2.7106
 Frc consts  --      0.3446                 0.4856                 0.3646
 IR Inten    --      8.2613                11.4376                22.0128

                     28                     29                     30
                      A                      A                      A
 Frequencies --    543.3420               583.7797               594.5209
 Red. masses --      3.1739                 2.2354                 6.6669
 Frc consts  --      0.5521                 0.4489                 1.3884
 IR Inten    --     23.1701                74.4325                95.0317

                     31                     32                     33
                      A                      A                      A
 Frequencies --    633.9535               645.8031               654.8796
 Red. masses --      4.2052                 3.5986                 6.9760
 Frc consts  --      0.9957                 0.8843                 1.7627
 IR Inten    --     10.6493                 4.3311                 2.1019

                     34                     35                     36
                      A                      A                      A
 Frequencies --    714.6589               736.5922               745.9128
 Red. masses --      3.2571                 2.2313                 2.0750
 Frc consts  --      0.9801                 0.7133                 0.6802
 IR Inten    --     28.5053                54.9118                73.3971

                     37                     38                     39
                      A                      A                      A
 Frequencies --    785.6887               803.6664               815.7843
 Red. masses --      2.1622                 1.6172                 1.5114
 Frc consts  --      0.7864                 0.6154                 0.5926
 IR Inten    --     38.5921               122.6867                59.9776

                     40                     41                     42
                      A                      A                      A
 Frequencies --    861.6450               877.0502               894.2051
 Red. masses --      2.5719                 1.3326                 1.9909
 Frc consts  --      1.1250                 0.6039                 0.9379
 IR Inten    --     72.6171                 3.1493                17.3849

                     43                     44                     45
                      A                      A                      A
 Frequencies --    927.9937               962.3511               971.9457
 Red. masses --      2.2762                 3.8033                 1.7079
 Frc consts  --      1.1549                 2.0753                 0.9506
 IR Inten    --      2.7075                 4.9675                 9.0932

                     46                     47                     48
                      A                      A                      A
 Frequencies --    980.2762               986.3723               990.3340
 Red. masses --      2.3051                 3.2613                 1.2088
 Frc consts  --      1.3051                 1.8695                 0.6985
 IR Inten    --      6.8611                83.4874                13.9565

                     49                     50                     51
                      A                      A                      A
 Frequencies --    998.6464              1018.3330              1042.7969
 Red. masses --      1.7877                 1.4625                 1.3514
 Frc consts  --      1.0505                 0.8936                 0.8658
 IR Inten    --     16.7158                 0.5946                33.6746

                     52                     53                     54
                      A                      A                      A
 Frequencies --   1075.0382              1108.3665              1115.4499
 Red. masses --      1.9338                 2.5654                 3.4920
 Frc consts  --      1.3167                 1.8569                 2.5599
 IR Inten    --     29.5633                57.7339                27.9810

                     55                     56                     57
                      A                      A                      A
 Frequencies --   1121.2019              1137.8386              1163.5200
 Red. masses --      4.6058                 2.2901                 1.5914
 Frc consts  --      3.4113                 1.7469                 1.2693
 IR Inten    --     66.8117                47.6309                14.6833

                     58                     59                     60
                      A                      A                      A
 Frequencies --   1181.0470              1188.8088              1191.0376
 Red. masses --      1.8465                 3.0978                 1.2556
 Frc consts  --      1.5175                 2.5795                 1.0494
 IR Inten    --     17.3525                17.2390                 5.3591

                     61                     62                     63
                      A                      A                      A
 Frequencies --   1217.7388              1242.6847              1255.7008
 Red. masses --      1.2022                 1.9402                 5.5068
 Frc consts  --      1.0503                 1.7653                 5.1159
 IR Inten    --      5.5396                 5.2522                27.8263

                     64                     65                     66
                      A                      A                      A
 Frequencies --   1274.1836              1319.7390              1325.4301
 Red. masses --      1.3199                 1.2686                 1.4472
 Frc consts  --      1.2625                 1.3018                 1.4980
 IR Inten    --     10.0360                22.5367                 2.7779

                     67                     68                     69
                      A                      A                      A
 Frequencies --   1331.5993              1344.0134              1382.7400
 Red. masses --      4.7195                 1.1875                 1.2871
 Frc consts  --      4.9305                 1.2639                 1.4500
 IR Inten    --    154.5149                 7.8940                29.7868

                     70                     71                     72
                      A                      A                      A
 Frequencies --   1391.2281              1392.5600              1406.3106
 Red. masses --      1.1926                 1.2712                 2.6790
 Frc consts  --      1.3600                 1.4524                 3.1217
 IR Inten    --      1.2113                 9.5039                 2.2206

                     73                     74                     75
                      A                      A                      A
 Frequencies --   1411.0065              1422.9576              1456.4191
 Red. masses --      1.5489                 1.2822                 1.3041
 Frc consts  --      1.8169                 1.5296                 1.6299
 IR Inten    --     10.5571                 2.5664                58.9168

                     76                     77                     78
                      A                      A                      A
 Frequencies --   1480.8156              1491.1770              1492.3408
 Red. masses --      1.1445                 1.1015                 1.0852
 Frc consts  --      1.4787                 1.4432                 1.4239
 IR Inten    --      0.5448                 3.8228                 3.6979

                     79                     80                     81
                      A                      A                      A
 Frequencies --   1498.1679              1515.1333              1516.9006
 Red. masses --      1.0575                 1.1827                 1.0522
 Frc consts  --      1.3984                 1.5997                 1.4265
 IR Inten    --      6.5384                 9.7407                13.8620

                     82                     83                     84
                      A                      A                      A
 Frequencies --   1518.3236              1521.7446              1522.1049
 Red. masses --      1.0793                 1.0764                 1.0768
 Frc consts  --      1.4659                 1.4686                 1.4699
 IR Inten    --      8.4218                 2.8620                14.1821

                     85                     86                     87
                      A                      A                      A
 Frequencies --   1526.0345              1547.4464              1548.9530
 Red. masses --      1.0916                 1.4510                 2.5476
 Frc consts  --      1.4977                 2.0472                 3.6012
 IR Inten    --      1.7597                21.2992                17.9483

                     88                     89                     90
                      A                      A                      A
 Frequencies --   1637.2488              2984.1365              3020.7767
 Red. masses --      6.2918                 1.0555                 1.0706
 Frc consts  --      9.9370                 5.5379                 5.7561
 IR Inten    --      4.8330                59.7131                31.2575

                     91                     92                     93
                      A                      A                      A
 Frequencies --   3055.3638              3056.3622              3059.8706
 Red. masses --      1.0599                 1.0587                 1.0365
 Frc consts  --      5.8299                 5.8270                 5.7177
 IR Inten    --     30.1629                26.9923                21.8840

                     94                     95                     96
                      A                      A                      A
 Frequencies --   3064.6751              3076.5289              3078.4643
 Red. masses --      1.0655                 1.0804                 1.0630
 Frc consts  --      5.8962                 6.0248                 5.9356
 IR Inten    --     12.6739                49.4175                23.1216

                     97                     98                     99
                      A                      A                      A
 Frequencies --   3090.7856              3100.7329              3112.2316
 Red. masses --      1.0914                 1.1049                 1.1018
 Frc consts  --      6.1427                 6.2587                 6.2877
 IR Inten    --     24.0905                13.8226                27.0549

                    100                    101                    102
                      A                      A                      A
 Frequencies --   3118.3442              3127.9010              3129.1389
 Red. masses --      1.0995                 1.1010                 1.1011
 Frc consts  --      6.2990                 6.3467                 6.3521
 IR Inten    --      5.1815                26.7081                25.0617

                    103                    104                    105
                      A                      A                      A
 Frequencies --   3139.7747              3153.9902              3271.4862
 Red. masses --      1.1056                 1.1041                 1.0955
 Frc consts  --      6.4214                 6.4712                 6.9081
 IR Inten    --     12.5271                10.9447                 2.8374

                    106                    107                    108
                      A                      A                      A
 Frequencies --   3300.5362              3502.5676              3552.4003
 Red. masses --      1.0988                 1.0742                 1.0750
 Frc consts  --      7.0526                 7.7643                 7.9929
 IR Inten    --      0.0606                 0.3286                29.4466

 - Thermochemistry -
 -------------------
 Temperature   298.150 Kelvin.  Pressure   1.00000 Atm.
 Atom     1 has atomic number  6 and mass  12.00000

 Molecular mass:   292.09154 amu.
 Principal axes and moments of inertia in atomic units:
                           1         2         3
     Eigenvalues --  2630.92180********************
           X            0.99995   0.00887  -0.00367
           Y           -0.00887   0.99996   0.00020
           Z            0.00367  -0.00016   0.99999
 This molecule is an asymmetric top.
 Rotational symmetry number  1.
 Warning -- assumption of classical behavior for rotation
           may cause significant error
 Rotational temperatures (Kelvin)      0.03292     0.00635     0.00595
 Rotational constants (GHZ):           0.68597     0.13236     0.12390
 Zero-point vibrational energy     831219.7 (Joules/Mol)
                                  198.66628 (Kcal/Mol)
 Warning -- explicit consideration of  30 degrees of freedom as
           vibrations may cause significant error
 Vibrational temperatures:     17.73    29.69    37.23    51.32    64.69
          (Kelvin)            109.96   119.37   122.78   154.29   155.61
                              195.90   240.87   277.06   290.14   343.25
                              359.44   377.08   433.72   442.97   481.43
                              504.02   525.09   573.23   597.11   660.32
                              679.43   687.46   781.75   839.93   855.38
                              912.12   929.17   942.23  1028.23  1059.79
                             1073.20  1130.43  1156.30  1173.73  1239.71
                             1261.88  1286.56  1335.18  1384.61  1398.41
                             1410.40  1419.17  1424.87  1436.83  1465.15
                             1500.35  1546.74  1594.69  1604.88  1613.16
                             1637.10  1674.05  1699.26  1710.43  1713.64
                             1752.05  1787.95  1806.67  1833.27  1898.81
                             1907.00  1915.87  1933.74  1989.45  2001.67
                             2003.58  2023.37  2030.12  2047.32  2095.46
                             2130.56  2145.47  2147.15  2155.53  2179.94
                             2182.48  2184.53  2189.45  2189.97  2195.62
                             2226.43  2228.60  2355.64  4293.51  4346.22
                             4395.99  4397.42  4402.47  4409.38  4426.44
                             4429.22  4446.95  4461.26  4477.81  4486.60
                             4500.35  4502.13  4517.44  4537.89  4706.94
                             4748.74  5039.41  5111.11

 Zero-point correction=                           0.316595 (Hartree/Particle)
 Thermal correction to Energy=                    0.337120
 Thermal correction to Enthalpy=                  0.338064
 Thermal correction to Gibbs Free Energy=         0.262938
 Sum of electronic and zero-point Energies=          -1562.411332
 Sum of electronic and thermal Energies=             -1562.390807
 Sum of electronic and thermal Enthalpies=           -1562.389863
 Sum of electronic and thermal Free Energies=        -1562.464989

                     E (Thermal)             CV                S
                      KCal/Mol        Cal/Mol-Kelvin    Cal/Mol-Kelvin
 Total                  211.546             73.898            158.116
 Electronic               0.000              0.000              0.000
 Translational            0.889              2.981             42.913
 Rotational               0.889              2.981             34.612
 Vibrational            209.768             67.936             80.591
 Vibration     1          0.593              1.987              7.596
 Vibration     2          0.593              1.986              6.572
 Vibration     3          0.593              1.985              6.123
 Vibration     4          0.594              1.982              5.486
 Vibration     5          0.595              1.979              5.028
 Vibration     6          0.599              1.965              3.981
 Vibration     7          0.600              1.961              3.819
 Vibration     8          0.601              1.959              3.764
 Vibration     9          0.606              1.943              3.318
 Vibration    10          0.606              1.943              3.302
 Vibration    11          0.614              1.917              2.857
 Vibration    12          0.624              1.883              2.464
 Vibration    13          0.635              1.850              2.203
 Vibration    14          0.639              1.838              2.118
 Vibration    15          0.657              1.782              1.814
 Vibration    16          0.663              1.763              1.732
 Vibration    17          0.669              1.742              1.648
 Vibration    18          0.693              1.671              1.409
 Vibration    19          0.698              1.659              1.374
 Vibration    20          0.716              1.606              1.238
 Vibration    21          0.727              1.575              1.165
 Vibration    22          0.738              1.544              1.101
 Vibration    23          0.765              1.474              0.968
 Vibration    24          0.778              1.438              0.909
 Vibration    25          0.817              1.341              0.769
 Vibration    26          0.829              1.312              0.731
 Vibration    27          0.834              1.299              0.716
 Vibration    28          0.898              1.154              0.558
 Vibration    29          0.941              1.066              0.478
 Vibration    30          0.952              1.043              0.459

                           ! Non-Optimized Parameters !
 Normal termination of Gaussian 16 at Fri Dec 11 19:32:56 2020.

 ----------------------------------------------------------------------
 # B3LYP/6-311++G(d,p) empiricaldispersion=gd3bj scf=xqc pop=npa geom=c
 heck
 ----------------------------------------------------------------------

 ---------------------------------------
 CID_116211613_JID_8130_Energie_neutraal
 ---------------------------------------
 Structure from the checkpoint file:  "JID_8130.chk"
 Charge =  0 Multiplicity = 1

 SCF Done:  E(RB3LYP) =  -1563.00495285     A.U. after   16 cycles
 Normal termination of Gaussian 16 at Fri Dec 11 19:41:45 2020.

 ----------------------------------------------------------------------
 # B3LYP/6-311++G(d,p) empiricaldispersion=gd3bj scf=xqc pop=npa geom=c
 heck
 ----------------------------------------------------------------------

 -------------------------------------
 CID_116211613_JID_8130_Energie_kation
 -------------------------------------
 Structure from the checkpoint file:  "JID_8130.chk"
 Charge =  1 Multiplicity = 2

 SCF Done:  E(UB3LYP) =  -1562.71459550     A.U. after   31 cycles
 Normal termination of Gaussian 16 at Fri Dec 11 20:06:21 2020.
 Gaussian 16:  ES64L-G16RevA.03 25-Dec-2016

 ----------------------------------------------------------------------
 # B3LYP/6-311++G(d,p) empiricaldispersion=gd3bj scf=xqc pop=npa geom=c
 heck
 ----------------------------------------------------------------------

 ------------------------------------
 CID_116211613_JID_8130_Energie_anion
 ------------------------------------
 Structure from the checkpoint file:  "JID_8130.chk"
 Charge = -1 Multiplicity = 2

                         Standard orientation:
 ---------------------------------------------------------------------
 Center     Atomic      Atomic             Coordinates (Angstroms)
 Number     Number       Type             X           Y           Z
 ---------------------------------------------------------------------
      1          6           0        4.701297    2.360412   -1.185244
      2          7           0        5.261946    1.012031   -1.178492
      3          6           0        5.205302    0.357873    0.127933
      4          6           0        3.831109    0.200779    0.706033
      5          6           0        3.188831    0.695112    1.807232
      6          6           0        1.842091    0.212172    1.759072
      7          6           0        1.761511   -0.529662    0.617067
      8          8           0        2.957899   -0.552475   -0.034144
      9         16           0        0.463273   -1.474478   -0.119322
     10          8           0        0.492047   -1.170458   -1.552401
     11          8           0        0.494314   -2.862146    0.347256
     12          7           0       -0.845747   -0.771967    0.657873
     13          6           0       -1.509941    0.387371    0.037613
     14          6           0       -2.443618    0.061978   -1.134358
     15          6           0       -3.564190   -0.930404   -0.805756
     16          6           0       -4.547491   -0.497804    0.288290
     17         16           0       -5.570318    0.979310   -0.109749
     18          6           0       -4.575861    2.334465    0.605933
     19          1           0        5.301466    3.000127   -0.527166
     20          1           0        3.651625    2.425953   -0.851395
     21          1           0        4.767485    2.767483   -2.198560
     22          1           0        4.763879    0.434436   -1.853149
     23          1           0        5.676887   -0.627524    0.031204
     24          1           0        5.805954    0.937340    0.838625
     25          1           0        3.625748    1.332125    2.563351
     26          1           0        1.039247    0.389610    2.457817
     27          1           0       -1.464128   -1.516945    0.968218
     28          1           0       -2.046672    0.894920    0.845783
     29          1           0       -0.720305    1.070160   -0.288737
     30          1           0       -2.886010    0.999694   -1.492563
     31          1           0       -1.839418   -0.339894   -1.952689
     32          1           0       -4.129928   -1.129666   -1.722475
     33          1           0       -3.128885   -1.896962   -0.509677
     34          1           0       -5.268909   -1.301951    0.464120
     35          1           0       -4.046869   -0.312896    1.246186
     36          1           0       -4.338094    2.131231    1.654783
     37          1           0       -3.655130    2.518998    0.047037
     38          1           0       -5.196923    3.232889    0.560182
 ---------------------------------------------------------------------

 SCF Done:  E(UB3LYP) =  -1563.00066932     A.U. after   33 cycles
 SCF Done:  E(UB3LYP) =  -1563.00066932     a.u. after    1 cycles

 The electronic state is 2-A.
 Alpha  occ. eigenvalues --  -88.97288 -88.75469 -19.09513 -19.02125 -19.02114
 Alpha  occ. eigenvalues --  -14.25239 -14.21682 -10.14212 -10.13185 -10.12274
 Alpha  occ. eigenvalues --  -10.11957 -10.11646 -10.10768 -10.10179 -10.09315
 Alpha  occ. eigenvalues --  -10.08590 -10.08329 -10.08196  -8.03343  -7.84064
 Alpha  occ. eigenvalues --   -5.99646  -5.99571  -5.99474  -5.80472  -5.80097
 Alpha  occ. eigenvalues --   -5.79423  -1.03392  -1.01712  -0.91432  -0.83915
 Alpha  occ. eigenvalues --   -0.82332  -0.73534  -0.71555  -0.69551  -0.68415
 Alpha  occ. eigenvalues --   -0.64629  -0.62516  -0.58988  -0.57137  -0.54169
 Alpha  occ. eigenvalues --   -0.52859  -0.51754  -0.48475  -0.46417  -0.45462
 Alpha  occ. eigenvalues --   -0.42463  -0.40938  -0.40056  -0.38742  -0.38451
 Alpha  occ. eigenvalues --   -0.38269  -0.37625  -0.35748  -0.35001  -0.34532
 Alpha  occ. eigenvalues --   -0.33881  -0.33474  -0.33036  -0.32416  -0.32158
 Alpha  occ. eigenvalues --   -0.31216  -0.29814  -0.29754  -0.28861  -0.28180
 Alpha  occ. eigenvalues --   -0.27803  -0.26645  -0.25310  -0.25155  -0.23349
 Alpha  occ. eigenvalues --   -0.22779  -0.22387  -0.21506  -0.19777  -0.18394
 Alpha  occ. eigenvalues --   -0.15367  -0.14213  -0.14037   0.03761
 Alpha virt. eigenvalues --    0.05436   0.05996   0.06356   0.07092   0.07627
 Alpha virt. eigenvalues --    0.08038   0.08400   0.09350   0.09646   0.09885
 Alpha virt. eigenvalues --    0.10200   0.10633   0.11074   0.11257   0.11376

  Beta  occ. eigenvalues --  -88.97285 -88.75465 -19.09375 -19.02091 -19.02078
  Beta  occ. eigenvalues --  -14.25230 -14.21663 -10.14107 -10.13049 -10.12250
  Beta  occ. eigenvalues --  -10.11959 -10.11621 -10.10721 -10.10160 -10.09310
  Beta  occ. eigenvalues --  -10.08521 -10.08324 -10.08214  -8.03340  -7.84060
  Beta  occ. eigenvalues --   -5.99642  -5.99557  -5.99474  -5.80468  -5.80087
  Beta  occ. eigenvalues --   -5.79421  -1.03241  -1.01557  -0.91350  -0.83874
  Beta  occ. eigenvalues --   -0.82285  -0.73504  -0.71408  -0.69403  -0.68310
  Beta  occ. eigenvalues --   -0.64569  -0.62424  -0.58921  -0.57029  -0.54114
  Beta  occ. eigenvalues --   -0.52797  -0.51680  -0.48420  -0.46235  -0.45384
  Beta  occ. eigenvalues --   -0.42400  -0.40848  -0.40012  -0.38610  -0.38399
  Beta  occ. eigenvalues --   -0.38129  -0.37451  -0.35660  -0.34870  -0.34354
  Beta  occ. eigenvalues --   -0.33817  -0.33398  -0.32980  -0.32348  -0.32124
  Beta  occ. eigenvalues --   -0.31163  -0.29763  -0.29672  -0.28795  -0.28122
  Beta  occ. eigenvalues --   -0.27770  -0.26619  -0.25273  -0.25073  -0.23233
  Beta  occ. eigenvalues --   -0.22698  -0.22338  -0.21398  -0.19323  -0.18347
  Beta  occ. eigenvalues --   -0.15182  -0.14189  -0.13518
  Beta virt. eigenvalues --    0.05889   0.06289   0.06401   0.07133   0.07451
  Beta virt. eigenvalues --    0.07903   0.08328   0.08529   0.09547   0.09723
  Beta virt. eigenvalues --    0.10129   0.10468   0.10709   0.11107   0.11394

 Mulliken charges and spin densities:
               1          2
     1  C   -0.082551  -0.318251
     2  N   -0.204716   0.057175
     3  C    0.374682  -1.127958
     4  C   -0.306141   0.605278
     5  C   -0.222707   0.042510
     6  C    0.212634  -0.042416
     7  C   -1.091301  -0.046359
     8  O    0.046604   0.031428
     9  S    1.561969  -0.434502
    10  O   -0.132212  -0.008131
    11  O   -0.161152   0.013825
    12  N   -0.384677   0.061910
    13  C   -0.098530  -0.492084
    14  C   -0.456331   0.092109
    15  C   -0.323816  -0.069977
    16  C    0.103970  -0.210006
    17  S   -0.286759   0.373073
    18  C    0.361659  -1.102447
    19  H   -0.000484   0.147059
    20  H    0.068254   0.050147
    21  H    0.012038   0.116163
    22  H    0.212520   0.036875
    23  H    0.001586   0.189231
    24  H    0.038358   0.122529
    25  H   -0.220989   0.396699
    26  H   -0.483289   0.677605
    27  H    0.113281   0.166289
    28  H    0.304389  -0.058811
    29  H    0.177233   0.024631
    30  H    0.131895   0.018506
    31  H    0.165191   0.022958
    32  H    0.110926   0.033266
    33  H    0.162553   0.004722
    34  H    0.012574   0.236665
    35  H   -0.143100   0.286999
    36  H   -0.340843   0.535602
    37  H   -0.067290   0.226039
    38  H   -0.165429   0.341649
 Sum of Mulliken charges =  -1.00000   1.00000

 Dipole moment (field-independent basis, Debye):
    X=              0.0566    Y=             -0.3951    Z=             -2.7520  Tot=              2.7808
 Quadrupole moment (field-independent basis, Debye-Ang):
   XX=           -226.3024   YY=           -164.4871   ZZ=           -163.5105
   XY=             11.2089   XZ=             12.0684   YZ=             -4.0327

 Summary of Natural Population Analysis:

                                       Natural Population
                Natural  -----------------------------------------------
    Atom  No    Charge         Core      Valence    Rydberg      Total
 -----------------------------------------------------------------------
      C    1   -0.18067      0.99966     2.17397    0.00704     3.18067
      N    2   -0.33405      0.99976     2.82180    0.01249     3.83405
      C    3   -0.11009      0.99958     2.09920    0.01132     3.11009
      C    4    0.17123      0.99947     1.81514    0.01415     2.82877
      C    5   -0.15794      0.99949     2.14876    0.00969     3.15794
      C    6   -0.11750      0.99949     2.10859    0.00942     3.11750
      C    7    0.02564      0.99934     1.95486    0.02016     2.97436
      O    8   -0.22641      0.99984     3.21729    0.00928     4.22641
      S    9    1.10170      4.99916     1.79561    0.10353     6.89830
      O   10   -0.45767      0.99990     3.45264    0.00513     4.45767
      O   11   -0.45916      0.99991     3.45378    0.00547     4.45916
      N   12   -0.43849      0.99976     2.92515    0.01358     3.93849
      C   13   -0.09823      0.99961     2.08485    0.01376     3.09823
      C   14   -0.20529      0.99961     2.19740    0.00828     3.20529
      C   15   -0.19858      0.99961     2.18921    0.00976     3.19858
      C   16   -0.25447      0.99959     2.24261    0.01227     3.25447
      S   17    0.07885      4.99964     2.90237    0.01914     7.92115
      C   18   -0.34935      0.99962     2.34342    0.00630     3.34935
      H   19    0.08875      0.00000     0.40985    0.00140     0.41125
      H   20    0.08557      0.00000     0.41277    0.00166     0.41443
      H   21    0.09309      0.00000     0.40595    0.00096     0.40691
      H   22    0.17368      0.00000     0.32304    0.00328     0.32632
      H   23    0.10463      0.00000     0.39405    0.00131     0.39537
      H   24    0.09888      0.00000     0.39997    0.00116     0.40112
      H   25    0.10916      0.00000     0.38991    0.00093     0.39084
      H   26    0.11723      0.00000     0.38125    0.00152     0.38277
      H   27    0.19796      0.00000     0.29973    0.00231     0.30204
      H   28    0.10077      0.00000     0.39749    0.00174     0.39923
      H   29    0.10668      0.00000     0.39201    0.00131     0.39332
      H   30    0.10094      0.00000     0.39789    0.00116     0.39906
      H   31    0.11257      0.00000     0.38628    0.00115     0.38743
      H   32    0.10116      0.00000     0.39761    0.00122     0.39884
      H   33    0.09641      0.00000     0.40218    0.00140     0.40359
      H   34    0.10586      0.00000     0.39324    0.00090     0.39414
      H   35    0.10438      0.00000     0.39403    0.00159     0.39562
      H   36    0.10612      0.00000     0.39142    0.00246     0.39388
      H   37    0.09881      0.00000     0.39943    0.00176     0.40119
      H   38    0.10782      0.00000     0.39109    0.00108     0.39218
 =======================================================================
   * Total *    0.00000     25.99305    51.68587    0.32108    78.00000

 Normal termination of Gaussian 16 at Fri Dec 11 20:32:46 2020.
