 Gaussian 16, Revision A.03,

 -----------------------------------------------------------
 # opt freq B3LYP/6-31G(d) empiricaldispersion=gd3bj scf=xqc
 -----------------------------------------------------------

 ------------------------------
 CID_60912464_JID_5930_neutraal
 ------------------------------
 Symbolic Z-matrix:
 Charge =  0 Multiplicity = 1

 SCF Done:  E(RB3LYP) =  -756.678342923     A.U. after   15 cycles
 SCF Done:  E(RB3LYP) =  -756.683460708     A.U. after   14 cycles
 SCF Done:  E(RB3LYP) =  -756.683637288     A.U. after   13 cycles
 SCF Done:  E(RB3LYP) =  -756.680961212     A.U. after   14 cycles
 SCF Done:  E(RB3LYP) =  -756.684039436     A.U. after   12 cycles
 SCF Done:  E(RB3LYP) =  -756.684122821     A.U. after   12 cycles
 SCF Done:  E(RB3LYP) =  -756.684138491     A.U. after   12 cycles
 SCF Done:  E(RB3LYP) =  -756.684153927     A.U. after   11 cycles
 SCF Done:  E(RB3LYP) =  -756.684163282     A.U. after   11 cycles
 SCF Done:  E(RB3LYP) =  -756.684166986     A.U. after   11 cycles
 SCF Done:  E(RB3LYP) =  -756.684168179     A.U. after    9 cycles
 SCF Done:  E(RB3LYP) =  -756.684168283     A.U. after    9 cycles
 SCF Done:  E(RB3LYP) =  -756.684168366     A.U. after    9 cycles
 SCF Done:  E(RB3LYP) =  -756.684168394     A.U. after    8 cycles
 SCF Done:  E(RB3LYP) =  -756.684168412     A.U. after    8 cycles
 Optimization completed.
    -- Stationary point found.
 Normal termination of Gaussian 16 at Thu Dec 10 17:41:01 2020.

 --------------------------------------------------------------------
 #N Geom=AllCheck Guess=TCheck SCRF=Check GenChk RB3LYP/6-31G(d) Freq
 --------------------------------------------------------------------

 Structure from the checkpoint file:  "JID_5930.chk"
 ------------------------------
 CID_60912464_JID_5930_neutraal
 ------------------------------
 Charge =  0 Multiplicity = 1

 SCF Done:  E(RB3LYP) =  -756.684168412     A.U. after    1 cycles

  Exact polarizability: 140.360   2.090 117.627  -6.714   1.421  85.098
 Approx polarizability: 206.125  13.410 201.462 -17.663   3.255 125.064

                      1                      2                      3
                      A                      A                      A
 Frequencies --     16.1215                39.4913                74.6166
 Red. masses --      6.1619                10.7158                 4.7532
 Frc consts  --      0.0009                 0.0098                 0.0156
 IR Inten    --      1.0360                 0.1883                 1.8780

                      4                      5                      6
                      A                      A                      A
 Frequencies --    110.0677               146.5975               191.6821
 Red. masses --      5.9463                 4.7662                 8.2543
 Frc consts  --      0.0424                 0.0603                 0.1787
 IR Inten    --      1.0618                 0.7858                 0.2620

                      7                      8                      9
                      A                      A                      A
 Frequencies --    211.2188               224.4603               267.6047
 Red. masses --      2.7856                 1.1155                 3.4124
 Frc consts  --      0.0732                 0.0331                 0.1440
 IR Inten    --      0.1438               108.9617                 0.5868

                     10                     11                     12
                      A                      A                      A
 Frequencies --    298.1234               322.3425               364.8700
 Red. masses --      5.4842                 2.3440                 4.0617
 Frc consts  --      0.2872                 0.1435                 0.3186
 IR Inten    --      1.3770                 0.5812                 8.0421

                     13                     14                     15
                      A                      A                      A
 Frequencies --    376.5678               424.3686               426.6463
 Red. masses --      2.7591                 6.3391                 3.9522
 Frc consts  --      0.2305                 0.6726                 0.4239
 IR Inten    --      0.8774                 2.6173                 1.6331

                     16                     17                     18
                      A                      A                      A
 Frequencies --    501.7911               544.6179               584.4272
 Red. masses --      2.5243                 7.1030                 3.1000
 Frc consts  --      0.3745                 1.2413                 0.6238
 IR Inten    --      2.6303                 1.4269                 1.6329

                     19                     20                     21
                      A                      A                      A
 Frequencies --    597.1111               668.9630               685.0351
 Red. masses --      3.9252                10.6587                 4.0865
 Frc consts  --      0.8246                 2.8103                 1.1299
 IR Inten    --      4.8077                19.7696                12.4515

                     22                     23                     24
                      A                      A                      A
 Frequencies --    755.4250               781.2396               793.7219
 Red. masses --      2.5808                13.0862                 2.1473
 Frc consts  --      0.8677                 4.7058                 0.7970
 IR Inten    --      7.3152                 0.8747                 1.9583

                     25                     26                     27
                      A                      A                      A
 Frequencies --    844.5021               852.8473               856.2162
 Red. masses --      8.7958                 2.2834                 1.5552
 Frc consts  --      3.6960                 0.9786                 0.6717
 IR Inten    --     65.6202                11.9287                 6.9150

                     28                     29                     30
                      A                      A                      A
 Frequencies --    881.3660               923.6875               937.6123
 Red. masses --      1.8081                 2.2207                 1.7040
 Frc consts  --      0.8275                 1.1163                 0.8826
 IR Inten    --     10.5056                 4.8489                18.8752

                     31                     32                     33
                      A                      A                      A
 Frequencies --    992.8446              1036.6677              1047.5034
 Red. masses --      2.5506                 5.5106                 2.1018
 Frc consts  --      1.4813                 3.4892                 1.3588
 IR Inten    --     14.1177                10.9986                 1.8331

                     34                     35                     36
                      A                      A                      A
 Frequencies --   1059.1335              1064.4362              1108.8480
 Red. masses --      2.6486                 2.3256                 1.7039
 Frc consts  --      1.7505                 1.5524                 1.2344
 IR Inten    --     25.2333                 6.3786                 3.9606

                     37                     38                     39
                      A                      A                      A
 Frequencies --   1121.7181              1142.7380              1168.4619
 Red. masses --      3.4020                 2.5742                 1.5774
 Frc consts  --      2.5220                 1.9805                 1.2689
 IR Inten    --     34.8687                30.0542                 1.1684

                     40                     41                     42
                      A                      A                      A
 Frequencies --   1195.2500              1217.8731              1246.8034
 Red. masses --      1.2322                 1.4761                 1.9873
 Frc consts  --      1.0372                 1.2899                 1.8201
 IR Inten    --     12.2728                42.8357                11.7160

                     43                     44                     45
                      A                      A                      A
 Frequencies --   1284.5013              1299.1774              1310.7217
 Red. masses --      1.2900                 1.3379                 1.6294
 Frc consts  --      1.2540                 1.3305                 1.6493
 IR Inten    --     23.2105                 8.4248                21.0939

                     46                     47                     48
                      A                      A                      A
 Frequencies --   1348.3184              1358.6602              1363.3915
 Red. masses --      1.6817                 3.0435                 1.7212
 Frc consts  --      1.8013                 3.3101                 1.8850
 IR Inten    --      5.3858                65.7953                60.4636

                     49                     50                     51
                      A                      A                      A
 Frequencies --   1385.0307              1388.4474              1404.5181
 Red. masses --      1.5345                 2.1482                 1.4923
 Frc consts  --      1.7344                 2.4400                 1.7344
 IR Inten    --      1.3055                 8.0388                 0.8840

                     52                     53                     54
                      A                      A                      A
 Frequencies --   1410.7132              1423.9454              1430.5573
 Red. masses --      1.4748                 1.5888                 6.5068
 Frc consts  --      1.7292                 1.8981                 7.8456
 IR Inten    --      3.6688                 3.9426                66.6056

                     55                     56                     57
                      A                      A                      A
 Frequencies --   1438.9868              1450.8275              1461.0371
 Red. masses --      1.8471                 4.2850                 1.8128
 Frc consts  --      2.2535                 5.3141                 2.2799
 IR Inten    --      0.6273                75.2215                51.9437

                     58                     59                     60
                      A                      A                      A
 Frequencies --   1507.5292              1519.0105              1521.1581
 Red. masses --      1.1035                 1.0952                 1.0855
 Frc consts  --      1.4776                 1.4889                 1.4799
 IR Inten    --      6.5189                 5.4420                 3.2769

                     61                     62                     63
                      A                      A                      A
 Frequencies --   1535.2997              1549.1468              1662.0536
 Red. masses --      1.1215                 4.9233                14.4309
 Frc consts  --      1.5576                 6.9614                23.4873
 IR Inten    --     18.3535                44.8521               199.8976

                     64                     65                     66
                      A                      A                      A
 Frequencies --   2981.4126              3026.3823              3036.9957
 Red. masses --      1.0830                 1.0696                 1.0646
 Frc consts  --      5.6718                 5.7717                 5.7855
 IR Inten    --     45.2205                30.5915                41.3629

                     67                     68                     69
                      A                      A                      A
 Frequencies --   3049.8320              3068.3028              3086.3765
 Red. masses --      1.0677                 1.0692                 1.0866
 Frc consts  --      5.8511                 5.9305                 6.0986
 IR Inten    --     18.8874                39.8873                28.9627

                     70                     71                     72
                      A                      A                      A
 Frequencies --   3088.5160              3095.7579              3108.6973
 Red. masses --      1.0939                 1.0980                 1.0971
 Frc consts  --      6.1477                 6.2002                 6.2469
 IR Inten    --     29.7894                30.7466                17.5873

                     73                     74                     75
                      A                      A                      A
 Frequencies --   3140.0146              3305.3938              3755.4644
 Red. masses --      1.0964                 1.0992                 1.0663
 Frc consts  --      6.3694                 7.0760                 8.8608
 IR Inten    --     13.7006                 0.9400                21.5038

 - Thermochemistry -
 -------------------
 Temperature   298.150 Kelvin.  Pressure   1.00000 Atm.
 Atom     1 has atomic number  6 and mass  12.00000

 Molecular mass:   212.09094 amu.
 Principal axes and moments of inertia in atomic units:
                           1         2         3
     Eigenvalues --  1692.248764328.532975120.91249
           X            0.99979   0.01970   0.00494
           Y           -0.01967   0.99978  -0.00661
           Z           -0.00507   0.00651   0.99997
 This molecule is an asymmetric top.
 Rotational symmetry number  1.
 Warning -- assumption of classical behavior for rotation
           may cause significant error
 Rotational temperatures (Kelvin)      0.05118     0.02001     0.01691
 Rotational constants (GHZ):           1.06648     0.41694     0.35243
 Zero-point vibrational energy     573620.1 (Joules/Mol)
                                  137.09850 (Kcal/Mol)
 Warning -- explicit consideration of  19 degrees of freedom as
           vibrations may cause significant error
 Vibrational temperatures:     23.20    56.82   107.36   158.36   210.92
          (Kelvin)            275.79   303.90   322.95   385.02   428.93
                              463.78   524.97   541.80   610.57   613.85
                              721.97   783.58   840.86   859.11   962.49
                              985.61  1086.89  1124.03  1141.99  1215.05
                             1227.06  1231.90  1268.09  1328.98  1349.02
                             1428.48  1491.53  1507.12  1523.86  1531.49
                             1595.38  1613.90  1644.15  1681.16  1719.70
                             1752.25  1793.87  1848.11  1869.23  1885.84
                             1939.93  1954.81  1961.62  1992.75  1997.67
                             2020.79  2029.70  2048.74  2058.25  2070.38
                             2087.42  2102.11  2169.00  2185.52  2188.61
                             2208.95  2228.88  2391.32  4289.59  4354.29
                             4369.56  4388.03  4414.60  4440.61  4443.69
                             4454.11  4472.72  4517.78  4755.72  5403.28

 Zero-point correction=                           0.218480 (Hartree/Particle)
 Thermal correction to Energy=                    0.231429
 Thermal correction to Enthalpy=                  0.232373
 Thermal correction to Gibbs Free Energy=         0.177161
 Sum of electronic and zero-point Energies=           -756.465688
 Sum of electronic and thermal Energies=              -756.452740
 Sum of electronic and thermal Enthalpies=            -756.451795
 Sum of electronic and thermal Free Energies=         -756.507007

                     E (Thermal)             CV                S
                      KCal/Mol        Cal/Mol-Kelvin    Cal/Mol-Kelvin
 Total                  145.224             48.982            116.202
 Electronic               0.000              0.000              0.000
 Translational            0.889              2.981             41.959
 Rotational               0.889              2.981             31.995
 Vibrational            143.446             43.021             42.248
 Vibration     1          0.593              1.986              7.062
 Vibration     2          0.594              1.981              5.284
 Vibration     3          0.599              1.966              4.028
 Vibration     4          0.606              1.941              3.268
 Vibration     5          0.617              1.906              2.716
 Vibration     6          0.634              1.851              2.212
 Vibration     7          0.643              1.824              2.033
 Vibration     8          0.649              1.804              1.923
 Vibration     9          0.673              1.733              1.612
 Vibration    10          0.691              1.677              1.427
 Vibration    11          0.707              1.631              1.298
 Vibration    12          0.738              1.545              1.101
 Vibration    13          0.747              1.520              1.053
 Vibration    14          0.786              1.417              0.877
 Vibration    15          0.788              1.412              0.870
 Vibration    16          0.857              1.246              0.654
 Vibration    17          0.900              1.151              0.555
 Vibration    18          0.941              1.065              0.477
 Vibration    19          0.955              1.038              0.455

                           ! Non-Optimized Parameters !
 Normal termination of Gaussian 16 at Thu Dec 10 17:50:04 2020.

 ----------------------------------------------------------------------
 # B3LYP/6-311++G(d,p) empiricaldispersion=gd3bj scf=xqc pop=npa geom=c
 heck
 ----------------------------------------------------------------------

 --------------------------------------
 CID_60912464_JID_5930_Energie_neutraal
 --------------------------------------
 Structure from the checkpoint file:  "JID_5930.chk"
 Charge =  0 Multiplicity = 1

 SCF Done:  E(RB3LYP) =  -756.905237583     A.U. after   15 cycles
 Normal termination of Gaussian 16 at Thu Dec 10 17:53:07 2020.

 ----------------------------------------------------------------------
 # B3LYP/6-311++G(d,p) empiricaldispersion=gd3bj scf=xqc pop=npa geom=c
 heck
 ----------------------------------------------------------------------

 ------------------------------------
 CID_60912464_JID_5930_Energie_kation
 ------------------------------------
 Structure from the checkpoint file:  "JID_5930.chk"
 Charge =  1 Multiplicity = 2

 SCF Done:  E(UB3LYP) =  -756.541923938     A.U. after   33 cycles
 SCF Done:  E(UB3LYP) =  -756.541923939     a.u. after    1 cycles
 Normal termination of Gaussian 16 at Thu Dec 10 18:02:16 2020.
 Gaussian 16:  ES64L-G16RevA.03 25-Dec-2016

 ----------------------------------------------------------------------
 # B3LYP/6-311++G(d,p) empiricaldispersion=gd3bj scf=xqc pop=npa geom=c
 heck
 ----------------------------------------------------------------------

 -----------------------------------
 CID_60912464_JID_5930_Energie_anion
 -----------------------------------
 Structure from the checkpoint file:  "JID_5930.chk"
 Charge = -1 Multiplicity = 2

                         Standard orientation:
 ---------------------------------------------------------------------
 Center     Atomic      Atomic             Coordinates (Angstroms)
 Number     Number       Type             X           Y           Z
 ---------------------------------------------------------------------
      1          6           0       -1.854928   -1.976543    0.446652
      2          6           0       -2.659277   -1.580391   -0.798928
      3          6           0       -2.173440   -0.240385   -1.371143
      4          6           0       -2.292302    0.855606   -0.314260
      5          6           0       -1.457013    0.528155    0.935955
      6          6           0       -1.824520   -0.853996    1.498233
      7          7           0       -0.021746    0.659483    0.643927
      8          6           0        0.699408    1.807614    0.549081
      9          7           0        1.948696    1.543399    0.208254
     10          6           0        1.921727    0.197954    0.097380
     11          7           0        0.764569   -0.395644    0.344354
     12          7           0        3.091866   -0.588163   -0.272491
     13          8           0        4.136541    0.025662   -0.458653
     14          8           0        2.936152   -1.803393   -0.370675
     15          8           0       -1.872997    2.136474   -0.766597
     16          1           0       -2.289549   -2.873496    0.903044
     17          1           0       -0.830921   -2.222504    0.156724
     18          1           0       -3.725792   -1.494978   -0.544254
     19          1           0       -2.580874   -2.363221   -1.561036
     20          1           0       -2.769446    0.039598   -2.250809
     21          1           0       -1.128700   -0.317771   -1.695667
     22          1           0       -3.340470    0.901731    0.026696
     23          1           0       -1.660870    1.297359    1.687615
     24          1           0       -2.821413   -0.745958    1.945045
     25          1           0       -1.136528   -1.106213    2.311245
     26          1           0        0.270296    2.782529    0.722220
     27          1           0       -2.224922    2.271377   -1.659551
 ---------------------------------------------------------------------

 SCF Done:  E(UB3LYP) =  -756.929480493     A.U. after   32 cycles

 The electronic state is 2-A.
 Alpha  occ. eigenvalues --  -19.04066 -18.94710 -18.94692 -14.32843 -14.27309
 Alpha  occ. eigenvalues --  -14.19948 -14.18120 -10.13585 -10.12629 -10.11468
 Alpha  occ. eigenvalues --  -10.10855 -10.08260 -10.08070 -10.07926 -10.06769
 Alpha  occ. eigenvalues --   -1.03149  -0.96108  -0.94274  -0.85953  -0.79477
 Alpha  occ. eigenvalues --   -0.74180  -0.71553  -0.65816  -0.64614  -0.58088
 Alpha  occ. eigenvalues --   -0.53623  -0.53147  -0.50171  -0.46180  -0.44561
 Alpha  occ. eigenvalues --   -0.42932  -0.40525  -0.39057  -0.36718  -0.36228
 Alpha  occ. eigenvalues --   -0.35259  -0.34219  -0.33444  -0.33293  -0.31334
 Alpha  occ. eigenvalues --   -0.30560  -0.30524  -0.29691  -0.27124  -0.26828
 Alpha  occ. eigenvalues --   -0.24384  -0.23551  -0.22263  -0.20145  -0.19430
 Alpha  occ. eigenvalues --   -0.17437  -0.16014  -0.14320  -0.13412  -0.12396
 Alpha  occ. eigenvalues --   -0.10313   0.03401
 Alpha virt. eigenvalues --    0.05127   0.06754   0.07624   0.08731   0.09499
 Alpha virt. eigenvalues --    0.10285   0.11274   0.11376   0.12197   0.12789
 Alpha virt. eigenvalues --    0.13103   0.13879   0.15664   0.15976   0.16304

  Beta  occ. eigenvalues --  -19.04056 -18.94298 -18.94212 -14.32250 -14.27197
  Beta  occ. eigenvalues --  -14.19597 -14.18076 -10.13561 -10.12635 -10.11518
  Beta  occ. eigenvalues --  -10.10826 -10.08251 -10.08064 -10.07920 -10.06770
  Beta  occ. eigenvalues --   -1.02177  -0.95868  -0.94219  -0.85127  -0.79343
  Beta  occ. eigenvalues --   -0.74015  -0.71303  -0.65742  -0.64526  -0.57364
  Beta  occ. eigenvalues --   -0.53573  -0.53022  -0.50107  -0.46075  -0.44245
  Beta  occ. eigenvalues --   -0.42889  -0.40391  -0.38661  -0.36387  -0.35335
  Beta  occ. eigenvalues --   -0.34670  -0.34035  -0.33117  -0.32203  -0.31048
  Beta  occ. eigenvalues --   -0.30358  -0.30118  -0.29195  -0.27096  -0.26789
  Beta  occ. eigenvalues --   -0.24310  -0.23529  -0.22195  -0.19908  -0.19353
  Beta  occ. eigenvalues --   -0.16722  -0.15797  -0.13168  -0.11971  -0.10444
  Beta  occ. eigenvalues --   -0.09870
  Beta virt. eigenvalues --    0.05566   0.06932   0.07629   0.08919   0.09471
  Beta virt. eigenvalues --    0.10165   0.10517   0.11337   0.11640   0.12435
  Beta virt. eigenvalues --    0.12736   0.13398   0.13854   0.15640   0.16037

 Mulliken charges and spin densities:
               1          2
     1  C   -0.295294   0.045153
     2  C   -0.199172  -0.335125
     3  C   -0.109651   0.009195
     4  C    0.017634  -0.744011
     5  C    0.113019   0.256304
     6  C   -0.573148  -0.072662
     7  N    0.116756   0.010778
     8  C    0.314120  -0.057364
     9  N   -0.139693   0.022603
    10  C   -0.209044  -0.004764
    11  N   -0.137159   0.161749
    12  N   -0.385540   0.187031
    13  O   -0.153647   0.186928
    14  O   -0.141532   0.156464
    15  O   -0.222891   0.005002
    16  H    0.139969   0.002810
    17  H    0.209182   0.003651
    18  H    0.033552   0.087499
    19  H    0.153453   0.002945
    20  H   -0.008639   0.139373
    21  H    0.244530  -0.012118
    22  H   -0.327075   0.520116
    23  H    0.054260   0.196075
    24  H    0.009210   0.127963
    25  H    0.162718   0.022311
    26  H    0.155469   0.017076
    27  H    0.178613   0.065017
 Sum of Mulliken charges =  -1.00000   1.00000

 Dipole moment (field-independent basis, Debye):
    X=            -10.6952    Y=              1.0744    Z=              0.8825  Tot=             10.7852
 Quadrupole moment (field-independent basis, Debye-Ang):
   XX=           -162.5869   YY=           -110.2711   ZZ=            -93.9224
   XY=              8.8479   XZ=              7.0845   YZ=             -1.6172

 Summary of Natural Population Analysis:

                                       Natural Population
                Natural  -----------------------------------------------
    Atom  No    Charge         Core      Valence    Rydberg      Total
 -----------------------------------------------------------------------
      C    1   -0.19779      0.99962     2.18992    0.00824     3.19779
      C    2   -0.18965      0.99963     2.18192    0.00809     3.18965
      C    3   -0.20805      0.99961     2.19844    0.01001     3.20805
      C    4    0.06410      0.99950     1.92135    0.01505     2.93590
      C    5   -0.00688      0.99955     1.99270    0.01463     3.00688
      C    6   -0.19241      0.99961     2.18352    0.00927     3.19241
      N    7   -0.10819      0.99964     2.59349    0.01505     3.60819
      C    8    0.09312      0.99965     1.89062    0.01661     2.90688
      N    9   -0.24142      0.99969     2.73225    0.00948     3.74142
      C   10    0.22013      0.99957     1.76091    0.01939     2.77987
      N   11   -0.10770      0.99968     2.59445    0.01357     3.60770
      N   12    0.29114      0.99972     2.18110    0.02804     3.20886
      O   13   -0.17453      0.99990     3.16650    0.00813     4.17453
      O   14   -0.19585      0.99990     3.18783    0.00812     4.19585
      O   15   -0.37108      0.99989     3.36454    0.00664     4.37108
      H   16    0.09411      0.00000     0.40508    0.00081     0.40589
      H   17    0.12085      0.00000     0.37790    0.00125     0.37915
      H   18    0.09006      0.00000     0.40883    0.00111     0.40994
      H   19    0.09942      0.00000     0.39978    0.00080     0.40058
      H   20    0.09420      0.00000     0.40481    0.00099     0.40580
      H   21    0.11088      0.00000     0.38775    0.00137     0.38912
      H   22    0.07960      0.00000     0.41778    0.00262     0.42040
      H   23    0.10384      0.00000     0.39462    0.00154     0.39616
      H   24    0.09651      0.00000     0.40251    0.00098     0.40349
      H   25    0.10997      0.00000     0.38908    0.00095     0.39003
      H   26    0.09614      0.00000     0.40204    0.00182     0.40386
      H   27    0.22946      0.00000     0.26796    0.00258     0.27054
 =======================================================================
   * Total *   -0.00000     14.99517    40.79767    0.20716    56.00000

 Normal termination of Gaussian 16 at Thu Dec 10 18:11:01 2020.
