 Gaussian 16, Revision A.03,

 -----------------------------------------------------------
 # opt freq B3LYP/6-31G(d) empiricaldispersion=gd3bj scf=xqc
 -----------------------------------------------------------

 -------------------------------
 CID_142782907_JID_2119_neutraal
 -------------------------------
 Symbolic Z-matrix:
 Charge =  0 Multiplicity = 1

 SCF Done:  E(RB3LYP) =  -557.227277784     A.U. after   14 cycles
 SCF Done:  E(RB3LYP) =  -557.231399912     A.U. after   12 cycles
 SCF Done:  E(RB3LYP) =  -557.231742191     A.U. after   10 cycles
 SCF Done:  E(RB3LYP) =  -557.231860842     A.U. after   11 cycles
 SCF Done:  E(RB3LYP) =  -557.232009331     A.U. after   10 cycles
 SCF Done:  E(RB3LYP) =  -557.232201525     A.U. after   11 cycles
 SCF Done:  E(RB3LYP) =  -557.232332068     A.U. after   10 cycles
 SCF Done:  E(RB3LYP) =  -557.232701415     A.U. after   11 cycles
 SCF Done:  E(RB3LYP) =  -557.233163081     A.U. after   12 cycles
 SCF Done:  E(RB3LYP) =  -557.230202872     A.U. after   14 cycles
 SCF Done:  E(RB3LYP) =  -557.233864777     A.U. after    9 cycles
 SCF Done:  E(RB3LYP) =  -557.233873617     A.U. after    9 cycles
 SCF Done:  E(RB3LYP) =  -557.233881791     A.U. after   10 cycles
 SCF Done:  E(RB3LYP) =  -557.233884462     A.U. after    8 cycles
 SCF Done:  E(RB3LYP) =  -557.233884593     A.U. after    7 cycles
 SCF Done:  E(RB3LYP) =  -557.233884727     A.U. after    7 cycles
 Optimization completed.
    -- Stationary point found.
 Normal termination of Gaussian 16 at Wed Dec  9 16:56:02 2020.

 --------------------------------------------------------------------
 #N Geom=AllCheck Guess=TCheck SCRF=Check GenChk RB3LYP/6-31G(d) Freq
 --------------------------------------------------------------------

 Structure from the checkpoint file:  "JID_2119.chk"
 -------------------------------
 CID_142782907_JID_2119_neutraal
 -------------------------------
 Charge =  0 Multiplicity = 1

 SCF Done:  E(RB3LYP) =  -557.233884727     A.U. after    1 cycles

  Exact polarizability: 118.469   1.758  98.151  -2.566   2.145  88.372
 Approx polarizability: 148.190   5.748 146.200  -4.589   6.086 130.979

                      1                      2                      3
                      A                      A                      A
 Frequencies --     29.3859                80.8443               116.5752
 Red. masses --      4.4102                 4.7283                 3.0131
 Frc consts  --      0.0022                 0.0182                 0.0241
 IR Inten    --      0.0369                 0.2993                 0.6444

                      4                      5                      6
                      A                      A                      A
 Frequencies --    137.7777               160.2209               185.7326
 Red. masses --      4.0886                 2.4697                 1.3412
 Frc consts  --      0.0457                 0.0374                 0.0273
 IR Inten    --      1.7071                 2.6558                 1.3654

                      7                      8                      9
                      A                      A                      A
 Frequencies --    211.3505               214.7640               291.7918
 Red. masses --      2.6333                 1.3674                 1.7930
 Frc consts  --      0.0693                 0.0372                 0.0899
 IR Inten    --      1.5358                 0.9544                 0.1061

                     10                     11                     12
                      A                      A                      A
 Frequencies --    325.5793               361.8653               380.1229
 Red. masses --      2.2243                 2.9195                 2.2398
 Frc consts  --      0.1389                 0.2252                 0.1907
 IR Inten    --      3.4676                 2.4044                 1.4417

                     13                     14                     15
                      A                      A                      A
 Frequencies --    419.7472               441.0863               465.2212
 Red. masses --      2.2661                 3.1121                 2.1222
 Frc consts  --      0.2352                 0.3567                 0.2706
 IR Inten    --      2.6931                 5.2174                 0.8186

                     16                     17                     18
                      A                      A                      A
 Frequencies --    524.8618               542.9606               584.3563
 Red. masses --      3.9860                 1.1163                 5.0046
 Frc consts  --      0.6470                 0.1939                 1.0069
 IR Inten    --      6.3407                96.2800                18.0929

                     19                     20                     21
                      A                      A                      A
 Frequencies --    650.7571               678.0512               757.2802
 Red. masses --      3.0870                 3.4504                 2.7201
 Frc consts  --      0.7702                 0.9346                 0.9191
 IR Inten    --     13.3170                 6.8842                 7.5991

                     22                     23                     24
                      A                      A                      A
 Frequencies --    761.3558               827.1373               877.6601
 Red. masses --      7.4938                 3.3023                 2.0827
 Frc consts  --      2.5593                 1.3311                 0.9452
 IR Inten    --     33.2633                 1.0857                 1.5269

                     25                     26                     27
                      A                      A                      A
 Frequencies --    907.1000               924.6551               939.5467
 Red. masses --      2.8573                 1.2756                 1.5147
 Frc consts  --      1.3852                 0.6426                 0.7878
 IR Inten    --     13.7519                 0.8206                 0.1726

                     28                     29                     30
                      A                      A                      A
 Frequencies --    980.2457               996.5370              1002.4994
 Red. masses --      1.3528                 1.8322                 1.9473
 Frc consts  --      0.7659                 1.0720                 1.1531
 IR Inten    --      0.8852                 9.7455                 2.2367

                     31                     32                     33
                      A                      A                      A
 Frequencies --   1025.1905              1054.4497              1069.0874
 Red. masses --      1.4909                 1.3382                 1.3170
 Frc consts  --      0.9232                 0.8767                 0.8869
 IR Inten    --      1.4955                 0.1478                 0.6736

                     34                     35                     36
                      A                      A                      A
 Frequencies --   1101.9244              1127.1588              1163.3813
 Red. masses --      4.2674                 2.0227                 1.9344
 Frc consts  --      3.0529                 1.5141                 1.5425
 IR Inten    --    112.9875                 8.2778                 9.2770

                     37                     38                     39
                      A                      A                      A
 Frequencies --   1167.7194              1208.5589              1215.4415
 Red. masses --      1.9778                 1.6791                 1.2311
 Frc consts  --      1.5890                 1.4450                 1.0716
 IR Inten    --     22.1081               110.4151                 1.9869

                     40                     41                     42
                      A                      A                      A
 Frequencies --   1247.2068              1250.9140              1275.2886
 Red. masses --      2.1953                 3.5531                 1.4493
 Frc consts  --      2.0120                 3.2758                 1.3888
 IR Inten    --     41.4602                 8.3549                11.3481

                     43                     44                     45
                      A                      A                      A
 Frequencies --   1285.8716              1313.1633              1343.4363
 Red. masses --      1.6138                 1.9974                 1.6122
 Frc consts  --      1.5721                 2.0294                 1.7143
 IR Inten    --     89.6215                 1.3224                 1.4170

                     46                     47                     48
                      A                      A                      A
 Frequencies --   1378.1618              1386.4693              1432.4111
 Red. masses --      1.6200                 1.5438                 1.8862
 Frc consts  --      1.8128                 1.7485                 2.2802
 IR Inten    --      1.7742                13.3202                 7.8242

                     49                     50                     51
                      A                      A                      A
 Frequencies --   1440.4535              1455.6738              1494.5347
 Red. masses --      1.3141                 1.3359                 5.8115
 Frc consts  --      1.6064                 1.6678                 7.6481
 IR Inten    --      3.8373                 2.4584               319.2526

                     52                     53                     54
                      A                      A                      A
 Frequencies --   1511.8197              1518.9025              1520.5436
 Red. masses --      1.0717                 1.2533                 1.0912
 Frc consts  --      1.4432                 1.7036                 1.4865
 IR Inten    --      2.6739                10.2647                 2.4894

                     55                     56                     57
                      A                      A                      A
 Frequencies --   1527.4858              1536.2285              1544.8417
 Red. masses --      1.0581                 1.0845                 1.1603
 Frc consts  --      1.4545                 1.5080                 1.6315
 IR Inten    --      8.2706                 7.7957                 1.2104

                     58                     59                     60
                      A                      A                      A
 Frequencies --   1548.4991              1556.9320              1828.4463
 Red. masses --      1.0790                 1.0955                 8.6142
 Frc consts  --      1.5244                 1.5646                16.9680
 IR Inten    --      1.8238                 4.3407               501.3910

                     61                     62                     63
                      A                      A                      A
 Frequencies --   3026.5139              3037.3885              3038.8914
 Red. masses --      1.0737                 1.0689                 1.0404
 Frc consts  --      5.7945                 5.8100                 5.6610
 IR Inten    --     49.7370                10.9758                34.9108

                     64                     65                     66
                      A                      A                      A
 Frequencies --   3044.1790              3053.3952              3094.6688
 Red. masses --      1.0387                 1.0693                 1.1019
 Frc consts  --      5.6711                 5.8736                 6.2177
 IR Inten    --     47.2901                30.3688                 3.3817

                     67                     68                     69
                      A                      A                      A
 Frequencies --   3099.2375              3112.2096              3123.6104
 Red. masses --      1.1013                 1.0960                 1.0993
 Frc consts  --      6.2325                 6.2547                 6.3197
 IR Inten    --     58.8216                26.8632                 8.5059

                     70                     71                     72
                      A                      A                      A
 Frequencies --   3125.1272              3129.3334              3142.1135
 Red. masses --      1.0921                 1.0614                 1.0905
 Frc consts  --      6.2840                 6.1237                 6.3433
 IR Inten    --     37.0859                28.9788                13.8358

                     73                     74                     75
                      A                      A                      A
 Frequencies --   3145.8390              3207.1437              3738.7141
 Red. masses --      1.0929                 1.1173                 1.0646
 Frc consts  --      6.3722                 6.7711                 8.7674
 IR Inten    --     23.1429                12.6243                79.5132

 - Thermochemistry -
 -------------------
 Temperature   298.150 Kelvin.  Pressure   1.00000 Atm.
 Atom     1 has atomic number  6 and mass  12.00000

 Molecular mass:   169.11028 amu.
 Principal axes and moments of inertia in atomic units:
                           1         2         3
     Eigenvalues --  1026.313793110.134193420.70069
           X            0.99991  -0.01066   0.00774
           Y            0.01073   0.99990  -0.00922
           Z           -0.00764   0.00930   0.99993
 This molecule is an asymmetric top.
 Rotational symmetry number  1.
 Warning -- assumption of classical behavior for rotation
           may cause significant error
 Rotational temperatures (Kelvin)      0.08439     0.02785     0.02532
 Rotational constants (GHZ):           1.75847     0.58028     0.52759
 Zero-point vibrational energy     618622.6 (Joules/Mol)
                                  147.85436 (Kcal/Mol)
 Warning -- explicit consideration of  18 degrees of freedom as
           vibrations may cause significant error
 Vibrational temperatures:     42.28   116.32   167.73   198.23   230.52
          (Kelvin)            267.23   304.09   309.00   419.82   468.44
                              520.64   546.91   603.92   634.62   669.35
                              755.16   781.20   840.76   936.29   975.56
                             1089.56  1095.42  1190.07  1262.76  1305.11
                             1330.37  1351.80  1410.35  1433.79  1442.37
                             1475.02  1517.12  1538.18  1585.42  1621.73
                             1673.85  1680.09  1738.85  1748.75  1794.45
                             1799.79  1834.86  1850.08  1889.35  1932.91
                             1982.87  1994.82  2060.92  2072.49  2094.39
                             2150.30  2175.17  2185.36  2187.72  2197.71
                             2210.29  2222.68  2227.94  2240.08  2630.73
                             4354.48  4370.12  4372.29  4379.89  4393.15
                             4452.54  4459.11  4477.78  4494.18  4496.36
                             4502.41  4520.80  4526.16  4614.36  5379.18

 Zero-point correction=                           0.235621 (Hartree/Particle)
 Thermal correction to Energy=                    0.247828
 Thermal correction to Enthalpy=                  0.248772
 Thermal correction to Gibbs Free Energy=         0.197119
 Sum of electronic and zero-point Energies=           -556.998264
 Sum of electronic and thermal Energies=              -556.986057
 Sum of electronic and thermal Enthalpies=            -556.985113
 Sum of electronic and thermal Free Energies=         -557.036766

                     E (Thermal)             CV                S
                      KCal/Mol        Cal/Mol-Kelvin    Cal/Mol-Kelvin
 Total                  155.514             46.452            108.714
 Electronic               0.000              0.000              0.000
 Translational            0.889              2.981             41.284
 Rotational               0.889              2.981             30.769
 Vibrational            153.737             40.490             36.661
 Vibration     1          0.593              1.984              5.870
 Vibration     2          0.600              1.962              3.870
 Vibration     3          0.608              1.936              3.156
 Vibration     4          0.614              1.916              2.835
 Vibration     5          0.622              1.891              2.547
 Vibration     6          0.632              1.859              2.270
 Vibration     7          0.643              1.824              2.032
 Vibration     8          0.645              1.818              2.003
 Vibration     9          0.687              1.689              1.464
 Vibration    10          0.710              1.624              1.282
 Vibration    11          0.736              1.551              1.114
 Vibration    12          0.750              1.513              1.039
 Vibration    13          0.782              1.427              0.893
 Vibration    14          0.801              1.381              0.823
 Vibration    15          0.823              1.327              0.751
 Vibration    16          0.880              1.195              0.599
 Vibration    17          0.898              1.155              0.559
 Vibration    18          0.941              1.065              0.477

 Optimization completed.
    -- Stationary point found.
 Normal termination of Gaussian 16 at Wed Dec  9 17:02:48 2020.

 ----------------------------------------------------------------------
 # B3LYP/6-311++G(d,p) empiricaldispersion=gd3bj scf=xqc pop=npa geom=c
 heck
 ----------------------------------------------------------------------

 ---------------------------------------
 CID_142782907_JID_2119_Energie_neutraal
 ---------------------------------------
 Structure from the checkpoint file:  "JID_2119.chk"
 Charge =  0 Multiplicity = 1

 SCF Done:  E(RB3LYP) =  -557.400072134     A.U. after   14 cycles
 Normal termination of Gaussian 16 at Wed Dec  9 17:05:12 2020.

 ----------------------------------------------------------------------
 # B3LYP/6-311++G(d,p) empiricaldispersion=gd3bj scf=xqc pop=npa geom=c
 heck
 ----------------------------------------------------------------------

 -------------------------------------
 CID_142782907_JID_2119_Energie_kation
 -------------------------------------
 Structure from the checkpoint file:  "JID_2119.chk"
 Charge =  1 Multiplicity = 2

 SCF Done:  E(UB3LYP) =  -557.079924996     A.U. after   24 cycles
 Normal termination of Gaussian 16 at Wed Dec  9 17:11:42 2020.
 Gaussian 16:  ES64L-G16RevA.03 25-Dec-2016

 ----------------------------------------------------------------------
 # B3LYP/6-311++G(d,p) empiricaldispersion=gd3bj scf=xqc pop=npa geom=c
 heck
 ----------------------------------------------------------------------

 ------------------------------------
 CID_142782907_JID_2119_Energie_anion
 ------------------------------------
 Structure from the checkpoint file:  "JID_2119.chk"
 Charge = -1 Multiplicity = 2

                         Standard orientation:
 ---------------------------------------------------------------------
 Center     Atomic      Atomic             Coordinates (Angstroms)
 Number     Number       Type             X           Y           Z
 ---------------------------------------------------------------------
      1          6           0       -2.858777   -0.628618   -1.163483
      2          6           0       -2.122548    0.330196   -0.244310
      3          6           0       -2.318730    0.183484    1.251740
      4          6           0       -0.998027   -0.197115    0.640046
      5          6           0       -0.504198   -1.638819    0.558708
      6          6           0        0.826509   -1.510982   -0.195112
      7          7           0        1.299912   -0.185619    0.214278
      8          6           0        0.271100    0.608326    0.890356
      9          6           0        2.499239    0.354557   -0.092635
     10          8           0        2.868004    1.481561    0.202051
     11          8           0        3.283775   -0.524407   -0.790489
     12          6           0       -2.022240    1.732337   -0.818195
     13          1           0       -3.027663   -1.605665   -0.702219
     14          1           0       -2.305935   -0.786255   -2.098579
     15          1           0       -3.842014   -0.219427   -1.425543
     16          1           0       -2.961263   -0.617180    1.612028
     17          1           0       -2.360916    1.088564    1.854235
     18          1           0       -1.193765   -2.322686    0.061129
     19          1           0       -0.324903   -2.022928    1.571210
     20          1           0        0.675373   -1.548930   -1.282188
     21          1           0        1.551991   -2.284361    0.070951
     22          1           0        0.489378    0.683077    1.965136
     23          1           0        0.257806    1.621797    0.486749
     24          1           0        4.111232   -0.038013   -0.945998
     25          1           0       -1.399234    1.748457   -1.721489
     26          1           0       -3.018508    2.098712   -1.093975
     27          1           0       -1.599162    2.446751   -0.106582
 ---------------------------------------------------------------------

 SCF Done:  E(UB3LYP) =  -557.385699085     A.U. after   30 cycles

 The electronic state is 2-A.
 Alpha  occ. eigenvalues --  -19.06332 -18.99248 -14.24050 -10.21485 -10.10460
 Alpha  occ. eigenvalues --  -10.10372 -10.08774 -10.08750 -10.07229 -10.06877
 Alpha  occ. eigenvalues --  -10.06280 -10.05761  -1.00578  -0.90966  -0.85358
 Alpha  occ. eigenvalues --   -0.77480  -0.67508  -0.64080  -0.61482  -0.58974
 Alpha  occ. eigenvalues --   -0.54262  -0.48977  -0.47568  -0.44699  -0.40897
 Alpha  occ. eigenvalues --   -0.39693  -0.37855  -0.36846  -0.35943  -0.34400
 Alpha  occ. eigenvalues --   -0.33330  -0.32798  -0.31552  -0.30492  -0.29440
 Alpha  occ. eigenvalues --   -0.28459  -0.28273  -0.28024  -0.26524  -0.25117
 Alpha  occ. eigenvalues --   -0.23369  -0.21986  -0.18568  -0.18003  -0.16717
 Alpha  occ. eigenvalues --   -0.14527   0.04527
 Alpha virt. eigenvalues --    0.06521   0.07409   0.07864   0.08683   0.09657
 Alpha virt. eigenvalues --    0.10150   0.10237   0.10785   0.12007   0.12644
 Alpha virt. eigenvalues --    0.13262   0.13552   0.13889   0.14320   0.14553

  Beta  occ. eigenvalues --  -19.06306 -18.99240 -14.24048 -10.21484 -10.10445
  Beta  occ. eigenvalues --  -10.10345 -10.08772 -10.08748 -10.07198 -10.06855
  Beta  occ. eigenvalues --  -10.06251 -10.05715  -1.00544  -0.90937  -0.85341
  Beta  occ. eigenvalues --   -0.77468  -0.67476  -0.64038  -0.61444  -0.58903
  Beta  occ. eigenvalues --   -0.54198  -0.48919  -0.47509  -0.44650  -0.40844
  Beta  occ. eigenvalues --   -0.39665  -0.37834  -0.36812  -0.35898  -0.34369
  Beta  occ. eigenvalues --   -0.33295  -0.32767  -0.31523  -0.30461  -0.29406
  Beta  occ. eigenvalues --   -0.28422  -0.28227  -0.27977  -0.26489  -0.25081
  Beta  occ. eigenvalues --   -0.23339  -0.21964  -0.18536  -0.17978  -0.16685
  Beta  occ. eigenvalues --   -0.14513
  Beta virt. eigenvalues --    0.06792   0.07400   0.08223   0.08630   0.09401
  Beta virt. eigenvalues --    0.10252   0.10643   0.10731   0.11295   0.12471
  Beta virt. eigenvalues --    0.13012   0.13511   0.13965   0.14012   0.14543

 Mulliken charges and spin densities:
               1          2
     1  C    1.865479  -2.494119
     2  C   -2.438499   2.868958
     3  C    1.010742  -1.787356
     4  C    0.433403   0.314260
     5  C    0.171492  -0.515135
     6  C    0.678954  -1.150340
     7  N   -0.191188   0.127589
     8  C   -0.347594  -0.364696
     9  C    0.208441   0.093364
    10  O   -0.371186  -0.005719
    11  O   -0.257514   0.048793
    12  C    0.532507  -1.057221
    13  H   -0.447655   0.592821
    14  H   -0.255387   0.413019
    15  H   -0.140108   0.280178
    16  H   -0.362278   0.533750
    17  H   -0.031438   0.180875
    18  H   -0.226981   0.356990
    19  H   -0.282175   0.470910
    20  H   -0.076175   0.283484
    21  H   -0.272647   0.478690
    22  H   -0.071864   0.271567
    23  H    0.376982  -0.177072
    24  H   -0.109525   0.413846
    25  H   -0.015365   0.176909
    26  H   -0.145649   0.295678
    27  H   -0.234773   0.349979
 Sum of Mulliken charges =  -1.00000   1.00000

 Dipole moment (field-independent basis, Debye):
    X=              1.5608    Y=              2.0122    Z=              1.1669  Tot=              2.8013
 Quadrupole moment (field-independent basis, Debye-Ang):
   XX=           -139.0815   YY=           -117.7785   ZZ=           -108.2242
   XY=             -6.4732   XZ=             -2.9301   YZ=             -1.0624

 Summary of Natural Population Analysis:

                                       Natural Population
                Natural  -----------------------------------------------
    Atom  No    Charge         Core      Valence    Rydberg      Total
 -----------------------------------------------------------------------
      C    1   -0.28236      0.99962     2.27617    0.00657     3.28236
      C    2   -0.03686      0.99953     2.02435    0.01298     3.03686
      C    3   -0.18871      0.99954     2.17940    0.00977     3.18871
      C    4   -0.04465      0.99951     2.03102    0.01412     3.04465
      C    5   -0.18949      0.99959     2.18076    0.00915     3.18949
      C    6   -0.07547      0.99962     2.06565    0.01020     3.07547
      N    7   -0.26000      0.99963     2.75017    0.01019     3.76000
      C    8   -0.07233      0.99957     2.06341    0.00935     3.07233
      C    9    0.46003      0.99966     1.51608    0.02423     2.53997
      O   10   -0.34359      0.99987     3.33784    0.00588     4.34359
      O   11   -0.35325      0.99988     3.34738    0.00599     4.35325
      C   12   -0.28079      0.99962     2.27590    0.00528     3.28079
      H   13    0.10265      0.00000     0.39547    0.00188     0.39735
      H   14    0.10190      0.00000     0.39653    0.00156     0.39810
      H   15    0.10082      0.00000     0.39797    0.00122     0.39918
      H   16    0.10491      0.00000     0.39369    0.00140     0.39509
      H   17    0.10160      0.00000     0.39724    0.00116     0.39840
      H   18    0.11097      0.00000     0.38713    0.00190     0.38903
      H   19    0.09970      0.00000     0.39873    0.00156     0.40030
      H   20    0.09577      0.00000     0.40242    0.00180     0.40423
      H   21    0.10259      0.00000     0.39584    0.00157     0.39741
      H   22    0.09458      0.00000     0.40417    0.00126     0.40542
      H   23    0.10836      0.00000     0.39022    0.00142     0.39164
      H   24    0.24150      0.00000     0.25395    0.00455     0.25850
      H   25    0.10186      0.00000     0.39697    0.00118     0.39814
      H   26    0.10094      0.00000     0.39800    0.00105     0.39906
      H   27    0.09932      0.00000     0.39953    0.00115     0.40068
 =======================================================================
   * Total *   -0.00000     11.99565    33.85600    0.14836    46.00000

 Normal termination of Gaussian 16 at Wed Dec  9 17:18:46 2020.
