 Gaussian 16, Revision A.03,

 -----------------------------------------------------------
 # opt freq B3LYP/6-31G(d) empiricaldispersion=gd3bj scf=xqc
 -----------------------------------------------------------

 -----------------------------
 CID_11389410_JID_419_neutraal
 -----------------------------
 Symbolic Z-matrix:
 Charge =  0 Multiplicity = 1

 SCF Done:  E(RB3LYP) =  -471.060854083     A.U. after   15 cycles
 SCF Done:  E(RB3LYP) =  -471.069994064     A.U. after   13 cycles
 SCF Done:  E(RB3LYP) =  -471.071150981     A.U. after   12 cycles
 SCF Done:  E(RB3LYP) =  -471.071310658     A.U. after   12 cycles
 SCF Done:  E(RB3LYP) =  -471.071340373     A.U. after   10 cycles
 SCF Done:  E(RB3LYP) =  -471.071342512     A.U. after    9 cycles
 SCF Done:  E(RB3LYP) =  -471.071346858     A.U. after    9 cycles
 SCF Done:  E(RB3LYP) =  -471.071347032     A.U. after    8 cycles
 Optimization completed.
    -- Stationary point found.
 Normal termination of Gaussian 16 at Tue Dec  8 10:30:58 2020.

 --------------------------------------------------------------------
 #N Geom=AllCheck Guess=TCheck SCRF=Check GenChk RB3LYP/6-31G(d) Freq
 --------------------------------------------------------------------

 Structure from the checkpoint file:  "JID_419.chk"
 -----------------------------
 CID_11389410_JID_419_neutraal
 -----------------------------
 Charge =  0 Multiplicity = 1

 SCF Done:  E(RB3LYP) =  -471.071347032     A.U. after    1 cycles

  Exact polarizability: 128.258  -3.054  83.599  -1.407  -0.377  33.045
 Approx polarizability: 235.198  -0.532 154.667  -0.395   0.015  52.305

                      1                      2                      3
                      A                      A                      A
 Frequencies --    142.0128               241.5693               292.9655
 Red. masses --      6.2548                 2.7040                 2.3128
 Frc consts  --      0.0743                 0.0930                 0.1170
 IR Inten    --      2.7379                21.4367                35.6559

                      4                      5                      6
                      A                      A                      A
 Frequencies --    304.8156               350.0239               418.6675
 Red. masses --      2.1576                 8.1304                 2.5887
 Frc consts  --      0.1181                 0.5869                 0.2673
 IR Inten    --     41.6012                 0.2636                12.6377

                      7                      8                      9
                      A                      A                      A
 Frequencies --    455.0754               506.6956               563.5941
 Red. masses --      7.1655                 6.9376                 4.6288
 Frc consts  --      0.8743                 1.0494                 0.8663
 IR Inten    --      5.0801                 4.7075                 4.1499

                     10                     11                     12
                      A                      A                      A
 Frequencies --    641.1780               643.2215               736.3850
 Red. masses --      5.7759                 3.5713                 1.9534
 Frc consts  --      1.3990                 0.8706                 0.6241
 IR Inten    --      1.1796                11.3204                10.8681

                     13                     14                     15
                      A                      A                      A
 Frequencies --    760.7531               809.5292               839.3100
 Red. masses --      7.5588                 2.6761                 4.0348
 Frc consts  --      2.5775                 1.0333                 1.6746
 IR Inten    --     17.7853                14.6266                 9.0015

                     16                     17                     18
                      A                      A                      A
 Frequencies --    868.6984               931.5240               943.6056
 Red. masses --      1.4540                 1.2781                 8.9502
 Frc consts  --      0.6465                 0.6534                 4.6953
 IR Inten    --     34.8619                 0.5334                 2.1362

                     19                     20                     21
                      A                      A                      A
 Frequencies --    949.1164               993.8707              1137.5880
 Red. masses --      1.4449                 3.5023                 3.0654
 Frc consts  --      0.7669                 2.0383                 2.3373
 IR Inten    --      5.3916                14.6344                12.0504

                     22                     23                     24
                      A                      A                      A
 Frequencies --   1153.1632              1186.7280              1240.4151
 Red. masses --      1.7151                 2.2837                 2.4179
 Frc consts  --      1.3438                 1.8949                 2.1919
 IR Inten    --     27.3305                49.5023                 5.5502

                     25                     26                     27
                      A                      A                      A
 Frequencies --   1276.3403              1305.9900              1372.3992
 Red. masses --      2.6925                 2.2040                 2.9766
 Frc consts  --      2.5842                 2.2148                 3.3032
 IR Inten    --      8.3186                 2.6324                87.1617

                     28                     29                     30
                      A                      A                      A
 Frequencies --   1386.9472              1435.6606              1450.1382
 Red. masses --      2.6870                 1.7890                 1.8857
 Frc consts  --      3.0454                 2.1725                 2.3364
 IR Inten    --     90.9125                50.3865                31.9551

                     31                     32                     33
                      A                      A                      A
 Frequencies --   1490.8898              1558.5352              1615.2233
 Red. masses --      4.7340                 4.8175                 7.1117
 Frc consts  --      6.1997                 6.8945                10.9318
 IR Inten    --      8.7129                 7.2750                15.4938

                     34                     35                     36
                      A                      A                      A
 Frequencies --   1659.8200              3232.2090              3234.1517
 Red. masses --      6.3637                 1.0911                 1.0942
 Frc consts  --     10.3295                 6.7163                 6.7435
 IR Inten    --     48.1670                 3.1477                25.1394

                     37                     38                     39
                      A                      A                      A
 Frequencies --   3262.5245              3271.8949              3661.0332
 Red. masses --      1.0938                 1.0949                 1.0682
 Frc consts  --      6.8595                 6.9062                 8.4353
 IR Inten    --      0.7485                 0.5183                44.8484

 - Thermochemistry -
 -------------------
 Temperature   298.150 Kelvin.  Pressure   1.00000 Atm.
 Atom     1 has atomic number  6 and mass  12.00000

 Molecular mass:   135.04326 amu.
 Principal axes and moments of inertia in atomic units:
                           1         2         3
     Eigenvalues --   502.412391645.015562141.53119
           X            0.99997  -0.00561  -0.00562
           Y            0.00559   0.99998  -0.00419
           Z            0.00564   0.00416   0.99998
 This molecule is an asymmetric top.
 Rotational symmetry number  1.
 Warning -- assumption of classical behavior for rotation
           may cause significant error
 Rotational temperatures (Kelvin)      0.17240     0.05265     0.04044
 Rotational constants (GHZ):           3.59215     1.09710     0.84273
 Zero-point vibrational energy     289043.3 (Joules/Mol)
                                   69.08300 (Kcal/Mol)
 Warning -- explicit consideration of   9 degrees of freedom as
           vibrations may cause significant error
 Vibrational temperatures:    204.32   347.56   421.51   438.56   503.61
          (Kelvin)            602.37   654.75   729.02   810.89   922.51
                              925.45  1059.49  1094.55  1164.73  1207.58
                             1249.86  1340.26  1357.64  1365.57  1429.96
                             1636.74  1659.14  1707.44  1784.68  1836.37
                             1879.03  1974.58  1995.51  2065.60  2086.43
                             2145.06  2242.38  2323.95  2388.11  4650.43
                             4653.22  4694.05  4707.53  5267.41

 Zero-point correction=                           0.110091 (Hartree/Particle)
 Thermal correction to Energy=                    0.117221
 Thermal correction to Enthalpy=                  0.118165
 Thermal correction to Gibbs Free Energy=         0.078448
 Sum of electronic and zero-point Energies=           -470.961256
 Sum of electronic and thermal Energies=              -470.954126
 Sum of electronic and thermal Enthalpies=            -470.953182
 Sum of electronic and thermal Free Energies=         -470.992899

                     E (Thermal)             CV                S
                      KCal/Mol        Cal/Mol-Kelvin    Cal/Mol-Kelvin
 Total                   73.557             28.382             83.593
 Electronic               0.000              0.000              0.000
 Translational            0.889              2.981             40.614
 Rotational               0.889              2.981             28.961
 Vibrational             71.780             22.421             14.018
 Vibration     1          0.615              1.911              2.777
 Vibration     2          0.658              1.777              1.791
 Vibration     3          0.688              1.687              1.457
 Vibration     4          0.696              1.665              1.390
 Vibration     5          0.727              1.575              1.166
 Vibration     6          0.782              1.430              0.897
 Vibration     7          0.813              1.350              0.781
 Vibration     8          0.862              1.235              0.642
 Vibration     9          0.919              1.110              0.517

                           ! Non-Optimized Parameters !
 Normal termination of Gaussian 16 at Tue Dec  8 10:33:08 2020.

 ----------------------------------------------------------------------
 # B3LYP/6-311++G(d,p) empiricaldispersion=gd3bj scf=xqc pop=npa geom=c
 heck
 ----------------------------------------------------------------------

 -------------------------------------
 CID_11389410_JID_419_Energie_neutraal
 -------------------------------------
 Structure from the checkpoint file:  "JID_419.chk"
 Charge =  0 Multiplicity = 1

 SCF Done:  E(RB3LYP) =  -471.204308546     A.U. after   15 cycles
 Normal termination of Gaussian 16 at Tue Dec  8 10:34:14 2020.

 ----------------------------------------------------------------------
 # B3LYP/6-311++G(d,p) empiricaldispersion=gd3bj scf=xqc pop=npa geom=c
 heck
 ----------------------------------------------------------------------

 -----------------------------------
 CID_11389410_JID_419_Energie_kation
 -----------------------------------
 Structure from the checkpoint file:  "JID_419.chk"
 Charge =  1 Multiplicity = 2

 SCF Done:  E(UB3LYP) =  -470.886074270     A.U. after   30 cycles
 Normal termination of Gaussian 16 at Tue Dec  8 10:38:56 2020.
 Gaussian 16:  ES64L-G16RevA.03 25-Dec-2016

 ----------------------------------------------------------------------
 # B3LYP/6-311++G(d,p) empiricaldispersion=gd3bj scf=xqc pop=npa geom=c
 heck
 ----------------------------------------------------------------------

 ----------------------------------
 CID_11389410_JID_419_Energie_anion
 ----------------------------------
 Structure from the checkpoint file:  "JID_419.chk"
 Charge = -1 Multiplicity = 2

                         Standard orientation:
 ---------------------------------------------------------------------
 Center     Atomic      Atomic             Coordinates (Angstroms)
 Number     Number       Type             X           Y           Z
 ---------------------------------------------------------------------
      1          6           0       -0.178047    1.665411   -0.003136
      2          6           0       -1.462478    1.174767   -0.013811
      3          7           0       -1.680689   -0.176906   -0.008582
      4          6           0       -0.708084   -1.126078   -0.022682
      5          6           0        0.595351   -0.687149   -0.007185
      6          6           0        0.886227    0.742985    0.006203
      7          7           0        2.216541    0.909590    0.017396
      8          6           0        2.671154   -0.381320    0.010551
      9          7           0        1.773856   -1.377048   -0.004658
     10          8           0       -3.005499   -0.607593   -0.078179
     11          1           0       -0.008056    2.736057   -0.006326
     12          1           0       -2.359466    1.777741   -0.035262
     13          1           0       -1.037391   -2.156513   -0.049275
     14          1           0        3.736245   -0.588413    0.017275
     15          1           0       -3.280036   -0.729279    0.850297
 ---------------------------------------------------------------------

 SCF Done:  E(UB3LYP) =  -471.216735149     A.U. after   30 cycles

 The electronic state is 2-A.
 Alpha  occ. eigenvalues --  -19.06151 -14.29544 -14.14549 -14.14532 -10.09494
 Alpha  occ. eigenvalues --  -10.07649 -10.06718 -10.05742 -10.05647 -10.05301
 Alpha  occ. eigenvalues --   -0.99744  -0.84477  -0.79940  -0.70724  -0.65359
 Alpha  occ. eigenvalues --   -0.63222  -0.52169  -0.50330  -0.46046  -0.42702
 Alpha  occ. eigenvalues --   -0.38987  -0.36593  -0.36354  -0.33306  -0.29790
 Alpha  occ. eigenvalues --   -0.29092  -0.28223  -0.25101  -0.23980  -0.21530
 Alpha  occ. eigenvalues --   -0.17808  -0.14471  -0.12251  -0.11099  -0.09873
 Alpha  occ. eigenvalues --    0.04035
 Alpha virt. eigenvalues --    0.07646   0.09495   0.10621   0.11212   0.11685
 Alpha virt. eigenvalues --    0.12600   0.15343   0.15927   0.16961   0.17414
 Alpha virt. eigenvalues --    0.17961   0.18506   0.18858   0.19670   0.20037

  Beta  occ. eigenvalues --  -19.06093 -14.29215 -14.14569 -14.14483 -10.09468
  Beta  occ. eigenvalues --  -10.07280 -10.06622 -10.05770 -10.05708 -10.05101
  Beta  occ. eigenvalues --   -0.99385  -0.84309  -0.79578  -0.70584  -0.65126
  Beta  occ. eigenvalues --   -0.62844  -0.51975  -0.49929  -0.45749  -0.42421
  Beta  occ. eigenvalues --   -0.38778  -0.36390  -0.35927  -0.33164  -0.29598
  Beta  occ. eigenvalues --   -0.28738  -0.27955  -0.24998  -0.23246  -0.21437
  Beta  occ. eigenvalues --   -0.17049  -0.14394  -0.12222  -0.10222  -0.09095
  Beta virt. eigenvalues --    0.08600   0.09488   0.10136   0.10607   0.11399
  Beta virt. eigenvalues --    0.11767   0.12937   0.15517   0.16156   0.16962
  Beta virt. eigenvalues --    0.17532   0.18326   0.18736   0.19177   0.19761

 Mulliken charges and spin densities:
               1          2
     1  C    0.027617   0.176172
     2  C   -0.270490  -0.124343
     3  N    0.062363  -0.156927
     4  C   -0.773918   1.067153
     5  C    0.367772  -0.768921
     6  C   -0.018884  -0.200809
     7  N   -0.230677  -0.013237
     8  C    0.158093   0.030308
     9  N   -0.233968   0.021644
    10  O    0.010803  -0.049289
    11  H    0.140470   0.011108
    12  H    0.011544   0.148566
    13  H    0.070475   0.089440
    14  H    0.134064  -0.007908
    15  H   -0.455263   0.777042
 Sum of Mulliken charges =  -1.00000   1.00000

 Dipole moment (field-independent basis, Debye):
    X=              0.4941    Y=              2.2259    Z=             -2.2234  Tot=              3.1847
 Quadrupole moment (field-independent basis, Debye-Ang):
   XX=           -102.8869   YY=            -73.9258   ZZ=            -72.1705
   XY=             -6.4826   XZ=              7.4641   YZ=              1.7095

 Summary of Natural Population Analysis:

                                       Natural Population
                Natural  -----------------------------------------------
    Atom  No    Charge         Core      Valence    Rydberg      Total
 -----------------------------------------------------------------------
      C    1   -0.13195      0.99952     2.12310    0.00933     3.13195
      C    2    0.00113      0.99956     1.98636    0.01294     2.99887
      N    3    0.00548      0.99956     2.48293    0.01203     3.49452
      C    4    0.09297      0.99949     1.89411    0.01342     2.90703
      C    5    0.02290      0.99949     1.96262    0.01499     2.97710
      C    6    0.09955      0.99951     1.88511    0.01583     2.90045
      N    7   -0.29734      0.99971     2.78655    0.01107     3.79734
      C    8    0.12843      0.99969     1.85300    0.01888     2.87157
      N    9   -0.27698      0.99971     2.76598    0.01128     3.77698
      O   10   -0.27645      0.99990     3.26888    0.00767     4.27645
      H   11    0.10362      0.00000     0.39540    0.00098     0.39638
      H   12    0.10348      0.00000     0.39556    0.00096     0.39652
      H   13    0.10287      0.00000     0.39564    0.00149     0.39713
      H   14    0.07421      0.00000     0.42485    0.00093     0.42579
      H   15    0.24807      0.00000     0.20623    0.04570     0.25193
 =======================================================================
   * Total *   -0.00000      9.99616    24.82632    0.17752    35.00000

 Normal termination of Gaussian 16 at Tue Dec  8 10:42:23 2020.
