 Gaussian 16, Revision A.03,

 -----------------------------------------------------------
 # opt freq B3LYP/6-31G(d) empiricaldispersion=gd3bj scf=xqc
 -----------------------------------------------------------

 -------------------------------
 CID_104092647_JID_4726_neutraal
 -------------------------------
 Symbolic Z-matrix:
 Charge =  0 Multiplicity = 1

 SCF Done:  E(RB3LYP) =  -666.657195115     A.U. after   15 cycles
 SCF Done:  E(RB3LYP) =  -666.669342261     A.U. after   14 cycles
 SCF Done:  E(RB3LYP) =  -666.661528193     A.U. after   15 cycles
 SCF Done:  E(RB3LYP) =  -666.674791440     A.U. after   13 cycles
 SCF Done:  E(RB3LYP) =  -666.678582013     A.U. after   13 cycles
 SCF Done:  E(RB3LYP) =  -666.678812840     A.U. after   14 cycles
 SCF Done:  E(RB3LYP) =  -666.680225788     A.U. after   14 cycles
 SCF Done:  E(RB3LYP) =  -666.681138102     A.U. after   12 cycles
 SCF Done:  E(RB3LYP) =  -666.680404440     A.U. after   13 cycles
 SCF Done:  E(RB3LYP) =  -666.681737803     A.U. after   12 cycles
 SCF Done:  E(RB3LYP) =  -666.684799968     A.U. after    8 cycles
 SCF Done:  E(RB3LYP) =  -666.684800486     A.U. after    8 cycles
 SCF Done:  E(RB3LYP) =  -666.684800784     A.U. after    8 cycles
 SCF Done:  E(RB3LYP) =  -666.684800870     A.U. after    8 cycles
 SCF Done:  E(RB3LYP) =  -666.684800985     A.U. after    8 cycles
 SCF Done:  E(RB3LYP) =  -666.684801033     A.U. after    8 cycles
 Optimization completed.
    -- Stationary point found.
 Normal termination of Gaussian 16 at Thu Dec 10 10:44:05 2020.

 --------------------------------------------------------------------
 #N Geom=AllCheck Guess=TCheck SCRF=Check GenChk RB3LYP/6-31G(d) Freq
 --------------------------------------------------------------------

 Structure from the checkpoint file:  "JID_4726.chk"
 -------------------------------
 CID_104092647_JID_4726_neutraal
 -------------------------------
 Charge =  0 Multiplicity = 1

 SCF Done:  E(RB3LYP) =  -666.684801033     A.U. after    1 cycles

  Exact polarizability: 126.192  10.441  92.067   5.587  -3.096 117.354
 Approx polarizability: 163.583  21.079 131.941   7.246  -9.936 191.875

                      1                      2                      3
                      A                      A                      A
 Frequencies --     27.3050                34.1038                37.6195
 Red. masses --      5.1317                 4.7314                 5.0586
 Frc consts  --      0.0023                 0.0032                 0.0042
 IR Inten    --      0.5371                 1.4110                 0.1238

                      4                      5                      6
                      A                      A                      A
 Frequencies --     71.1377                88.2103               113.8223
 Red. masses --      7.1992                 4.1998                 4.9161
 Frc consts  --      0.0215                 0.0193                 0.0375
 IR Inten    --      2.0342                 0.5987                 5.6823

                      7                      8                      9
                      A                      A                      A
 Frequencies --    144.8799               155.5629               195.1533
 Red. masses --      4.6004                 3.3355                 1.2468
 Frc consts  --      0.0569                 0.0476                 0.0280
 IR Inten    --      2.2889                 7.9458               211.8361

                     10                     11                     12
                      A                      A                      A
 Frequencies --    197.4232               202.2826               266.2230
 Red. masses --      3.3302                 3.9242                 3.5044
 Frc consts  --      0.0765                 0.0946                 0.1463
 IR Inten    --      3.2706                 1.7333                 9.3891

                     13                     14                     15
                      A                      A                      A
 Frequencies --    294.0701               310.7666               346.7005
 Red. masses --      3.4275                 2.7753                 4.0884
 Frc consts  --      0.1746                 0.1579                 0.2895
 IR Inten    --      8.4848                 5.7368                 2.1333

                     16                     17                     18
                      A                      A                      A
 Frequencies --    363.8709               412.9859               456.9740
 Red. masses --      2.9775                 2.0684                 1.3990
 Frc consts  --      0.2323                 0.2079                 0.1721
 IR Inten    --      5.7618                 2.6707                80.1916

                     19                     20                     21
                      A                      A                      A
 Frequencies --    478.2961               496.5403               523.5409
 Red. masses --      1.5653                 1.7959                 3.1636
 Frc consts  --      0.2110                 0.2609                 0.5109
 IR Inten    --     47.4034                51.3336                 9.5394

                     22                     23                     24
                      A                      A                      A
 Frequencies --    543.7016               556.3520               586.9239
 Red. masses --      3.0487                 2.7978                 1.1986
 Frc consts  --      0.5310                 0.5102                 0.2433
 IR Inten    --     31.4228                34.0089                39.7165

                     25                     26                     27
                      A                      A                      A
 Frequencies --    606.7554               610.3693               645.3167
 Red. masses --      2.4127                 1.2458                 1.8459
 Frc consts  --      0.5233                 0.2735                 0.4529
 IR Inten    --     58.2937                32.5897                11.4140

                     28                     29                     30
                      A                      A                      A
 Frequencies --    678.1644               777.2563               788.7973
 Red. masses --      2.6979                 1.7226                 1.3615
 Frc consts  --      0.7311                 0.6132                 0.4991
 IR Inten    --      9.8763                 7.1884                10.4437

                     31                     32                     33
                      A                      A                      A
 Frequencies --    816.4454               841.7953               859.3080
 Red. masses --      2.7423                 3.3283                 3.8415
 Frc consts  --      1.0770                 1.3896                 1.6713
 IR Inten    --      1.9447                 4.3587                 2.0246

                     34                     35                     36
                      A                      A                      A
 Frequencies --    906.2384               937.8952               985.3078
 Red. masses --      2.0709                 2.2086                 2.3179
 Frc consts  --      1.0021                 1.1446                 1.3259
 IR Inten    --      5.2479                 1.5108                 9.8663

                     37                     38                     39
                      A                      A                      A
 Frequencies --   1003.8522              1039.9083              1075.2003
 Red. masses --      2.5139                 2.0664                 2.0062
 Frc consts  --      1.4926                 1.3166                 1.3664
 IR Inten    --     22.4775                 4.3985                11.8870

                     40                     41                     42
                      A                      A                      A
 Frequencies --   1094.7137              1103.3295              1142.1529
 Red. masses --      3.1120                 1.9339                 1.7311
 Frc consts  --      2.1973                 1.3870                 1.3305
 IR Inten    --      1.8764                 0.3099                 1.6673

                     43                     44                     45
                      A                      A                      A
 Frequencies --   1198.8548              1214.0083              1249.2516
 Red. masses --      1.8354                 1.5471                 1.2413
 Frc consts  --      1.5543                 1.3434                 1.1414
 IR Inten    --     32.3652                59.3796                 6.6341

                     46                     47                     48
                      A                      A                      A
 Frequencies --   1253.1446              1320.7293              1331.3280
 Red. masses --      1.1854                 1.3004                 1.8659
 Frc consts  --      1.0968                 1.3365                 1.9485
 IR Inten    --      2.8135                22.5182               146.9873

                     49                     50                     51
                      A                      A                      A
 Frequencies --   1364.2084              1379.2598              1387.6954
 Red. masses --      1.5865                 1.4855                 1.3663
 Frc consts  --      1.7397                 1.6650                 1.5502
 IR Inten    --     51.2110                12.3956                17.4781

                     52                     53                     54
                      A                      A                      A
 Frequencies --   1397.7134              1401.9619              1415.4972
 Red. masses --      1.7806                 1.3451                 1.7249
 Frc consts  --      2.0495                 1.5576                 2.0362
 IR Inten    --     36.7836                 7.1966                25.2904

                     55                     56                     57
                      A                      A                      A
 Frequencies --   1433.1986              1459.0895              1475.7072
 Red. masses --      1.8873                 1.6292                 1.1086
 Frc consts  --      2.2841                 2.0435                 1.4223
 IR Inten    --      5.5692                26.0114                 1.3029

                     58                     59                     60
                      A                      A                      A
 Frequencies --   1498.9983              1510.5708              1524.4860
 Red. masses --      1.1007                 1.0856                 1.0825
 Frc consts  --      1.4572                 1.4595                 1.4822
 IR Inten    --     14.2654                 6.0537                11.3189

                     61                     62                     63
                      A                      A                      A
 Frequencies --   1544.2973              1645.8580              1675.2458
 Red. masses --      1.0915                 1.2672                 1.2807
 Frc consts  --      1.5337                 2.0224                 2.1176
 IR Inten    --     13.2606                98.4279                84.0401

                     64                     65                     66
                      A                      A                      A
 Frequencies --   1783.7439              1794.5873              2239.8695
 Red. masses --      7.5903                 8.3935                 5.9906
 Frc consts  --     14.2291                15.9265                17.7079
 IR Inten    --    494.8420               134.5796                 2.2977

                     67                     68                     69
                      A                      A                      A
 Frequencies --   2960.1559              3021.9664              3042.4191
 Red. masses --      1.0720                 1.0622                 1.0691
 Frc consts  --      5.5344                 5.7153                 5.8302
 IR Inten    --     86.7580                29.6154                 9.4151

                     70                     71                     72
                      A                      A                      A
 Frequencies --   3049.5642              3050.8540              3065.3603
 Red. masses --      1.0685                 1.0706                 1.0828
 Frc consts  --      5.8547                 5.8714                 5.9946
 IR Inten    --      9.5420                41.4977                54.9159

                     73                     74                     75
                      A                      A                      A
 Frequencies --   3075.1538              3092.6638              3093.0654
 Red. masses --      1.0893                 1.1016                 1.1009
 Frc consts  --      6.0690                 6.2079                 6.2054
 IR Inten    --      8.6522                41.4339                15.5628

                     76                     77                     78
                      A                      A                      A
 Frequencies --   3108.3814              3434.9745              3497.7117
 Red. masses --      1.0958                 1.0619                 1.1594
 Frc consts  --      6.2382                 7.3821                 8.3573
 IR Inten    --      5.5476               506.1813                50.4870

                     79                     80                     81
                      A                      A                      A
 Frequencies --   3594.1417              3667.4831              3718.3870
 Red. masses --      1.0450                 1.0916                 1.1052
 Frc consts  --      7.9533                 8.6510                 9.0035
 IR Inten    --     42.6759                90.0457                37.2089

 - Thermochemistry -
 -------------------
 Temperature   298.150 Kelvin.  Pressure   1.00000 Atm.
 Atom     1 has atomic number  6 and mass  12.00000

 Molecular mass:   197.11643 amu.
 Principal axes and moments of inertia in atomic units:
                           1         2         3
     Eigenvalues --  1955.316644017.976344428.00048
           X            0.99998  -0.00591   0.00321
           Y            0.00582   0.99964   0.02622
           Z           -0.00336  -0.02620   0.99965
 This molecule is an asymmetric top.
 Rotational symmetry number  1.
 Warning -- assumption of classical behavior for rotation
           may cause significant error
 Rotational temperatures (Kelvin)      0.04430     0.02156     0.01956
 Rotational constants (GHZ):           0.92299     0.44917     0.40757
 Zero-point vibrational energy     638739.1 (Joules/Mol)
                                  152.66231 (Kcal/Mol)
 Warning -- explicit consideration of  26 degrees of freedom as
           vibrations may cause significant error
 Vibrational temperatures:     39.29    49.07    54.13   102.35   126.91
          (Kelvin)            163.76   208.45   223.82   280.78   284.05
                              291.04   383.04   423.10   447.12   498.82
                              523.53   594.19   657.48   688.16   714.41
                              753.26   782.27   800.47   844.45   872.99
                              878.19   928.47   975.73  1118.30  1134.90
                             1174.68  1211.16  1236.35  1303.87  1349.42
                             1417.64  1444.32  1496.20  1546.97  1575.05
                             1587.45  1643.30  1724.88  1746.69  1797.39
                             1803.00  1900.23  1915.48  1962.79  1984.45
                             1996.58  2011.00  2017.11  2036.58  2062.05
                             2099.30  2123.21  2156.72  2173.37  2193.40
                             2221.90  2368.02  2410.31  2566.41  2582.01
                             3222.67  4259.00  4347.94  4377.36  4387.64
                             4389.50  4410.37  4424.46  4449.65  4450.23
                             4472.27  4942.16  5032.43  5171.17  5276.69
                             5349.93

 Zero-point correction=                           0.243283 (Hartree/Particle)
 Thermal correction to Energy=                    0.259163
 Thermal correction to Enthalpy=                  0.260108
 Thermal correction to Gibbs Free Energy=         0.198747
 Sum of electronic and zero-point Energies=           -666.441518
 Sum of electronic and thermal Energies=              -666.425638
 Sum of electronic and thermal Enthalpies=            -666.424693
 Sum of electronic and thermal Free Energies=         -666.486054

                     E (Thermal)             CV                S
                      KCal/Mol        Cal/Mol-Kelvin    Cal/Mol-Kelvin
 Total                  162.627             57.664            129.144
 Electronic               0.000              0.000              0.000
 Translational            0.889              2.981             41.741
 Rotational               0.889              2.981             31.920
 Vibrational            160.850             51.702             55.483
 Vibration     1          0.593              1.984              6.016
 Vibration     2          0.594              1.983              5.575
 Vibration     3          0.594              1.982              5.381
 Vibration     4          0.598              1.968              4.122
 Vibration     5          0.601              1.957              3.699
 Vibration     6          0.607              1.938              3.203
 Vibration     7          0.616              1.908              2.738
 Vibration     8          0.620              1.896              2.603
 Vibration     9          0.636              1.847              2.178
 Vibration    10          0.637              1.843              2.157
 Vibration    11          0.639              1.837              2.112
 Vibration    12          0.672              1.735              1.621
 Vibration    13          0.689              1.685              1.450
 Vibration    14          0.700              1.653              1.358
 Vibration    15          0.725              1.582              1.181
 Vibration    16          0.737              1.547              1.106
 Vibration    17          0.777              1.442              0.916
 Vibration    18          0.815              1.345              0.775
 Vibration    19          0.835              1.298              0.715
 Vibration    20          0.852              1.258              0.667
 Vibration    21          0.879              1.198              0.602
 Vibration    22          0.899              1.153              0.557
 Vibration    23          0.912              1.126              0.531
 Vibration    24          0.944              1.060              0.473
 Vibration    25          0.965              1.017              0.438
 Vibration    26          0.969              1.010              0.432

                           ! Non-Optimized Parameters !
 Normal termination of Gaussian 16 at Thu Dec 10 10:53:20 2020.

 ----------------------------------------------------------------------
 # B3LYP/6-311++G(d,p) empiricaldispersion=gd3bj scf=xqc pop=npa geom=c
 heck
 ----------------------------------------------------------------------

 ---------------------------------------
 CID_104092647_JID_4726_Energie_neutraal
 ---------------------------------------
 Structure from the checkpoint file:  "JID_4726.chk"
 Charge =  0 Multiplicity = 1

 SCF Done:  E(RB3LYP) =  -666.898782381     A.U. after   15 cycles
 Normal termination of Gaussian 16 at Thu Dec 10 10:57:41 2020.

 ----------------------------------------------------------------------
 # B3LYP/6-311++G(d,p) empiricaldispersion=gd3bj scf=xqc pop=npa geom=c
 heck
 ----------------------------------------------------------------------

 -------------------------------------
 CID_104092647_JID_4726_Energie_kation
 -------------------------------------
 Structure from the checkpoint file:  "JID_4726.chk"
 Charge =  1 Multiplicity = 2

 SCF Done:  E(UB3LYP) =  -666.618625100     A.U. after   23 cycles
 Normal termination of Gaussian 16 at Thu Dec 10 11:07:04 2020.
 Gaussian 16:  ES64L-G16RevA.03 25-Dec-2016

 ----------------------------------------------------------------------
 # B3LYP/6-311++G(d,p) empiricaldispersion=gd3bj scf=xqc pop=npa geom=c
 heck
 ----------------------------------------------------------------------

 ------------------------------------
 CID_104092647_JID_4726_Energie_anion
 ------------------------------------
 Structure from the checkpoint file:  "JID_4726.chk"
 Charge = -1 Multiplicity = 2

                         Standard orientation:
 ---------------------------------------------------------------------
 Center     Atomic      Atomic             Coordinates (Angstroms)
 Number     Number       Type             X           Y           Z
 ---------------------------------------------------------------------
      1          6           0        3.057082   -1.406066    1.888075
      2          6           0        2.887103   -1.121291    0.726751
      3          6           0        2.645987   -0.798231   -0.679158
      4          6           0        1.389610   -1.507913   -1.239920
      5          6           0        0.067190   -1.212752   -0.511087
      6          7           0       -0.660486   -0.050913   -1.012797
      7          6           0       -2.087292   -0.121512   -0.974412
      8          6           0       -2.724365   -0.279343    0.422320
      9          8           0       -2.167647    0.052252    1.465245
     10          7           0       -3.976637   -0.806726    0.416486
     11          6           0        0.024816    1.208403   -1.200884
     12          6           0        0.754602    1.847823   -0.000796
     13          8           0        1.759852    2.527243   -0.197122
     14          7           0        0.210043    1.624771    1.213021
     15          1           0        3.221142   -1.643325    2.914048
     16          1           0        2.580863    0.289521   -0.787943
     17          1           0        3.513060   -1.112225   -1.275620
     18          1           0        1.282318   -1.267414   -2.304285
     19          1           0        1.569491   -2.587197   -1.174391
     20          1           0       -0.598287   -2.073031   -0.656057
     21          1           0        0.259308   -1.148809    0.570110
     22          1           0       -2.506371    0.791898   -1.414346
     23          1           0       -2.449447   -0.957954   -1.598539
     24          1           0       -4.420933   -1.134492   -0.427579
     25          1           0       -4.463637   -0.915761    1.294988
     26          1           0        0.789906    1.127086   -1.982211
     27          1           0       -0.700629    1.944522   -1.566294
     28          1           0       -0.607472    1.027682    1.344291
     29          1           0        0.694221    1.998917    2.016554
 ---------------------------------------------------------------------

 SCF Done:  E(UB3LYP) =  -666.896549086     A.U. after   29 cycles

 The electronic state is 2-A.
 Alpha  occ. eigenvalues --  -18.99929 -18.99007 -14.22816 -14.22496 -14.21393
 Alpha  occ. eigenvalues --  -10.17772 -10.17207 -10.11182 -10.10950 -10.10654
 Alpha  occ. eigenvalues --  -10.10108 -10.09196 -10.08814 -10.07759  -0.94759
 Alpha  occ. eigenvalues --   -0.93783  -0.83767  -0.80639  -0.79894  -0.72328
 Alpha  occ. eigenvalues --   -0.66187  -0.65062  -0.62146  -0.56455  -0.51916
 Alpha  occ. eigenvalues --   -0.48951  -0.47916  -0.45105  -0.43935  -0.43178
 Alpha  occ. eigenvalues --   -0.41249  -0.39952  -0.38997  -0.37313  -0.35676
 Alpha  occ. eigenvalues --   -0.35446  -0.34378  -0.33476  -0.32088  -0.31311
 Alpha  occ. eigenvalues --   -0.31116  -0.28544  -0.27291  -0.26720  -0.26094
 Alpha  occ. eigenvalues --   -0.26037  -0.19200  -0.19019  -0.17971  -0.17706
 Alpha  occ. eigenvalues --   -0.17154  -0.16932  -0.11036   0.04013
 Alpha virt. eigenvalues --    0.06411   0.07309   0.07835   0.08523   0.08981
 Alpha virt. eigenvalues --    0.09333   0.09998   0.10519   0.10987   0.11357
 Alpha virt. eigenvalues --    0.11743   0.12045   0.12086   0.13207   0.13873

  Beta  occ. eigenvalues --  -18.99920 -18.99006 -14.22703 -14.22491 -14.21392
  Beta  occ. eigenvalues --  -10.17769 -10.17206 -10.11169 -10.10892 -10.10651
  Beta  occ. eigenvalues --  -10.10093 -10.09197 -10.08803 -10.07755  -0.94734
  Beta  occ. eigenvalues --   -0.93779  -0.83754  -0.80531  -0.79848  -0.72316
  Beta  occ. eigenvalues --   -0.66168  -0.65012  -0.62113  -0.56404  -0.51872
  Beta  occ. eigenvalues --   -0.48858  -0.47849  -0.45089  -0.43896  -0.43106
  Beta  occ. eigenvalues --   -0.41231  -0.39893  -0.38944  -0.37295  -0.35649
  Beta  occ. eigenvalues --   -0.35424  -0.34346  -0.33460  -0.32049  -0.31296
  Beta  occ. eigenvalues --   -0.31092  -0.28522  -0.27262  -0.26699  -0.26068
  Beta  occ. eigenvalues --   -0.26009  -0.19191  -0.19011  -0.17922  -0.17659
  Beta  occ. eigenvalues --   -0.17139  -0.16920  -0.11021
  Beta virt. eigenvalues --    0.06284   0.07305   0.07639   0.08467   0.08995
  Beta virt. eigenvalues --    0.09279   0.09525   0.10514   0.10931   0.11216
  Beta virt. eigenvalues --    0.11480   0.12030   0.12140   0.12763   0.13551

 Mulliken charges and spin densities:
               1          2
     1  C   -1.387296  -0.022842
     2  C    1.284762  -0.352669
     3  C   -0.080233   0.322341
     4  C   -0.474592  -0.321985
     5  C    0.090967  -0.176757
     6  N   -0.112565   0.243255
     7  C    2.091169  -2.481076
     8  C    0.180098  -0.026462
     9  O   -0.355196  -0.060554
    10  N   -0.440880   0.163552
    11  C   -0.121035  -0.292797
    12  C   -0.023030  -0.014507
    13  O   -0.330982   0.004462
    14  N   -0.466859   0.025136
    15  H    0.084304   0.062277
    16  H    0.172846  -0.009949
    17  H    0.097177   0.115956
    18  H   -0.016626   0.174100
    19  H    0.053008   0.105510
    20  H   -0.259418   0.435930
    21  H    0.176461  -0.083615
    22  H   -0.540033   0.723556
    23  H   -0.492700   0.707562
    24  H   -0.602853   0.887785
    25  H   -0.512781   0.812943
    26  H    0.169605   0.052792
    27  H    0.147935   0.017111
    28  H    0.450149  -0.068556
    29  H    0.218599   0.057499
 Sum of Mulliken charges =  -1.00000   1.00000

 Dipole moment (field-independent basis, Debye):
    X=              9.9162    Y=              1.7576    Z=              2.0092  Tot=             10.2692
 Quadrupole moment (field-independent basis, Debye-Ang):
   XX=           -178.4821   YY=           -124.4225   ZZ=           -111.0293
   XY=            -22.6107   XZ=             -5.3581   YZ=             -2.2102

 Summary of Natural Population Analysis:

                                       Natural Population
                Natural  -----------------------------------------------
    Atom  No    Charge         Core      Valence    Rydberg      Total
 -----------------------------------------------------------------------
      C    1   -0.13508      0.99927     2.13201    0.00380     3.13508
      C    2    0.00934      0.99938     1.98387    0.00740     2.99066
      C    3   -0.24031      0.99956     2.23319    0.00757     3.24031
      C    4   -0.18800      0.99962     2.17991    0.00846     3.18800
      C    5   -0.08584      0.99960     2.07482    0.01143     3.08584
      N    6   -0.28629      0.99971     2.77093    0.01565     3.78629
      C    7   -0.11943      0.99956     2.10584    0.01404     3.11943
      C    8    0.33720      0.99969     1.64046    0.02266     2.66280
      O    9   -0.34203      0.99986     3.33540    0.00677     4.34203
      N   10   -0.39213      0.99971     2.88396    0.00846     3.89213
      C   11   -0.12217      0.99956     2.11066    0.01195     3.12217
      C   12    0.32464      0.99970     1.65241    0.02325     2.67536
      O   13   -0.33806      0.99988     3.33229    0.00588     4.33806
      N   14   -0.40426      0.99968     2.89762    0.00696     3.90426
      H   15    0.10952      0.00000     0.38942    0.00106     0.39048
      H   16    0.12421      0.00000     0.37390    0.00189     0.37579
      H   17    0.11065      0.00000     0.38825    0.00110     0.38935
      H   18    0.10251      0.00000     0.39643    0.00105     0.39749
      H   19    0.10046      0.00000     0.39860    0.00093     0.39954
      H   20    0.10099      0.00000     0.39737    0.00164     0.39901
      H   21    0.09387      0.00000     0.40410    0.00203     0.40613
      H   22    0.11053      0.00000     0.38798    0.00148     0.38947
      H   23    0.10494      0.00000     0.39109    0.00397     0.39506
      H   24    0.20927      0.00000     0.24758    0.04316     0.29073
      H   25    0.19995      0.00000     0.29474    0.00530     0.30005
      H   26    0.09875      0.00000     0.39994    0.00131     0.40125
      H   27    0.10965      0.00000     0.38934    0.00102     0.39035
      H   28    0.21624      0.00000     0.28098    0.00277     0.28376
      H   29    0.19086      0.00000     0.30757    0.00157     0.30914
 =======================================================================
   * Total *    0.00000     13.99477    38.78066    0.22457    53.00000

 Normal termination of Gaussian 16 at Thu Dec 10 11:18:32 2020.
