 Gaussian 16, Revision A.03,

 -----------------------------------------------------------
 # opt freq B3LYP/6-31G(d) empiricaldispersion=gd3bj scf=xqc
 -----------------------------------------------------------

 ------------------------------
 CID_79393901_JID_9764_neutraal
 ------------------------------
 Symbolic Z-matrix:
 Charge =  0 Multiplicity = 1

 SCF Done:  E(RB3LYP) =  -876.940466886     A.U. after   14 cycles
 SCF Done:  E(RB3LYP) =  -876.947865699     A.U. after   13 cycles
 SCF Done:  E(RB3LYP) =  -876.948130178     A.U. after   14 cycles
 SCF Done:  E(RB3LYP) =  -876.951486118     A.U. after   13 cycles
 SCF Done:  E(RB3LYP) =  -876.954086186     A.U. after   14 cycles
 SCF Done:  E(RB3LYP) =  -876.955293603     A.U. after   13 cycles
 SCF Done:  E(RB3LYP) =  -876.956027684     A.U. after   13 cycles
 SCF Done:  E(RB3LYP) =  -876.956403670     A.U. after   12 cycles
 SCF Done:  E(RB3LYP) =  -876.956657290     A.U. after   11 cycles
 SCF Done:  E(RB3LYP) =  -876.956757441     A.U. after   11 cycles
 SCF Done:  E(RB3LYP) =  -876.956918675     A.U. after    9 cycles
 SCF Done:  E(RB3LYP) =  -876.956920217     A.U. after    9 cycles
 SCF Done:  E(RB3LYP) =  -876.956920864     A.U. after    8 cycles
 SCF Done:  E(RB3LYP) =  -876.956920889     A.U. after    7 cycles
 SCF Done:  E(RB3LYP) =  -876.956920879     A.U. after    7 cycles
 Optimization completed.
    -- Stationary point found.
 Normal termination of Gaussian 16 at Sat Dec 12 10:08:46 2020.

 --------------------------------------------------------------------
 #N Geom=AllCheck Guess=TCheck SCRF=Check GenChk RB3LYP/6-31G(d) Freq
 --------------------------------------------------------------------

 Structure from the checkpoint file:  "JID_9764.chk"
 ------------------------------
 CID_79393901_JID_9764_neutraal
 ------------------------------
 Charge =  0 Multiplicity = 1

 SCF Done:  E(RB3LYP) =  -876.956920879     A.U. after    1 cycles

  Exact polarizability: 191.926  27.739 141.606  -5.197   9.395 150.560
 Approx polarizability: 276.741  50.852 201.812  -4.065  24.728 249.405

                      1                      2                      3
                      A                      A                      A
 Frequencies --     19.1284                27.3998                38.9074
 Red. masses --      4.7716                 5.0784                 3.6331
 Frc consts  --      0.0010                 0.0022                 0.0032
 IR Inten    --      0.5261                 2.2090                 1.5563

                      4                      5                      6
                      A                      A                      A
 Frequencies --     56.6999                75.1770                78.3529
 Red. masses --      4.7722                 2.7436                 3.1025
 Frc consts  --      0.0090                 0.0091                 0.0112
 IR Inten    --      1.8495                 0.3488                 1.3913

                      7                      8                      9
                      A                      A                      A
 Frequencies --     95.7856               103.4662               121.2507
 Red. masses --      4.3671                 3.6005                 3.9167
 Frc consts  --      0.0236                 0.0227                 0.0339
 IR Inten    --      0.3260                 1.6942                 0.2444

                     10                     11                     12
                      A                      A                      A
 Frequencies --    154.8771               173.8126               189.0452
 Red. masses --      1.6214                 1.8629                 2.5856
 Frc consts  --      0.0229                 0.0332                 0.0544
 IR Inten    --      2.6467                 0.7372                 0.9828

                     13                     14                     15
                      A                      A                      A
 Frequencies --    207.9404               234.5686               259.1228
 Red. masses --      1.6679                 4.2145                 2.2381
 Frc consts  --      0.0425                 0.1366                 0.0885
 IR Inten    --      3.3738                 1.8120                 1.3753

                     16                     17                     18
                      A                      A                      A
 Frequencies --    273.5571               293.0578               326.2599
 Red. masses --      2.3101                 3.6492                 2.4610
 Frc consts  --      0.1019                 0.1847                 0.1543
 IR Inten    --      0.7980                 2.3694                 3.1301

                     19                     20                     21
                      A                      A                      A
 Frequencies --    341.5307               348.5280               376.1696
 Red. masses --      2.5748                 3.6630                 4.2734
 Frc consts  --      0.1770                 0.2622                 0.3563
 IR Inten    --      1.7698                 3.0523                11.7561

                     22                     23                     24
                      A                      A                      A
 Frequencies --    434.5439               464.2840               518.3469
 Red. masses --      3.0888                 3.2515                 3.2806
 Frc consts  --      0.3436                 0.4130                 0.5193
 IR Inten    --      5.3284                 6.6911                15.5558

                     25                     26                     27
                      A                      A                      A
 Frequencies --    529.0620               540.2654               546.5985
 Red. masses --      3.1402                 4.7685                 3.0452
 Frc consts  --      0.5179                 0.8201                 0.5360
 IR Inten    --     10.0672                 1.8675                15.0785

                     28                     29                     30
                      A                      A                      A
 Frequencies --    575.9704               602.4954               628.9564
 Red. masses --      3.0106                 2.2818                 1.6917
 Frc consts  --      0.5884                 0.4880                 0.3943
 IR Inten    --      1.7132                49.8779               131.1941

                     31                     32                     33
                      A                      A                      A
 Frequencies --    691.8650               707.7085               720.4988
 Red. masses --      2.1803                 7.7913                 2.0638
 Frc consts  --      0.6149                 2.2992                 0.6312
 IR Inten    --     49.1931                 7.4177                41.3816

                     34                     35                     36
                      A                      A                      A
 Frequencies --    744.5762               780.6928               798.2794
 Red. masses --      2.4400                 1.6317                 2.5350
 Frc consts  --      0.7970                 0.5859                 0.9518
 IR Inten    --     20.2792                11.3865                22.8500

                     37                     38                     39
                      A                      A                      A
 Frequencies --    804.6345               818.8971               854.3375
 Red. masses --      2.2622                 1.3756                 1.4888
 Frc consts  --      0.8629                 0.5435                 0.6403
 IR Inten    --      5.4524                 4.1602                 3.2668

                     40                     41                     42
                      A                      A                      A
 Frequencies --    864.4995               874.6775               881.3015
 Red. masses --      2.7074                 3.4752                 3.1995
 Frc consts  --      1.1921                 1.5665                 1.4641
 IR Inten    --      2.1008                19.9033                 5.0332

                     43                     44                     45
                      A                      A                      A
 Frequencies --    923.2738               957.6141               961.5590
 Red. masses --      2.9082                 2.8209                 2.1170
 Frc consts  --      1.4606                 1.5241                 1.1533
 IR Inten    --     14.8332                 3.3201                 3.7513

                     46                     47                     48
                      A                      A                      A
 Frequencies --    982.0981               989.0429              1048.3689
 Red. masses --      1.4458                 2.3574                 1.7786
 Frc consts  --      0.8216                 1.3587                 1.1517
 IR Inten    --      1.5591                 7.2356                 6.2266

                     49                     50                     51
                      A                      A                      A
 Frequencies --   1055.8898              1070.5391              1074.3414
 Red. masses --      2.4486                 1.4675                 1.4305
 Frc consts  --      1.6085                 0.9909                 0.9728
 IR Inten    --     18.7320                17.8192                 0.1221

                     52                     53                     54
                      A                      A                      A
 Frequencies --   1079.4641              1087.3197              1092.0936
 Red. masses --      2.0920                 1.3554                 3.6356
 Frc consts  --      1.4363                 0.9441                 2.5547
 IR Inten    --      5.0345                 0.3710                21.1025

                     55                     56                     57
                      A                      A                      A
 Frequencies --   1130.2134              1148.0852              1174.2727
 Red. masses --      1.9951                 1.1447                 3.2941
 Frc consts  --      1.5016                 0.8890                 2.6762
 IR Inten    --     28.1602                 1.6966                17.4871

                     58                     59                     60
                      A                      A                      A
 Frequencies --   1188.9945              1201.4774              1209.4101
 Red. masses --      3.6309                 1.8615                 1.6242
 Frc consts  --      3.0243                 1.5832                 1.3997
 IR Inten    --    247.3552                18.2416                 1.5832

                     61                     62                     63
                      A                      A                      A
 Frequencies --   1211.7972              1225.8444              1258.4763
 Red. masses --      1.7576                 1.4629                 1.7561
 Frc consts  --      1.5207                 1.2952                 1.6387
 IR Inten    --      3.1773                17.4599                 4.4894

                     64                     65                     66
                      A                      A                      A
 Frequencies --   1278.9302              1317.5425              1333.4441
 Red. masses --      1.5040                 2.0015                 1.7683
 Frc consts  --      1.4494                 2.0471                 1.8525
 IR Inten    --     55.6972               128.1222                44.0664

                     67                     68                     69
                      A                      A                      A
 Frequencies --   1345.3410              1358.3398              1376.6349
 Red. masses --      2.5141                 1.5673                 1.9394
 Frc consts  --      2.6810                 1.7038                 2.1655
 IR Inten    --     32.7488                92.7592                 9.4832

                     70                     71                     72
                      A                      A                      A
 Frequencies --   1403.8519              1409.5482              1413.5345
 Red. masses --      1.5732                 1.4796                 1.2769
 Frc consts  --      1.8267                 1.7320                 1.5032
 IR Inten    --     26.3894                66.8298                11.1605

                     73                     74                     75
                      A                      A                      A
 Frequencies --   1430.5603              1433.0259              1437.9857
 Red. masses --      1.7799                 1.5489                 1.2980
 Frc consts  --      2.1461                 1.8741                 1.5814
 IR Inten    --     17.7894                38.6903                46.8000

                     76                     77                     78
                      A                      A                      A
 Frequencies --   1468.3672              1468.8085              1484.3737
 Red. masses --      1.5991                 1.9303                 1.8918
 Frc consts  --      2.0314                 2.4536                 2.4559
 IR Inten    --     21.8742                27.0107               112.5076

                     79                     80                     81
                      A                      A                      A
 Frequencies --   1486.9350              1501.6247              1511.1606
 Red. masses --      1.1128                 1.1538                 1.2053
 Frc consts  --      1.4496                 1.5328                 1.6217
 IR Inten    --      1.0741                 9.7530                20.3076

                     82                     83                     84
                      A                      A                      A
 Frequencies --   1515.1200              1522.9436              1527.2447
 Red. masses --      1.0462                 1.1460                 1.0585
 Frc consts  --      1.4150                 1.5660                 1.4546
 IR Inten    --      6.8900                38.0108                 6.8050

                     85                     86                     87
                      A                      A                      A
 Frequencies --   1528.7627              1531.8983              1539.0460
 Red. masses --      1.3727                 1.1694                 1.1168
 Frc consts  --      1.8902                 1.6168                 1.5586
 IR Inten    --     10.9745                34.0287                24.0102

                     88                     89                     90
                      A                      A                      A
 Frequencies --   1557.3368              1632.5829              1642.9538
 Red. masses --      2.4536                 3.9823                 5.9923
 Frc consts  --      3.5061                 6.2537                 9.5301
 IR Inten    --     33.5979                75.6238               617.2923

                     91                     92                     93
                      A                      A                      A
 Frequencies --   1772.4579              3026.2858              3058.9931
 Red. masses --      7.6142                 1.0450                 1.0362
 Frc consts  --     14.0938                 5.6386                 5.7127
 IR Inten    --    299.4769                22.0183                18.1745

                     94                     95                     96
                      A                      A                      A
 Frequencies --   3073.0523              3073.5599              3093.5577
 Red. masses --      1.0983                 1.0700                 1.0597
 Frc consts  --      6.1110                 5.9554                 5.9750
 IR Inten    --     21.7692                10.8571                39.2104

                     97                     98                     99
                      A                      A                      A
 Frequencies --   3112.8716              3124.3709              3139.4815
 Red. masses --      1.0591                 1.1022                 1.1020
 Frc consts  --      6.0468                 6.3393                 6.3996
 IR Inten    --     35.7147                29.0508                13.4084

                    100                    101                    102
                      A                      A                      A
 Frequencies --   3154.6873              3156.8528              3159.5203
 Red. masses --      1.0524                 1.1076                 1.0616
 Frc consts  --      6.1707                 6.5032                 6.2439
 IR Inten    --     10.8031                35.8765                 5.8086

                    103                    104                    105
                      A                      A                      A
 Frequencies --   3160.6515              3163.9749              3168.2999
 Red. masses --      1.1047                 1.0838                 1.0944
 Frc consts  --      6.5022                 6.3926                 6.4725
 IR Inten    --      3.0289                 7.2029                 4.5360

                    106                    107                    108
                      A                      A                      A
 Frequencies --   3174.7513              3177.0458              3234.4847
 Red. masses --      1.0905                 1.0964                 1.1202
 Frc consts  --      6.4759                 6.5204                 6.9051
 IR Inten    --     35.9680                 8.8383                 1.3444

                    109                    110                    111
                      A                      A                      A
 Frequencies --   3248.6168              3563.3082              3604.8884
 Red. masses --      1.1169                 1.0753                 1.0753
 Frc consts  --      6.9450                 8.0443                 8.2335
 IR Inten    --     12.5485                13.6744                22.6604

 - Thermochemistry -
 -------------------
 Temperature   298.150 Kelvin.  Pressure   1.00000 Atm.
 Atom     1 has atomic number  6 and mass  12.00000

 Molecular mass:   264.15863 amu.
 Principal axes and moments of inertia in atomic units:
                           1         2         3
     Eigenvalues --  3463.604776159.029187355.38009
           X            0.99962   0.02116  -0.01766
           Y           -0.02070   0.99945   0.02605
           Z            0.01820  -0.02567   0.99950
 This molecule is an asymmetric top.
 Rotational symmetry number  1.
 Warning -- assumption of classical behavior for rotation
           may cause significant error
 Rotational temperatures (Kelvin)      0.02501     0.01406     0.01178
 Rotational constants (GHZ):           0.52106     0.29302     0.24536
 Zero-point vibrational energy     874152.7 (Joules/Mol)
                                  208.92750 (Kcal/Mol)
 Warning -- explicit consideration of  29 degrees of freedom as
           vibrations may cause significant error
 Vibrational temperatures:     27.52    39.42    55.98    81.58   108.16
          (Kelvin)            112.73   137.81   148.86   174.45   222.83
                              250.08   271.99   299.18   337.49   372.82
                              393.59   421.64   469.42   491.39   501.45
                              541.22   625.21   668.00   745.79   761.20
                              777.32   786.43   828.69   866.86   904.93
                              995.44  1018.23  1036.64  1071.28  1123.24
                             1148.55  1157.69  1178.21  1229.20  1243.82
                             1258.47  1268.00  1328.39  1377.79  1383.47
                             1413.02  1423.01  1508.37  1519.19  1540.27
                             1545.74  1553.11  1564.41  1571.28  1626.13
                             1651.84  1689.52  1710.70  1728.66  1740.07
                             1743.51  1763.72  1810.67  1840.10  1895.65
                             1918.53  1935.65  1954.35  1980.67  2019.83
                             2028.03  2033.76  2058.26  2061.80  2068.94
                             2112.65  2113.29  2135.68  2139.37  2160.50
                             2174.22  2179.92  2191.18  2197.36  2199.55
                             2204.06  2214.34  2240.66  2348.92  2363.84
                             2550.17  4354.15  4401.21  4421.44  4422.17
                             4450.94  4478.73  4495.27  4517.01  4538.89
                             4542.01  4545.84  4547.47  4552.25  4558.48
                             4567.76  4571.06  4653.70  4674.03  5126.81
                             5186.63

 Zero-point correction=                           0.332947 (Hartree/Particle)
 Thermal correction to Energy=                    0.352177
 Thermal correction to Enthalpy=                  0.353121
 Thermal correction to Gibbs Free Energy=         0.283348
 Sum of electronic and zero-point Energies=           -876.623974
 Sum of electronic and thermal Energies=              -876.604744
 Sum of electronic and thermal Enthalpies=            -876.603799
 Sum of electronic and thermal Free Energies=         -876.673573

                     E (Thermal)             CV                S
                      KCal/Mol        Cal/Mol-Kelvin    Cal/Mol-Kelvin
 Total                  220.995             71.415            146.850
 Electronic               0.000              0.000              0.000
 Translational            0.889              2.981             42.613
 Rotational               0.889              2.981             33.417
 Vibrational            219.217             65.453             70.819
 Vibration     1          0.593              1.986              6.723
 Vibration     2          0.593              1.984              6.009
 Vibration     3          0.594              1.981              5.314
 Vibration     4          0.596              1.975              4.569
 Vibration     5          0.599              1.966              4.013
 Vibration     6          0.600              1.964              3.932
 Vibration     7          0.603              1.952              3.538
 Vibration     8          0.605              1.946              3.388
 Vibration     9          0.609              1.931              3.080
 Vibration    10          0.620              1.897              2.611
 Vibration    11          0.627              1.875              2.394
 Vibration    12          0.633              1.855              2.237
 Vibration    13          0.641              1.829              2.062
 Vibration    14          0.654              1.788              1.844
 Vibration    15          0.668              1.747              1.668
 Vibration    16          0.676              1.722              1.574
 Vibration    17          0.688              1.687              1.456
 Vibration    18          0.710              1.623              1.279
 Vibration    19          0.721              1.592              1.205
 Vibration    20          0.726              1.578              1.173
 Vibration    21          0.747              1.521              1.055
 Vibration    22          0.795              1.395              0.844
 Vibration    23          0.822              1.329              0.754
 Vibration    24          0.873              1.209              0.614
 Vibration    25          0.884              1.186              0.589
 Vibration    26          0.895              1.161              0.565
 Vibration    27          0.902              1.147              0.551
 Vibration    28          0.932              1.083              0.493
 Vibration    29          0.961              1.027              0.445

                           ! Non-Optimized Parameters !
 Normal termination of Gaussian 16 at Sat Dec 12 10:28:28 2020.

 ----------------------------------------------------------------------
 # B3LYP/6-311++G(d,p) empiricaldispersion=gd3bj scf=xqc pop=npa geom=c
 heck
 ----------------------------------------------------------------------

 --------------------------------------
 CID_79393901_JID_9764_Energie_neutraal
 --------------------------------------
 Structure from the checkpoint file:  "JID_9764.chk"
 Charge =  0 Multiplicity = 1

 SCF Done:  E(RB3LYP) =  -877.204081089     A.U. after   15 cycles
 Normal termination of Gaussian 16 at Sat Dec 12 10:35:49 2020.

 ----------------------------------------------------------------------
 # B3LYP/6-311++G(d,p) empiricaldispersion=gd3bj scf=xqc pop=npa geom=c
 heck
 ----------------------------------------------------------------------

 ------------------------------------
 CID_79393901_JID_9764_Energie_kation
 ------------------------------------
 Structure from the checkpoint file:  "JID_9764.chk"
 Charge =  1 Multiplicity = 2

 SCF Done:  E(UB3LYP) =  -876.911145400     A.U. after   32 cycles
 Normal termination of Gaussian 16 at Sat Dec 12 10:56:44 2020.
 Gaussian 16:  ES64L-G16RevA.03 25-Dec-2016

 ----------------------------------------------------------------------
 # B3LYP/6-311++G(d,p) empiricaldispersion=gd3bj scf=xqc pop=npa geom=c
 heck
 ----------------------------------------------------------------------

 -----------------------------------
 CID_79393901_JID_9764_Energie_anion
 -----------------------------------
 Structure from the checkpoint file:  "JID_9764.chk"
 Charge = -1 Multiplicity = 2

                         Standard orientation:
 ---------------------------------------------------------------------
 Center     Atomic      Atomic             Coordinates (Angstroms)
 Number     Number       Type             X           Y           Z
 ---------------------------------------------------------------------
      1          6           0        3.960582    1.624561   -0.433770
      2          6           0        4.194954    0.124845   -0.337105
      3          8           0        3.044674   -0.618808   -0.787576
      4          6           0        2.007235   -0.766176    0.062846
      5          7           0        2.122814   -0.301318    1.315511
      6          6           0        1.055265   -0.481529    2.095469
      7          7           0       -0.100484   -1.046489    1.769890
      8          6           0       -0.197662   -1.506292    0.500693
      9          6           0        0.857416   -1.393291   -0.428196
     10          6           0        0.724681   -1.872292   -1.847134
     11          7           0       -1.387336   -2.087347    0.140106
     12          6           0       -2.626165   -1.709588    0.820592
     13          6           0       -2.918051   -0.201291    0.695580
     14          6           0       -2.723739    0.221004   -0.753822
     15          8           0       -3.255197   -0.396716   -1.673793
     16          7           0       -1.911820    1.296306   -1.010067
     17          6           0       -0.979985    1.921165   -0.111898
     18          6           0       -0.773180    3.406362   -0.252178
     19          6           0       -1.491461    2.858612    0.952804
     20          1           0        3.666996    1.904412   -1.450903
     21          1           0        4.879308    2.164653   -0.177808
     22          1           0        3.174888    1.931749    0.261578
     23          1           0        4.994232   -0.196466   -1.009636
     24          1           0        4.439422   -0.171215    0.685224
     25          1           0        1.140059   -0.110652    3.115761
     26          1           0       -0.117305   -1.381629   -2.356334
     27          1           0        1.631811   -1.655946   -2.412251
     28          1           0        0.545646   -2.954584   -1.892010
     29          1           0       -1.510832   -2.204527   -0.857238
     30          1           0       -3.426527   -2.287048    0.354935
     31          1           0       -2.554050   -1.986573    1.873435
     32          1           0       -3.960432   -0.004086    0.973196
     33          1           0       -2.272535    0.355402    1.373502
     34          1           0       -1.763713    1.441286   -2.003295
     35          1           0       -0.102663    1.327512    0.136884
     36          1           0        0.236560    3.787390   -0.134201
     37          1           0       -1.370521    3.922555   -0.998242
     38          1           0       -2.565694    3.004399    1.005404
     39          1           0       -0.982023    2.852969    1.911587
 ---------------------------------------------------------------------

 SCF Done:  E(UB3LYP) =  -877.191206185     A.U. after   33 cycles
 SCF Done:  E(UB3LYP) =  -877.191206185     a.u. after    1 cycles

 The electronic state is 2-A.
 Alpha  occ. eigenvalues --  -19.06776 -18.99991 -14.25063 -14.24515 -14.21328
 Alpha  occ. eigenvalues --  -14.21159 -10.18355 -10.17906 -10.16219 -10.14409
 Alpha  occ. eigenvalues --  -10.13124 -10.12609 -10.12055 -10.09406 -10.08797
 Alpha  occ. eigenvalues --  -10.08704 -10.08655 -10.08650 -10.06515  -0.99167
 Alpha  occ. eigenvalues --   -0.95116  -0.90036  -0.85202  -0.84540  -0.77875
 Alpha  occ. eigenvalues --   -0.75454  -0.72413  -0.68132  -0.66448  -0.62109
 Alpha  occ. eigenvalues --   -0.58862  -0.55903  -0.54702  -0.53723  -0.52081
 Alpha  occ. eigenvalues --   -0.51086  -0.47720  -0.46236  -0.44630  -0.43301
 Alpha  occ. eigenvalues --   -0.41490  -0.40531  -0.39536  -0.38449  -0.37230
 Alpha  occ. eigenvalues --   -0.36955  -0.34863  -0.34396  -0.34269  -0.34013
 Alpha  occ. eigenvalues --   -0.33880  -0.32278  -0.31541  -0.30876  -0.30392
 Alpha  occ. eigenvalues --   -0.29593  -0.28586  -0.28320  -0.28142  -0.27510
 Alpha  occ. eigenvalues --   -0.26209  -0.24648  -0.23115  -0.23012  -0.21918
 Alpha  occ. eigenvalues --   -0.20803  -0.17468  -0.17199  -0.16801  -0.16531
 Alpha  occ. eigenvalues --   -0.13890   0.04204
 Alpha virt. eigenvalues --    0.05968   0.06505   0.06786   0.06891   0.07554
 Alpha virt. eigenvalues --    0.07792   0.08397   0.08865   0.09066   0.09371
 Alpha virt. eigenvalues --    0.09689   0.10265   0.10594   0.11165   0.11431

  Beta  occ. eigenvalues --  -19.06776 -18.99967 -14.25061 -14.24514 -14.21332
  Beta  occ. eigenvalues --  -14.21127 -10.18319 -10.17872 -10.16222 -10.14379
  Beta  occ. eigenvalues --  -10.13108 -10.12602 -10.12046 -10.09391 -10.08791
  Beta  occ. eigenvalues --  -10.08672 -10.08643 -10.08631 -10.06476  -0.99149
  Beta  occ. eigenvalues --   -0.95066  -0.90006  -0.85188  -0.84519  -0.77838
  Beta  occ. eigenvalues --   -0.75429  -0.72378  -0.68103  -0.66411  -0.62071
  Beta  occ. eigenvalues --   -0.58817  -0.55849  -0.54660  -0.53686  -0.52002
  Beta  occ. eigenvalues --   -0.51042  -0.47682  -0.46202  -0.44606  -0.43274
  Beta  occ. eigenvalues --   -0.41471  -0.40456  -0.39497  -0.38402  -0.37163
  Beta  occ. eigenvalues --   -0.36914  -0.34821  -0.34364  -0.34235  -0.33981
  Beta  occ. eigenvalues --   -0.33833  -0.32244  -0.31487  -0.30859  -0.30352
  Beta  occ. eigenvalues --   -0.29551  -0.28515  -0.28284  -0.28107  -0.27491
  Beta  occ. eigenvalues --   -0.26130  -0.24621  -0.23058  -0.22967  -0.21890
  Beta  occ. eigenvalues --   -0.20774  -0.17440  -0.17168  -0.16735  -0.16479
  Beta  occ. eigenvalues --   -0.13821
  Beta virt. eigenvalues --    0.06228   0.06665   0.06839   0.07163   0.07384
  Beta virt. eigenvalues --    0.07796   0.08271   0.08757   0.09189   0.09359
  Beta virt. eigenvalues --    0.09605   0.10007   0.10561   0.10999   0.11385

 Mulliken charges and spin densities:
               1          2
     1  C    0.424466  -0.804192
     2  C    0.284926  -0.463848
     3  O   -0.068195   0.031266
     4  C   -0.050074  -0.108592
     5  N   -0.017471  -0.025508
     6  C   -0.291417   0.249724
     7  N   -0.016151  -0.040942
     8  C   -0.521438   0.220968
     9  C   -0.289480   0.398988
    10  C   -0.068268  -0.655044
    11  N    0.055794   0.001459
    12  C    0.159007  -0.725516
    13  C    0.040902   0.089669
    14  C   -0.419228   0.188208
    15  O   -0.317077   0.007988
    16  N   -0.085886   0.027398
    17  C   -1.067617   0.689158
    18  C    0.960013  -1.160470
    19  C   -0.825333   0.656699
    20  H   -0.043391   0.187668
    21  H   -0.615051   0.771126
    22  H   -0.210998   0.374278
    23  H   -0.271634   0.436770
    24  H    0.170956  -0.002077
    25  H   -0.134001   0.321181
    26  H    0.113656   0.055555
    27  H    0.083853   0.102147
    28  H    0.050746   0.116333
    29  H    0.254920   0.009710
    30  H    0.191761  -0.004008
    31  H   -0.012371   0.211841
    32  H   -0.332544   0.552716
    33  H    0.434498  -0.257773
    34  H    0.054674   0.235630
    35  H    2.476451  -2.462888
    36  H   -0.407162   0.583271
    37  H   -0.221107   0.381737
    38  H   -0.098692   0.269003
    39  H   -0.372037   0.540369
 Sum of Mulliken charges =  -1.00000   1.00000

 Dipole moment (field-independent basis, Debye):
    X=             -2.0653    Y=             -5.8445    Z=             -0.2361  Tot=              6.2032
 Quadrupole moment (field-independent basis, Debye-Ang):
   XX=           -200.0719   YY=           -169.5064   ZZ=           -153.5382
   XY=            -11.0119   XZ=             -0.4984   YZ=             -1.0916

 Summary of Natural Population Analysis:

                                       Natural Population
                Natural  -----------------------------------------------
    Atom  No    Charge         Core      Valence    Rydberg      Total
 -----------------------------------------------------------------------
      C    1   -0.29976      0.99966     2.29512    0.00498     3.29976
      C    2   -0.01300      0.99957     2.00149    0.01194     3.01300
      O    3   -0.27649      0.99985     3.26768    0.00895     4.27649
      C    4    0.28835      0.99940     1.69503    0.01722     2.71165
      N    5   -0.29288      0.99966     2.78338    0.00984     3.79288
      C    6    0.15700      0.99966     1.82456    0.01877     2.84300
      N    7   -0.28058      0.99967     2.77087    0.01004     3.78058
      C    8    0.21472      0.99950     1.77139    0.01440     2.78528
      C    9   -0.09162      0.99943     2.08315    0.00904     3.09162
      C   10   -0.30030      0.99964     2.29566    0.00500     3.30030
      N   11   -0.30941      0.99967     2.79979    0.00995     3.80941
      C   12   -0.08580      0.99962     2.07365    0.01252     3.08580
      C   13   -0.24445      0.99958     2.23742    0.00745     3.24445
      C   14    0.35064      0.99967     1.62552    0.02418     2.64936
      O   15   -0.33374      0.99988     3.32814    0.00572     4.33374
      N   16   -0.31634      0.99965     2.80617    0.01052     3.81634
      C   17   -0.03191      0.99956     2.02046    0.01189     3.03191
      C   18   -0.19330      0.99962     2.18447    0.00921     3.19330
      C   19   -0.19688      0.99962     2.18807    0.00919     3.19688
      H   20    0.10022      0.00000     0.39846    0.00132     0.39978
      H   21    0.10322      0.00000     0.39491    0.00187     0.39678
      H   22    0.10649      0.00000     0.39119    0.00231     0.39351
      H   23    0.08859      0.00000     0.41015    0.00126     0.41141
      H   24    0.09468      0.00000     0.40359    0.00173     0.40532
      H   25    0.08379      0.00000     0.41508    0.00113     0.41621
      H   26    0.10446      0.00000     0.39432    0.00121     0.39554
      H   27    0.11737      0.00000     0.38156    0.00107     0.38263
      H   28    0.10252      0.00000     0.39645    0.00103     0.39748
      H   29    0.19470      0.00000     0.30270    0.00259     0.30530
      H   30    0.10114      0.00000     0.39798    0.00088     0.39886
      H   31    0.10595      0.00000     0.39291    0.00114     0.39405
      H   32    0.11390      0.00000     0.38480    0.00130     0.38610
      H   33    0.11480      0.00000     0.38297    0.00223     0.38520
      H   34    0.19370      0.00000     0.30398    0.00233     0.30630
      H   35    0.10246      0.00000     0.39384    0.00370     0.39754
      H   36    0.10923      0.00000     0.38918    0.00160     0.39077
      H   37    0.10509      0.00000     0.39354    0.00138     0.39491
      H   38    0.10572      0.00000     0.39297    0.00130     0.39428
      H   39    0.10773      0.00000     0.39088    0.00139     0.39227
 =======================================================================
   * Total *   -0.00000     18.99292    51.76349    0.24359    71.00000

 Normal termination of Gaussian 16 at Sat Dec 12 11:18:47 2020.
