 Gaussian 16, Revision A.03,

 -----------------------------------------------------------
 # opt freq B3LYP/6-31G(d) empiricaldispersion=gd3bj scf=xqc
 -----------------------------------------------------------

 -------------------------------
 CID_154122907_JID_9566_neutraal
 -------------------------------
 Symbolic Z-matrix:
 Charge =  0 Multiplicity = 1

 SCF Done:  E(RB3LYP) =  -821.300882969     A.U. after   19 cycles
 SCF Done:  E(RB3LYP) =  -821.325391522     A.U. after   16 cycles
 SCF Done:  E(RB3LYP) =  -821.334579066     A.U. after   17 cycles
 SCF Done:  E(RB3LYP) =  -821.333863722     A.U. after   18 cycles
 SCF Done:  E(RB3LYP) =  -821.336518544     A.U. after   16 cycles
 SCF Done:  E(RB3LYP) =  -821.344306577     A.U. after   16 cycles
 SCF Done:  E(RB3LYP) =  -821.348019902     A.U. after   15 cycles
 SCF Done:  E(RB3LYP) =  -821.361021240     A.U. after   16 cycles
 SCF Done:  E(RB3LYP) =  -821.369263081     A.U. after   14 cycles
 SCF Done:  E(RB3LYP) =  -821.394230964     A.U. after   14 cycles
 SCF Done:  E(RB3LYP) =  -821.478803517     A.U. after   14 cycles
 SCF Done:  E(RB3LYP) =  -821.478839450     A.U. after   12 cycles
 SCF Done:  E(RB3LYP) =  -821.478846544     A.U. after   12 cycles
 SCF Done:  E(RB3LYP) =  -821.478848314     A.U. after   10 cycles
 SCF Done:  E(RB3LYP) =  -821.478848562     A.U. after    8 cycles
 SCF Done:  E(RB3LYP) =  -821.478848629     A.U. after    8 cycles
 Optimization completed.
    -- Stationary point found.
 Normal termination of Gaussian 16 at Mon Dec 14 13:48:34 2020.

 --------------------------------------------------------------------
 #N Geom=AllCheck Guess=TCheck SCRF=Check GenChk RB3LYP/6-31G(d) Freq
 --------------------------------------------------------------------

 Structure from the checkpoint file:  "JID_9566.chk"
 -------------------------------
 CID_154122907_JID_9566_neutraal
 -------------------------------
 Charge =  0 Multiplicity = 1

 SCF Done:  E(RB3LYP) =  -821.478848629     A.U. after    1 cycles

  Exact polarizability: 240.818   2.594 234.736  14.250  22.691  95.163
 Approx polarizability: 382.828  30.234 436.110  31.736  57.627 163.205

                      1                      2                      3
                      A                      A                      A
 Frequencies --     36.9519                61.1102                83.4971
 Red. masses --     10.9789                 6.0396                 5.7140
 Frc consts  --      0.0088                 0.0133                 0.0235
 IR Inten    --      0.6629                 1.3553                 0.1763

                      4                      5                      6
                      A                      A                      A
 Frequencies --     95.1348               138.8807               170.6939
 Red. masses --      4.9192                 3.8481                 5.1064
 Frc consts  --      0.0262                 0.0437                 0.0877
 IR Inten    --      0.7165                 0.5952                 0.4077

                      7                      8                      9
                      A                      A                      A
 Frequencies --    179.2814               238.1265               258.9218
 Red. masses --      4.7219                 5.7304                 5.1692
 Frc consts  --      0.0894                 0.1914                 0.2042
 IR Inten    --      7.3413                 1.0635                 6.1098

                     10                     11                     12
                      A                      A                      A
 Frequencies --    261.9549               328.8202               344.8806
 Red. masses --      6.0427                 3.3462                 5.9451
 Frc consts  --      0.2443                 0.2132                 0.4166
 IR Inten    --      0.5656                 1.6108                 0.4461

                     13                     14                     15
                      A                      A                      A
 Frequencies --    368.6141               414.2081               430.1589
 Red. masses --      5.3073                 5.1419                 5.5083
 Frc consts  --      0.4249                 0.5198                 0.6005
 IR Inten    --      0.3125                 1.7673                 1.1576

                     16                     17                     18
                      A                      A                      A
 Frequencies --    454.8810               460.9634               514.6492
 Red. masses --      3.2954                 4.0221                 4.0377
 Frc consts  --      0.4017                 0.5035                 0.6301
 IR Inten    --      1.7005                 3.7290                 0.2216

                     19                     20                     21
                      A                      A                      A
 Frequencies --    575.4392               589.6247               626.3868
 Red. masses --      5.2175                 4.8657                 5.7138
 Frc consts  --      1.0179                 0.9967                 1.3209
 IR Inten    --      2.4583                 0.5820                 4.7301

                     22                     23                     24
                      A                      A                      A
 Frequencies --    640.4777               660.5124               677.3360
 Red. masses --      5.0922                 3.0012                 5.4842
 Frc consts  --      1.2307                 0.7714                 1.4824
 IR Inten    --      2.1092                 8.7088                 5.3557

                     25                     26                     27
                      A                      A                      A
 Frequencies --    691.9545               717.6532               730.2727
 Red. masses --      1.6720                 4.1427                 3.1032
 Frc consts  --      0.4717                 1.2571                 0.9750
 IR Inten    --      5.9336                 2.4013                 8.5590

                     28                     29                     30
                      A                      A                      A
 Frequencies --    759.1689               770.4805               781.0161
 Red. masses --      5.4704                 1.6983                 1.8122
 Frc consts  --      1.8576                 0.5940                 0.6513
 IR Inten    --      5.6181                 3.0596                 2.6880

                     31                     32                     33
                      A                      A                      A
 Frequencies --    789.5397               797.3067               818.1752
 Red. masses --      1.4927                 3.6423                 4.8730
 Frc consts  --      0.5482                 1.3642                 1.9219
 IR Inten    --     79.6303                 1.4783                 3.1377

                     34                     35                     36
                      A                      A                      A
 Frequencies --    850.2715               861.2819               886.9824
 Red. masses --      1.6910                 2.9521                 1.3977
 Frc consts  --      0.7203                 1.2903                 0.6479
 IR Inten    --     28.3104                 0.1449                 0.5768

                     37                     38                     39
                      A                      A                      A
 Frequencies --    896.5747               922.0019               933.7885
 Red. masses --      1.5183                 1.4154                 6.0031
 Frc consts  --      0.7191                 0.7089                 3.0840
 IR Inten    --      3.7681                28.4828                12.9046

                     40                     41                     42
                      A                      A                      A
 Frequencies --    958.2913               961.1113               989.1466
 Red. masses --      1.3856                 1.3832                 1.2761
 Frc consts  --      0.7497                 0.7528                 0.7356
 IR Inten    --      1.7424                 2.3872                 0.1411

                     43                     44                     45
                      A                      A                      A
 Frequencies --    991.6456              1024.7710              1071.5441
 Red. masses --      1.2786                 6.6079                 2.4319
 Frc consts  --      0.7408                 4.0885                 1.6452
 IR Inten    --      0.0354                24.3475                 4.7238

                     46                     47                     48
                      A                      A                      A
 Frequencies --   1079.1201              1111.2077              1123.7598
 Red. masses --      2.4349                 1.9108                 3.1218
 Frc consts  --      1.6706                 1.3901                 2.3228
 IR Inten    --      0.1444                 0.7614                 4.6453

                     49                     50                     51
                      A                      A                      A
 Frequencies --   1135.1402              1199.3224              1202.1358
 Red. masses --      1.9367                 1.3063                 1.2136
 Frc consts  --      1.4704                 1.1070                 1.0333
 IR Inten    --      0.3647                 5.7111                 1.5612

                     52                     53                     54
                      A                      A                      A
 Frequencies --   1203.7640              1209.7603              1259.6261
 Red. masses --      1.4591                 2.0314                 1.7904
 Frc consts  --      1.2457                 1.7516                 1.6737
 IR Inten    --      0.7176                 1.5159                 4.7394

                     55                     56                     57
                      A                      A                      A
 Frequencies --   1308.3260              1318.2282              1343.5702
 Red. masses --      1.9988                 1.4939                 6.7895
 Frc consts  --      2.0158                 1.5295                 7.2212
 IR Inten    --     18.5336                 1.5849                 4.5374

                     58                     59                     60
                      A                      A                      A
 Frequencies --   1360.4578              1374.0289              1385.8406
 Red. masses --      8.2728                 2.5728                12.2295
 Frc consts  --      9.0213                 2.8618                13.8384
 IR Inten    --      5.1304                13.2879               497.4644

                     61                     62                     63
                      A                      A                      A
 Frequencies --   1394.3667              1465.4459              1497.7245
 Red. masses --      1.7496                 1.3029                 2.3142
 Frc consts  --      2.0042                 1.6486                 3.0585
 IR Inten    --     46.2910                 8.8124                 4.5824

                     64                     65                     66
                      A                      A                      A
 Frequencies --   1510.0068              1515.0594              1528.4302
 Red. masses --      2.6847                 2.6524                 2.4238
 Frc consts  --      3.6066                 3.5872                 3.3361
 IR Inten    --      0.3097                11.2752                10.4103

                     67                     68                     69
                      A                      A                      A
 Frequencies --   1601.8715              1619.3040              1629.8622
 Red. masses --     10.0690                 5.3353                 5.7551
 Frc consts  --     15.2228                 8.2427                 9.0075
 IR Inten    --     83.5842                 4.1707                14.0019

                     70                     71                     72
                      A                      A                      A
 Frequencies --   1652.8468              1659.4915              1673.4954
 Red. masses --      5.7767                 5.7571                 6.7853
 Frc consts  --      9.2981                 9.3413                11.1962
 IR Inten    --    110.3566                35.5731                83.8061

                     73                     74                     75
                      A                      A                      A
 Frequencies --   1697.0895              3184.5659              3193.3331
 Red. masses --      5.1996                 1.0599                 1.0857
 Frc consts  --      8.8233                 6.3329                 6.5233
 IR Inten    --      6.0836                 1.8719                 1.0867

                     76                     77                     78
                      A                      A                      A
 Frequencies --   3193.6688              3203.6314              3207.9242
 Red. masses --      1.0855                 1.0887                 1.0903
 Frc consts  --      6.5232                 6.5832                 6.6104
 IR Inten    --      1.2024                 7.5175                10.8017

                     79                     80                     81
                      A                      A                      A
 Frequencies --   3212.8967              3216.9880              3220.2944
 Red. masses --      1.0927                 1.0958                 1.0973
 Frc consts  --      6.6456                 6.6814                 6.7046
 IR Inten    --     15.9898                25.8331                17.7937

                     82                     83                     84
                      A                      A                      A
 Frequencies --   3249.3303              3265.3920              3275.0645
 Red. masses --      1.0929                 1.1165                 1.0904
 Frc consts  --      6.7988                 7.0141                 6.8911
 IR Inten    --      4.8238                 6.6501                 3.1817

 - Thermochemistry -
 -------------------
 Temperature   298.150 Kelvin.  Pressure   1.00000 Atm.
 Atom     1 has atomic number  6 and mass  12.00000

 Molecular mass:   249.07898 amu.
 Principal axes and moments of inertia in atomic units:
                           1         2         3
     Eigenvalues --  3724.257314858.923967714.16984
           X            0.99804  -0.06186   0.00968
           Y            0.06172   0.99798   0.01504
           Z           -0.01059  -0.01441   0.99984
 This molecule is an asymmetric top.
 Rotational symmetry number  1.
 Warning -- assumption of classical behavior for rotation
           may cause significant error
 Rotational temperatures (Kelvin)      0.02326     0.01783     0.01123
 Rotational constants (GHZ):           0.48459     0.37143     0.23395
 Zero-point vibrational energy     605889.7 (Joules/Mol)
                                  144.81112 (Kcal/Mol)
 Warning -- explicit consideration of  20 degrees of freedom as
           vibrations may cause significant error
 Vibrational temperatures:     53.17    87.92   120.13   136.88   199.82
          (Kelvin)            245.59   257.95   342.61   372.53   376.89
                              473.10   496.21   530.35   595.95   618.90
                              654.47   663.22   740.47   827.93   848.34
                              901.23   921.50   950.33   974.54   995.57
                             1032.54  1050.70  1092.27  1108.55  1123.71
                             1135.97  1147.15  1177.17  1223.35  1239.19
                             1276.17  1289.97  1326.56  1343.51  1378.77
                             1382.82  1423.16  1426.76  1474.42  1541.71
                             1552.61  1598.78  1616.84  1633.21  1725.56
                             1729.61  1731.95  1740.58  1812.32  1882.39
                             1896.64  1933.10  1957.40  1976.92  1993.92
                             2006.18  2108.45  2154.89  2172.56  2179.83
                             2199.07  2304.74  2329.82  2345.01  2378.08
                             2387.64  2407.79  2441.73  4581.88  4594.49
                             4594.98  4609.31  4615.49  4622.64  4628.53
                             4633.29  4675.06  4698.17  4712.09

 Zero-point correction=                           0.230771 (Hartree/Particle)
 Thermal correction to Energy=                    0.245036
 Thermal correction to Enthalpy=                  0.245980
 Thermal correction to Gibbs Free Energy=         0.189014
 Sum of electronic and zero-point Energies=           -821.248077
 Sum of electronic and thermal Energies=              -821.233813
 Sum of electronic and thermal Enthalpies=            -821.232869
 Sum of electronic and thermal Free Energies=         -821.289835

                     E (Thermal)             CV                S
                      KCal/Mol        Cal/Mol-Kelvin    Cal/Mol-Kelvin
 Total                  153.762             57.518            119.895
 Electronic               0.000              0.000              0.000
 Translational            0.889              2.981             42.438
 Rotational               0.889              2.981             33.301
 Vibrational            151.985             51.557             44.156
 Vibration     1          0.594              1.982              5.416
 Vibration     2          0.597              1.973              4.421
 Vibration     3          0.600              1.961              3.807
 Vibration     4          0.603              1.953              3.552
 Vibration     5          0.614              1.914              2.819
 Vibration     6          0.626              1.879              2.428
 Vibration     7          0.629              1.868              2.336
 Vibration     8          0.656              1.782              1.817
 Vibration     9          0.668              1.748              1.669
 Vibration    10          0.669              1.742              1.649
 Vibration    11          0.712              1.618              1.266
 Vibration    12          0.723              1.586              1.189
 Vibration    13          0.741              1.537              1.086
 Vibration    14          0.778              1.439              0.912
 Vibration    15          0.791              1.405              0.858
 Vibration    16          0.813              1.350              0.781
 Vibration    17          0.819              1.337              0.763
 Vibration    18          0.870              1.218              0.622
 Vibration    19          0.932              1.084              0.494
 Vibration    20          0.947              1.054              0.468

 Optimization completed.
    -- Stationary point found.
 Normal termination of Gaussian 16 at Mon Dec 14 14:05:02 2020.

 ----------------------------------------------------------------------
 # B3LYP/6-311++G(d,p) empiricaldispersion=gd3bj scf=xqc pop=npa geom=c
 heck
 ----------------------------------------------------------------------

 ---------------------------------------
 CID_154122907_JID_9566_Energie_neutraal
 ---------------------------------------
 Structure from the checkpoint file:  "JID_9566.chk"
 Charge =  0 Multiplicity = 1

 SCF Done:  E(RB3LYP) =  -821.692283345     A.U. after   17 cycles
 Normal termination of Gaussian 16 at Mon Dec 14 14:12:09 2020.

 ----------------------------------------------------------------------
 # B3LYP/6-311++G(d,p) empiricaldispersion=gd3bj scf=xqc pop=npa geom=c
 heck
 ----------------------------------------------------------------------

 -------------------------------------
 CID_154122907_JID_9566_Energie_kation
 -------------------------------------
 Structure from the checkpoint file:  "JID_9566.chk"
 Charge =  1 Multiplicity = 2

 SCF Done:  E(UB3LYP) =  -821.393217811     A.U. after   29 cycles
 Normal termination of Gaussian 16 at Mon Dec 14 14:30:10 2020.
 Gaussian 16:  ES64L-G16RevA.03 25-Dec-2016

 ----------------------------------------------------------------------
 # B3LYP/6-311++G(d,p) empiricaldispersion=gd3bj scf=xqc pop=npa geom=c
 heck
 ----------------------------------------------------------------------

 ------------------------------------
 CID_154122907_JID_9566_Energie_anion
 ------------------------------------
 Structure from the checkpoint file:  "JID_9566.chk"
 Charge = -1 Multiplicity = 2

                         Standard orientation:
 ---------------------------------------------------------------------
 Center     Atomic      Atomic             Coordinates (Angstroms)
 Number     Number       Type             X           Y           Z
 ---------------------------------------------------------------------
      1          6           0       -1.592386   -2.433039   -1.618226
      2          6           0        0.792778    1.979590   -0.222965
      3          6           0        0.249737    0.777344    0.083368
      4          6           0       -1.225509    0.733892    0.230097
      5          6           0       -1.960283    1.811733    0.746624
      6          6           0       -3.347267    1.754705    0.822011
      7          6           0       -4.020787    0.612450    0.381069
      8          6           0       -3.301999   -0.468589   -0.117712
      9          6           0       -1.903732   -0.427877   -0.198688
     10          6           0       -1.113143   -1.569845   -0.705736
     11          6           0        0.245933   -1.687266   -0.134696
     12          6           0        0.856423   -2.935221    0.048138
     13          6           0        2.107333   -3.034093    0.645813
     14          6           0        2.763769   -1.880945    1.085420
     15          6           0        2.179183   -0.635474    0.897587
     16          6           0        0.929313   -0.519140    0.272231
     17          7           0        2.165926    2.294511   -0.538957
     18          8           0        2.441258    3.500547   -0.515731
     19          8           0        2.962559    1.406288   -0.849608
     20          1           0       -0.989330   -3.250936   -1.997350
     21          1           0       -2.585104   -2.322926   -2.041233
     22          1           0        0.188088    2.870093   -0.307492
     23          1           0       -1.437670    2.686375    1.119995
     24          1           0       -3.900589    2.590843    1.238542
     25          1           0       -5.103151    0.556309    0.449238
     26          1           0       -3.824377   -1.370190   -0.420706
     27          1           0        0.323194   -3.833976   -0.244133
     28          1           0        2.560177   -4.010249    0.793079
     29          1           0        3.728331   -1.953636    1.578173
     30          1           0        2.692236    0.252685    1.241296
 ---------------------------------------------------------------------

 SCF Done:  E(UB3LYP) =  -821.750546100     A.U. after   25 cycles

 The electronic state is 2-A.
 Alpha  occ. eigenvalues --  -18.97050 -18.96989 -14.35798 -10.07735 -10.07317
 Alpha  occ. eigenvalues --  -10.07234 -10.07227 -10.07122 -10.06961 -10.06700
 Alpha  occ. eigenvalues --  -10.06675 -10.06556 -10.06469 -10.06242 -10.06160
 Alpha  occ. eigenvalues --  -10.05997 -10.05878 -10.05439 -10.05227  -1.04854
 Alpha  occ. eigenvalues --   -0.87615  -0.77368  -0.74424  -0.69951  -0.69709
 Alpha  occ. eigenvalues --   -0.64183  -0.63789  -0.63231  -0.61338  -0.55874
 Alpha  occ. eigenvalues --   -0.53151  -0.50271  -0.48636  -0.48106  -0.43802
 Alpha  occ. eigenvalues --   -0.42456  -0.41691  -0.39130  -0.37050  -0.36389
 Alpha  occ. eigenvalues --   -0.35731  -0.35469  -0.34805  -0.34153  -0.32628
 Alpha  occ. eigenvalues --   -0.31894  -0.31519  -0.31118  -0.28948  -0.28122
 Alpha  occ. eigenvalues --   -0.27235  -0.26680  -0.25604  -0.24130  -0.22962
 Alpha  occ. eigenvalues --   -0.21653  -0.20194  -0.19551  -0.15577  -0.14786
 Alpha  occ. eigenvalues --   -0.14461  -0.13722  -0.12746  -0.11907  -0.10873
 Alpha  occ. eigenvalues --   -0.00305
 Alpha virt. eigenvalues --    0.05689   0.07201   0.07908   0.08653   0.09251
 Alpha virt. eigenvalues --    0.09533   0.09586   0.10196   0.10666   0.11439
 Alpha virt. eigenvalues --    0.11825   0.12265   0.13129   0.13492   0.13790

  Beta  occ. eigenvalues --  -18.96756 -18.96542 -14.35485 -10.07786 -10.07314
  Beta  occ. eigenvalues --  -10.07257 -10.07183 -10.07103 -10.06869 -10.06652
  Beta  occ. eigenvalues --  -10.06593 -10.06545 -10.06308 -10.06282 -10.06083
  Beta  occ. eigenvalues --  -10.06020 -10.05588 -10.05376 -10.05047  -1.04182
  Beta  occ. eigenvalues --   -0.86922  -0.77179  -0.74340  -0.69665  -0.69426
  Beta  occ. eigenvalues --   -0.64062  -0.63349  -0.63057  -0.61159  -0.55229
  Beta  occ. eigenvalues --   -0.53060  -0.50118  -0.48562  -0.47837  -0.43664
  Beta  occ. eigenvalues --   -0.42251  -0.41463  -0.38824  -0.36301  -0.35847
  Beta  occ. eigenvalues --   -0.35502  -0.34896  -0.34494  -0.33837  -0.32497
  Beta  occ. eigenvalues --   -0.31681  -0.31387  -0.30909  -0.28778  -0.27849
  Beta  occ. eigenvalues --   -0.27125  -0.26586  -0.25403  -0.24055  -0.22834
  Beta  occ. eigenvalues --   -0.21529  -0.19767  -0.18616  -0.14686  -0.14030
  Beta  occ. eigenvalues --   -0.13347  -0.12916  -0.12207  -0.11548  -0.09634
  Beta virt. eigenvalues --    0.04967   0.06392   0.07198   0.07895   0.08652
  Beta virt. eigenvalues --    0.09560   0.10013   0.10171   0.10308   0.11254
  Beta virt. eigenvalues --    0.11556   0.12007   0.12298   0.13152   0.13617

 Mulliken charges and spin densities:
               1          2
     1  C   -0.644205   0.137820
     2  C   -0.932894   0.041200
     3  C    1.083377   0.195931
     4  C   -0.231357   0.007024
     5  C   -0.515741   0.054393
     6  C   -0.396695  -0.015945
     7  C   -0.502432   0.076168
     8  C   -0.416841  -0.026147
     9  C    0.299139   0.081899
    10  C    0.731086  -0.112438
    11  C    0.863905   0.090006
    12  C   -0.659006  -0.037891
    13  C   -0.350223   0.077468
    14  C   -0.299931  -0.029211
    15  C   -0.713530   0.070066
    16  C    0.784433   0.035305
    17  N   -0.347078   0.115651
    18  O   -0.096148   0.157124
    19  O   -0.107154   0.109780
    20  H    0.129312  -0.008011
    21  H    0.122450  -0.007838
    22  H    0.164353  -0.006869
    23  H    0.150073  -0.003511
    24  H    0.138897   0.001324
    25  H    0.126899  -0.005789
    26  H    0.112590   0.005584
    27  H    0.098408   0.004868
    28  H    0.125173  -0.005688
    29  H    0.141797   0.001282
    30  H    0.141344  -0.003557
 Sum of Mulliken charges =  -1.00000   1.00000

 Dipole moment (field-independent basis, Debye):
    X=             -6.0058    Y=             -4.7835    Z=              2.1467  Tot=              7.9724
 Quadrupole moment (field-independent basis, Debye-Ang):
   XX=           -146.3042   YY=           -141.8014   ZZ=           -121.5079
   XY=            -18.8658   XZ=              7.9866   YZ=              6.4687

 Summary of Natural Population Analysis:

                                       Natural Population
                Natural  -----------------------------------------------
    Atom  No    Charge         Core      Valence    Rydberg      Total
 -----------------------------------------------------------------------
      C    1   -0.13967      0.99950     2.13463    0.00554     3.13967
      C    2    0.00434      0.99939     1.98525    0.01102     2.99566
      C    3    0.03762      0.99938     1.95325    0.00975     2.96238
      C    4   -0.01012      0.99947     2.00016    0.01049     3.01012
      C    5   -0.08785      0.99953     2.07986    0.00846     3.08785
      C    6   -0.11375      0.99957     2.10510    0.00908     3.11375
      C    7   -0.09101      0.99957     2.08231    0.00913     3.09101
      C    8   -0.10564      0.99953     2.09817    0.00794     3.10564
      C    9   -0.00182      0.99944     1.99196    0.01042     3.00182
      C   10   -0.03132      0.99949     2.02264    0.00919     3.03132
      C   11   -0.00155      0.99945     1.99135    0.01075     3.00155
      C   12   -0.11177      0.99953     2.10411    0.00813     3.11177
      C   13   -0.08594      0.99957     2.07753    0.00884     3.08594
      C   14   -0.12020      0.99958     2.11136    0.00925     3.12020
      C   15   -0.05187      0.99944     2.04410    0.00832     3.05187
      C   16   -0.02260      0.99947     2.01153    0.01159     3.02260
      N   17    0.26418      0.99974     2.21007    0.02602     3.23582
      O   18   -0.18454      0.99990     3.17683    0.00781     4.18454
      O   19   -0.20229      0.99990     3.19280    0.00958     4.20229
      H   20    0.08912      0.00000     0.40977    0.00111     0.41088
      H   21    0.08743      0.00000     0.41143    0.00114     0.41257
      H   22    0.09691      0.00000     0.40174    0.00135     0.40309
      H   23    0.10482      0.00000     0.39439    0.00079     0.39518
      H   24    0.09490      0.00000     0.40412    0.00098     0.40510
      H   25    0.09296      0.00000     0.40607    0.00098     0.40704
      H   26    0.09789      0.00000     0.40057    0.00154     0.40211
      H   27    0.09693      0.00000     0.40156    0.00151     0.40307
      H   28    0.09202      0.00000     0.40698    0.00100     0.40798
      H   29    0.09542      0.00000     0.40362    0.00096     0.40458
      H   30    0.10750      0.00000     0.39083    0.00166     0.39250
 =======================================================================
   * Total *    0.00010     18.99147    45.80410    0.20432    64.99990

 Normal termination of Gaussian 16 at Mon Dec 14 14:45:52 2020.
