 Gaussian 16, Revision A.03,

 -----------------------------------------------------------
 # opt freq B3LYP/6-31G(d) empiricaldispersion=gd3bj scf=xqc
 -----------------------------------------------------------

 ------------------------------
 CID_43649077_JID_6520_neutraal
 ------------------------------
 Symbolic Z-matrix:
 Charge =  0 Multiplicity = 1

 SCF Done:  E(RB3LYP) =  -1153.77751488     A.U. after   15 cycles
 SCF Done:  E(RB3LYP) =  -1153.78404445     A.U. after   13 cycles
 SCF Done:  E(RB3LYP) =  -1153.78559633     A.U. after   13 cycles
 SCF Done:  E(RB3LYP) =  -1153.78576393     A.U. after   12 cycles
 SCF Done:  E(RB3LYP) =  -1153.78617510     A.U. after   12 cycles
 SCF Done:  E(RB3LYP) =  -1153.78651429     A.U. after   12 cycles
 SCF Done:  E(RB3LYP) =  -1153.78636823     A.U. after   13 cycles
 SCF Done:  E(RB3LYP) =  -1153.78681274     A.U. after   11 cycles
 SCF Done:  E(RB3LYP) =  -1153.78695561     A.U. after   11 cycles
 SCF Done:  E(RB3LYP) =  -1153.78696702     A.U. after   11 cycles
 SCF Done:  E(RB3LYP) =  -1153.78698740     A.U. after    9 cycles
 SCF Done:  E(RB3LYP) =  -1153.78698948     A.U. after    9 cycles
 SCF Done:  E(RB3LYP) =  -1153.78699036     A.U. after    9 cycles
 SCF Done:  E(RB3LYP) =  -1153.78699057     A.U. after    8 cycles
 Optimization completed.
    -- Stationary point found.
 Normal termination of Gaussian 16 at Thu Dec 10 23:23:33 2020.

 --------------------------------------------------------------------
 #N Geom=AllCheck Guess=TCheck SCRF=Check GenChk RB3LYP/6-31G(d) Freq
 --------------------------------------------------------------------

 Structure from the checkpoint file:  "JID_6520.chk"
 ------------------------------
 CID_43649077_JID_6520_neutraal
 ------------------------------
 Charge =  0 Multiplicity = 1

 SCF Done:  E(RB3LYP) =  -1153.78699057     A.U. after    1 cycles

  Exact polarizability: 122.080  19.064 132.359 -11.289   4.446 115.400
 Approx polarizability: 179.159  36.643 205.750 -34.695  12.145 215.410

                      1                      2                      3
                      A                      A                      A
 Frequencies --     29.8575                37.0971                51.1777
 Red. masses --     11.0996                 6.7180                 8.9602
 Frc consts  --      0.0058                 0.0054                 0.0138
 IR Inten    --      0.9253                 3.3135                 6.6775

                      4                      5                      6
                      A                      A                      A
 Frequencies --     78.3701                99.6583               121.7198
 Red. masses --      8.1226                 5.9866                 5.7174
 Frc consts  --      0.0294                 0.0350                 0.0499
 IR Inten    --      4.2574                11.7224                 0.9564

                      7                      8                      9
                      A                      A                      A
 Frequencies --    151.5984               181.3026               189.0720
 Red. masses --      4.6294                 2.8323                 4.8367
 Frc consts  --      0.0627                 0.0549                 0.1019
 IR Inten    --      0.5451                 0.3910                 1.7758

                     10                     11                     12
                      A                      A                      A
 Frequencies --    222.1070               288.9463               323.3858
 Red. masses --      3.5284                 3.1201                 4.7199
 Frc consts  --      0.1026                 0.1535                 0.2908
 IR Inten    --      1.6408                 5.3942                 5.2656

                     13                     14                     15
                      A                      A                      A
 Frequencies --    358.2599               396.9366               424.0482
 Red. masses --      3.0399                 5.7679                 8.8330
 Frc consts  --      0.2299                 0.5354                 0.9358
 IR Inten    --      2.2943                 8.4795                 0.5412

                     16                     17                     18
                      A                      A                      A
 Frequencies --    458.7715               493.9211               522.1955
 Red. masses --      5.5575                 5.0747                 5.5150
 Frc consts  --      0.6892                 0.7294                 0.8861
 IR Inten    --      8.1244                 5.5780                 6.1273

                     19                     20                     21
                      A                      A                      A
 Frequencies --    569.1956               584.9762               666.3571
 Red. masses --      2.3499                 1.8480                 3.2290
 Frc consts  --      0.4486                 0.3726                 0.8448
 IR Inten    --     44.0977                37.6983                10.5821

                     22                     23                     24
                      A                      A                      A
 Frequencies --    672.2837               676.0934               696.4786
 Red. masses --      4.1479                 4.4336                 6.6222
 Frc consts  --      1.1045                 1.1941                 1.8926
 IR Inten    --     23.6539                25.3200                 3.9585

                     25                     26                     27
                      A                      A                      A
 Frequencies --    710.7670               725.0218               728.2380
 Red. masses --      6.9584                 3.7448                 3.0265
 Frc consts  --      2.0712                 1.1598                 0.9457
 IR Inten    --      9.4430                33.3073                22.4361

                     28                     29                     30
                      A                      A                      A
 Frequencies --    781.2573               855.3704               866.1865
 Red. masses --      5.0290                 1.5132                 2.1078
 Frc consts  --      1.8085                 0.6523                 0.9318
 IR Inten    --     39.0795                13.5132                14.1504

                     31                     32                     33
                      A                      A                      A
 Frequencies --    904.3766               938.7536               972.9929
 Red. masses --      2.0196                 2.3286                 2.7473
 Frc consts  --      0.9732                 1.2091                 1.5324
 IR Inten    --     12.7782                11.9774                13.9586

                     34                     35                     36
                      A                      A                      A
 Frequencies --   1009.0781              1022.2888              1046.7019
 Red. masses --      5.9642                 2.7979                 1.7604
 Frc consts  --      3.5781                 1.7228                 1.1363
 IR Inten    --      2.7240                12.6785                12.7590

                     37                     38                     39
                      A                      A                      A
 Frequencies --   1053.4989              1079.4253              1133.6927
 Red. masses --      2.9469                 2.3761                 3.4121
 Frc consts  --      1.9270                 1.6312                 2.5838
 IR Inten    --     28.0033                22.8736                89.9756

                     40                     41                     42
                      A                      A                      A
 Frequencies --   1160.9822              1178.9957              1201.3999
 Red. masses --      2.6120                 1.7917                 1.3782
 Frc consts  --      2.0743                 1.4673                 1.1720
 IR Inten    --     35.1835               186.0799                 1.3106

                     43                     44                     45
                      A                      A                      A
 Frequencies --   1230.9739              1245.8118              1280.5043
 Red. masses --      1.4998                 1.9620                 1.9927
 Frc consts  --      1.3390                 1.7941                 1.9251
 IR Inten    --     64.6736                 1.6471                67.6333

                     46                     47                     48
                      A                      A                      A
 Frequencies --   1300.6250              1324.7514              1335.1844
 Red. masses --      2.3431                 1.8342                 3.0915
 Frc consts  --      2.3353                 1.8966                 3.2472
 IR Inten    --     35.7661                 4.1472                29.9164

                     49                     50                     51
                      A                      A                      A
 Frequencies --   1342.2737              1361.7692              1402.4625
 Red. masses --      1.4069                 1.7905                 1.2921
 Frc consts  --      1.4935                 1.9563                 1.4973
 IR Inten    --     66.3797                19.0319                13.0735

                     52                     53                     54
                      A                      A                      A
 Frequencies --   1403.4753              1438.0917              1451.0315
 Red. masses --      1.4383                 4.6204                 1.5905
 Frc consts  --      1.6692                 5.6299                 1.9730
 IR Inten    --     25.5529                50.1356                39.4432

                     55                     56                     57
                      A                      A                      A
 Frequencies --   1504.8506              1509.1020              1514.4878
 Red. masses --      1.7463                 1.4053                 1.1760
 Frc consts  --      2.3300                 1.8857                 1.5892
 IR Inten    --     31.6790                24.2988                 7.6386

                     58                     59                     60
                      A                      A                      A
 Frequencies --   1518.6253              1547.4860              1574.3677
 Red. masses --      1.3679                 1.1014                 5.6822
 Frc consts  --      1.8587                 1.5540                 8.2982
 IR Inten    --     13.5252                 4.5240                36.5202

                     61                     62                     63
                      A                      A                      A
 Frequencies --   1786.3212              1852.9794              3065.2281
 Red. masses --     11.3128                10.1449                 1.0601
 Frc consts  --     21.2685                20.5229                 5.8685
 IR Inten    --    321.3948               355.2725                19.1065

                     64                     65                     66
                      A                      A                      A
 Frequencies --   3086.9899              3095.3503              3114.6134
 Red. masses --      1.0624                 1.0667                 1.0985
 Frc consts  --      5.9652                 6.0218                 6.2784
 IR Inten    --     18.4691                11.3102                20.6813

                     67                     68                     69
                      A                      A                      A
 Frequencies --   3115.8447              3146.2305              3163.7244
 Red. masses --      1.0638                 1.1048                 1.1071
 Frc consts  --      6.0851                 6.4434                 6.5289
 IR Inten    --     17.3587                 5.5421                 4.9110

                     70                     71                     72
                      A                      A                      A
 Frequencies --   3187.8593              3316.7489              3700.3851
 Red. masses --      1.1043                 1.1006                 1.0642
 Frc consts  --      6.6121                 7.1333                 8.5852
 IR Inten    --      1.0262                 6.8197                73.7727

 - Thermochemistry -
 -------------------
 Temperature   298.150 Kelvin.  Pressure   1.00000 Atm.
 Atom     1 has atomic number  6 and mass  12.00000

 Molecular mass:   242.04736 amu.
 Principal axes and moments of inertia in atomic units:
                           1         2         3
     Eigenvalues --  2647.385924631.803355689.72584
           X            0.99938   0.02891   0.02004
           Y           -0.02834   0.99919  -0.02846
           Z           -0.02085   0.02788   0.99939
 This molecule is an asymmetric top.
 Rotational symmetry number  1.
 Warning -- assumption of classical behavior for rotation
           may cause significant error
 Rotational temperatures (Kelvin)      0.03272     0.01870     0.01522
 Rotational constants (GHZ):           0.68171     0.38964     0.31719
 Zero-point vibrational energy     517869.3 (Joules/Mol)
                                  123.77374 (Kcal/Mol)
 Warning -- explicit consideration of  20 degrees of freedom as
           vibrations may cause significant error
 Vibrational temperatures:     42.96    53.37    73.63   112.76   143.39
          (Kelvin)            175.13   218.12   260.85   272.03   319.56
                              415.73   465.28   515.46   571.10   610.11
                              660.07   710.64   751.32   818.95   841.65
                              958.74   967.27   972.75  1002.08  1022.64
                             1043.14  1047.77  1124.05  1230.69  1246.25
                             1301.20  1350.66  1399.92  1451.84  1470.85
                             1505.97  1515.75  1553.05  1631.13  1670.39
                             1696.31  1728.55  1771.10  1792.45  1842.36
                             1871.31  1906.02  1921.03  1931.23  1959.28
                             2017.83  2019.29  2069.09  2087.71  2165.14
                             2171.26  2179.01  2184.96  2226.49  2265.16
                             2570.12  2666.02  4410.18  4441.49  4453.52
                             4481.23  4483.01  4526.72  4551.89  4586.62
                             4772.06  5324.03

 Zero-point correction=                           0.197246 (Hartree/Particle)
 Thermal correction to Energy=                    0.211540
 Thermal correction to Enthalpy=                  0.212484
 Thermal correction to Gibbs Free Energy=         0.153848
 Sum of electronic and zero-point Energies=          -1153.589745
 Sum of electronic and thermal Energies=             -1153.575451
 Sum of electronic and thermal Enthalpies=           -1153.574506
 Sum of electronic and thermal Free Energies=        -1153.633143

                     E (Thermal)             CV                S
                      KCal/Mol        Cal/Mol-Kelvin    Cal/Mol-Kelvin
 Total                  132.743             52.532            123.410
 Electronic               0.000              0.000              0.000
 Translational            0.889              2.981             42.353
 Rotational               0.889              2.981             32.612
 Vibrational            130.966             46.571             48.445
 Vibration     1          0.594              1.984              5.839
 Vibration     2          0.594              1.982              5.408
 Vibration     3          0.595              1.977              4.771
 Vibration     4          0.600              1.964              3.931
 Vibration     5          0.604              1.949              3.461
 Vibration     6          0.609              1.931              3.073
 Vibration     7          0.619              1.901              2.652
 Vibration     8          0.630              1.865              2.315
 Vibration     9          0.633              1.855              2.237
 Vibration    10          0.648              1.807              1.942
 Vibration    11          0.686              1.694              1.480
 Vibration    12          0.708              1.629              1.293
 Vibration    13          0.733              1.558              1.130
 Vibration    14          0.763              1.477              0.974
 Vibration    15          0.786              1.418              0.878
 Vibration    16          0.817              1.341              0.770
 Vibration    17          0.850              1.264              0.673
 Vibration    18          0.877              1.201              0.605
 Vibration    19          0.925              1.098              0.506
 Vibration    20          0.942              1.064              0.476

                           ! Non-Optimized Parameters !
 Normal termination of Gaussian 16 at Thu Dec 10 23:32:12 2020.

 ----------------------------------------------------------------------
 # B3LYP/6-311++G(d,p) empiricaldispersion=gd3bj scf=xqc pop=npa geom=c
 heck
 ----------------------------------------------------------------------

 --------------------------------------
 CID_43649077_JID_6520_Energie_neutraal
 --------------------------------------
 Structure from the checkpoint file:  "JID_6520.chk"
 Charge =  0 Multiplicity = 1

 SCF Done:  E(RB3LYP) =  -1154.03373092     A.U. after   15 cycles
 Normal termination of Gaussian 16 at Thu Dec 10 23:35:21 2020.

 ----------------------------------------------------------------------
 # B3LYP/6-311++G(d,p) empiricaldispersion=gd3bj scf=xqc pop=npa geom=c
 heck
 ----------------------------------------------------------------------

 ------------------------------------
 CID_43649077_JID_6520_Energie_kation
 ------------------------------------
 Structure from the checkpoint file:  "JID_6520.chk"
 Charge =  1 Multiplicity = 2

 SCF Done:  E(UB3LYP) =  -1153.70088254     A.U. after   33 cycles
 SCF Done:  E(UB3LYP) =  -1153.70088254     a.u. after    1 cycles
 Normal termination of Gaussian 16 at Thu Dec 10 23:45:05 2020.
 Gaussian 16:  ES64L-G16RevA.03 25-Dec-2016

 ----------------------------------------------------------------------
 # B3LYP/6-311++G(d,p) empiricaldispersion=gd3bj scf=xqc pop=npa geom=c
 heck
 ----------------------------------------------------------------------

 -----------------------------------
 CID_43649077_JID_6520_Energie_anion
 -----------------------------------
 Structure from the checkpoint file:  "JID_6520.chk"
 Charge = -1 Multiplicity = 2

                         Standard orientation:
 ---------------------------------------------------------------------
 Center     Atomic      Atomic             Coordinates (Angstroms)
 Number     Number       Type             X           Y           Z
 ---------------------------------------------------------------------
      1          6           0        1.377885   -0.217282    1.606851
      2          6           0        1.767734   -1.697518    1.558482
      3         16           0        1.770838   -2.137454   -0.225194
      4          6           0        2.058600   -0.412707   -0.690844
      5          8           0        2.282394   -0.034216   -1.825651
      6          7           0        1.956016    0.395507    0.412117
      7          6           0        1.956097    1.840322    0.225726
      8          6           0        0.821043    2.340000   -0.689227
      9          7           0       -0.441724    1.714202   -0.334676
     10          6           0       -1.020881    0.628431   -0.886064
     11          6           0       -2.072549    0.336654   -0.035618
     12          7           0       -2.071337    1.247653    0.987054
     13          7           0       -1.085082    2.075311    0.813196
     14          6           0       -3.056722   -0.752729   -0.123493
     15          8           0       -3.922562   -0.998499    0.684495
     16          8           0       -2.864909   -1.482631   -1.256293
     17          1           0        1.783136    0.265848    2.500834
     18          1           0        0.287487   -0.101385    1.619364
     19          1           0        2.767265   -1.862591    1.968606
     20          1           0        1.049062   -2.319696    2.093628
     21          1           0        1.863705    2.296134    1.213474
     22          1           0        2.910356    2.149381   -0.212366
     23          1           0        0.709341    3.422593   -0.595431
     24          1           0        1.036387    2.081502   -1.724981
     25          1           0       -0.651790    0.156220   -1.782386
     26          1           0       -3.540093   -2.185716   -1.236760
 ---------------------------------------------------------------------

 SCF Done:  E(UB3LYP) =  -1154.03240891     A.U. after   33 cycles
 SCF Done:  E(UB3LYP) =  -1154.03240891     a.u. after    1 cycles

 The electronic state is 2-A.
 Alpha  occ. eigenvalues --  -88.76372 -19.05683 -19.01149 -18.98616 -14.29124
 Alpha  occ. eigenvalues --  -14.26314 -14.25978 -14.23045 -10.20390 -10.17690
 Alpha  occ. eigenvalues --  -10.12739 -10.12405 -10.12381 -10.12101 -10.09816
 Alpha  occ. eigenvalues --  -10.08855  -7.85043  -5.81390  -5.81071  -5.80447
 Alpha  occ. eigenvalues --   -0.99545  -0.98867  -0.96449  -0.90078  -0.86824
 Alpha  occ. eigenvalues --   -0.81646  -0.72810  -0.70525  -0.66342  -0.64293
 Alpha  occ. eigenvalues --   -0.58415  -0.57245  -0.53556  -0.50782  -0.48252
 Alpha  occ. eigenvalues --   -0.44466  -0.42992  -0.41871  -0.40184  -0.39298
 Alpha  occ. eigenvalues --   -0.37857  -0.36981  -0.36391  -0.34952  -0.34377
 Alpha  occ. eigenvalues --   -0.33883  -0.32580  -0.32366  -0.30666  -0.30299
 Alpha  occ. eigenvalues --   -0.29824  -0.29132  -0.28771  -0.24820  -0.23279
 Alpha  occ. eigenvalues --   -0.21635  -0.19406  -0.18431  -0.17218  -0.16863
 Alpha  occ. eigenvalues --   -0.16669  -0.15841  -0.15027   0.04109
 Alpha virt. eigenvalues --    0.05881   0.06807   0.07790   0.08222   0.09017
 Alpha virt. eigenvalues --    0.09286   0.09614   0.09983   0.10468   0.10741
 Alpha virt. eigenvalues --    0.11555   0.12878   0.12992   0.13926   0.14545

  Beta  occ. eigenvalues --  -88.76370 -19.05652 -19.01129 -18.98412 -14.29016
  Beta  occ. eigenvalues --  -14.26362 -14.25972 -14.23034 -10.20381 -10.17490
  Beta  occ. eigenvalues --  -10.12723 -10.12394 -10.12354 -10.12070 -10.09532
  Beta  occ. eigenvalues --  -10.08837  -7.85041  -5.81385  -5.81069  -5.80443
  Beta  occ. eigenvalues --   -0.99400  -0.98737  -0.96418  -0.89791  -0.86799
  Beta  occ. eigenvalues --   -0.81503  -0.72758  -0.70265  -0.66268  -0.64262
  Beta  occ. eigenvalues --   -0.58280  -0.56957  -0.53504  -0.50602  -0.48132
  Beta  occ. eigenvalues --   -0.44338  -0.42869  -0.41767  -0.40071  -0.39161
  Beta  occ. eigenvalues --   -0.37665  -0.36778  -0.36240  -0.34794  -0.34036
  Beta  occ. eigenvalues --   -0.33707  -0.32542  -0.31983  -0.30582  -0.30252
  Beta  occ. eigenvalues --   -0.29723  -0.28983  -0.28725  -0.24781  -0.23267
  Beta  occ. eigenvalues --   -0.20931  -0.18815  -0.18372  -0.17117  -0.16777
  Beta  occ. eigenvalues --   -0.16517  -0.15158  -0.14990
  Beta virt. eigenvalues --    0.06713   0.07347   0.07820   0.08455   0.08633
  Beta virt. eigenvalues --    0.09511   0.09783   0.10036   0.10330   0.10759
  Beta virt. eigenvalues --    0.10991   0.11794   0.13031   0.13184   0.14078

 Mulliken charges and spin densities:
               1          2
     1  C   -0.339104   0.190952
     2  C    0.296403  -1.195583
     3  S    0.256338   0.011018
     4  C   -0.153150  -0.040173
     5  O   -0.352897   0.020162
     6  N    0.203020   0.099103
     7  C    0.649061  -0.693215
     8  C   -0.151716  -0.250386
     9  N    0.329460   0.034006
    10  C   -0.121836   0.127812
    11  C   -0.094582  -0.031658
    12  N   -0.075577  -0.039288
    13  N   -0.198694   0.023922
    14  C   -0.240977   0.217901
    15  O   -0.341759   0.065110
    16  O   -0.211913   0.008221
    17  H   -0.449455   0.621018
    18  H    0.325072  -0.177011
    19  H   -0.246215   0.487800
    20  H    0.063708   0.126955
    21  H    0.077235   0.090026
    22  H   -0.522124   0.727013
    23  H   -0.293239   0.484387
    24  H    0.179010   0.046126
    25  H    0.154476   0.034928
    26  H    0.259453   0.010851
 Sum of Mulliken charges =  -1.00000   1.00000

 Dipole moment (field-independent basis, Debye):
    X=             -0.0358    Y=             -2.9262    Z=             -2.5502  Tot=              3.8817
 Quadrupole moment (field-independent basis, Debye-Ang):
   XX=           -164.8795   YY=           -130.5643   ZZ=           -131.9760
   XY=             -0.2473   XZ=              8.6386   YZ=             -0.9740

 Summary of Natural Population Analysis:

                                       Natural Population
                Natural  -----------------------------------------------
    Atom  No    Charge         Core      Valence    Rydberg      Total
 -----------------------------------------------------------------------
      C    1   -0.08432      0.99960     2.07269    0.01204     3.08432
      C    2   -0.24597      0.99960     2.23642    0.00995     3.24597
      S    3    0.09314      4.99956     2.89069    0.01661     7.90686
      C    4    0.27786      0.99965     1.69203    0.03047     2.72214
      O    5   -0.31650      0.99987     3.30975    0.00689     4.31650
      N    6   -0.26964      0.99962     2.75452    0.01550     3.76964
      C    7   -0.08518      0.99960     2.07324    0.01234     3.08518
      C    8   -0.09459      0.99960     2.08307    0.01192     3.09459
      N    9   -0.09808      0.99965     2.58509    0.01333     3.59808
      C   10    0.05418      0.99951     1.93593    0.01037     2.94582
      C   11   -0.02342      0.99950     2.01022    0.01370     3.02342
      N   12   -0.11563      0.99973     2.60188    0.01401     3.61563
      N   13   -0.06588      0.99978     2.54968    0.01642     3.56588
      C   14    0.40791      0.99967     1.56794    0.02449     2.59209
      O   15   -0.28923      0.99987     3.28362    0.00574     4.28923
      O   16   -0.35164      0.99988     3.34516    0.00660     4.35164
      H   17    0.10432      0.00000     0.39397    0.00171     0.39568
      H   18    0.10224      0.00000     0.39520    0.00256     0.39776
      H   19    0.10417      0.00000     0.39363    0.00219     0.39583
      H   20    0.10954      0.00000     0.38943    0.00103     0.39046
      H   21    0.10558      0.00000     0.39296    0.00146     0.39442
      H   22    0.10944      0.00000     0.38833    0.00222     0.39056
      H   23    0.10906      0.00000     0.38937    0.00158     0.39094
      H   24    0.11428      0.00000     0.38455    0.00118     0.38572
      H   25    0.11520      0.00000     0.38348    0.00132     0.38480
      H   26    0.23317      0.00000     0.26276    0.00407     0.26683
 =======================================================================
   * Total *   -0.00000     19.99470    42.76560    0.23971    63.00000

 Normal termination of Gaussian 16 at Thu Dec 10 23:55:03 2020.
