 Gaussian 16, Revision A.03,

 -----------------------------------------------------------
 # opt freq B3LYP/6-31G(d) empiricaldispersion=gd3bj scf=xqc
 -----------------------------------------------------------

 -------------------------------
 CID_144266726_JID_2541_neutraal
 -------------------------------
 Symbolic Z-matrix:
 Charge =  0 Multiplicity = 1

 SCF Done:  E(RB3LYP) =  -578.267673139     A.U. after   14 cycles
 SCF Done:  E(RB3LYP) =  -578.271065951     A.U. after   11 cycles
 SCF Done:  E(RB3LYP) =  -578.272875828     A.U. after   11 cycles
 SCF Done:  E(RB3LYP) =  -578.273730946     A.U. after   12 cycles
 SCF Done:  E(RB3LYP) =  -578.275781367     A.U. after   12 cycles
 SCF Done:  E(RB3LYP) =  -578.276439860     A.U. after   10 cycles
 SCF Done:  E(RB3LYP) =  -578.277617395     A.U. after   12 cycles
 SCF Done:  E(RB3LYP) =  -578.278303601     A.U. after   12 cycles
 SCF Done:  E(RB3LYP) =  -578.279313166     A.U. after   11 cycles
 SCF Done:  E(RB3LYP) =  -578.280222458     A.U. after   12 cycles
 SCF Done:  E(RB3LYP) =  -578.281500695     A.U. after    7 cycles
 SCF Done:  E(RB3LYP) =  -578.281500783     A.U. after    7 cycles
 SCF Done:  E(RB3LYP) =  -578.281500894     A.U. after    8 cycles
 SCF Done:  E(RB3LYP) =  -578.281500940     A.U. after    7 cycles
 SCF Done:  E(RB3LYP) =  -578.281500974     A.U. after    7 cycles
 Optimization completed.
    -- Stationary point found.

 1\1\GINC-NODE201\FOpt\RB3LYP\6-31G(d)\C9H16O3\VSC10255\09-Dec-2020\0\\
 # opt freq B3LYP/6-31G(d) empiricaldispersion=gd3bj scf=xqc\\CID_14426
 6726_JID_2541_neutraal\\0,1\C,2.7963068459,0.309490421,0.2692165723\C,
 1.2984168029,0.176376438,0.1414750711\C,0.699419144,-1.0730078524,-0.0
 935021675\C,-0.6791472142,-1.2085732879,-0.1916430327\C,-1.5104927521,
 -0.0862973292,-0.0612323359\C,-0.9381921027,1.167036923,0.1753406626\C
 ,0.4527046944,1.2825195086,0.2750897606\O,-2.8466482613,-0.3179297364,
 -0.2002443305\C,-3.7330207934,0.7936192602,-0.0531153538\C,0.420407217

 Normal termination of Gaussian 16 at Wed Dec  9 17:58:25 2020.

 --------------------------------------------------------------------
 #N Geom=AllCheck Guess=TCheck SCRF=Check GenChk RB3LYP/6-31G(d) Freq
 --------------------------------------------------------------------

 Structure from the checkpoint file:  "JID_2541.chk"
 -------------------------------
 CID_144266726_JID_2541_neutraal
 -------------------------------
 Charge =  0 Multiplicity = 1

 SCF Done:  E(RB3LYP) =  -578.281500974     A.U. after    1 cycles

  Exact polarizability: 140.478  -6.413  77.671  -0.217   7.654  99.738
 Approx polarizability: 201.277  -9.346 102.990   2.824  13.798 172.134

                      1                      2                      3
                      A                      A                      A
 Frequencies --     24.7345                40.7445                45.9641
 Red. masses --      4.7793                 4.0402                 3.2044
 Frc consts  --      0.0017                 0.0040                 0.0040
 IR Inten    --      4.1594                 1.7901                 0.4228

                      4                      5                      6
                      A                      A                      A
 Frequencies --     49.8025                72.5075                78.8885
 Red. masses --      1.0481                 2.2782                 2.5122
 Frc consts  --      0.0015                 0.0071                 0.0092
 IR Inten    --      0.2435                 1.0535                 5.4494

                      7                      8                      9
                      A                      A                      A
 Frequencies --    104.0362               127.3253               139.9136
 Red. masses --      2.4634                 2.0818                 3.6375
 Frc consts  --      0.0157                 0.0199                 0.0420
 IR Inten    --      1.3735                 4.4817                 0.5158

                     10                     11                     12
                      A                      A                      A
 Frequencies --    156.0776               173.0842               231.0403
 Red. masses --      4.3066                 3.3311                 2.9839
 Frc consts  --      0.0618                 0.0588                 0.0938
 IR Inten    --     11.6083                24.8911                 1.2979

                     13                     14                     15
                      A                      A                      A
 Frequencies --    237.2771               267.5755               342.7092
 Red. masses --      5.5138                 1.1782                 2.7550
 Frc consts  --      0.1829                 0.0497                 0.1906
 IR Inten    --      6.2208                 5.9063                 9.8430

                     16                     17                     18
                      A                      A                      A
 Frequencies --    346.5391               402.6306               423.2735
 Red. masses --      3.0626                 1.1300                 1.8579
 Frc consts  --      0.2167                 0.1079                 0.1961
 IR Inten    --     14.2483                91.6606                18.1910

                     19                     20                     21
                      A                      A                      A
 Frequencies --    426.7138               435.7843               515.2423
 Red. masses --      3.0149                 1.5816                 1.2317
 Frc consts  --      0.3234                 0.1770                 0.1926
 IR Inten    --      2.0531                39.5214                83.2247

                     22                     23                     24
                      A                      A                      A
 Frequencies --    532.2810               533.6697               655.7894
 Red. masses --      2.6901                 2.4430                 6.7613
 Frc consts  --      0.4491                 0.4099                 1.7132
 IR Inten    --     12.4699                40.8540                 0.2140

                     25                     26                     27
                      A                      A                      A
 Frequencies --    707.5330               717.7293               734.2664
 Red. masses --      3.5741                 1.0549                 4.0145
 Frc consts  --      1.0542                 0.3202                 1.2752
 IR Inten    --      0.0297               104.7672                14.9543

                     28                     29                     30
                      A                      A                      A
 Frequencies --    830.0450               842.1379               846.8504
 Red. masses --      1.4167                 1.4314                 4.7963
 Frc consts  --      0.5751                 0.5981                 2.0266
 IR Inten    --     28.9306                23.7274                 3.3825

                     31                     32                     33
                      A                      A                      A
 Frequencies --    941.0263               962.4631              1019.0630
 Red. masses --      1.2498                 1.3039                 1.4619
 Frc consts  --      0.6520                 0.7117                 0.8945
 IR Inten    --      0.1419                 0.5455                 4.5399

                     34                     35                     36
                      A                      A                      A
 Frequencies --   1036.5703              1062.7120              1069.2602
 Red. masses --      2.6515                 5.6566                 4.0755
 Frc consts  --      1.6786                 3.7639                 2.7453
 IR Inten    --      0.1430                49.4268                93.9455

                     37                     38                     39
                      A                      A                      A
 Frequencies --   1075.7892              1096.5151              1149.6398
 Red. masses --      1.5199                 1.2436                 1.2672
 Frc consts  --      1.0364                 0.8809                 0.9868
 IR Inten    --      5.9130                 0.4872                 8.8282

                     40                     41                     42
                      A                      A                      A
 Frequencies --   1189.4907              1191.6546              1212.9753
 Red. masses --      1.2699                 1.2673                 1.1576
 Frc consts  --      1.0586                 1.0603                 1.0035
 IR Inten    --      0.4248                 0.3777                14.6565

                     43                     44                     45
                      A                      A                      A
 Frequencies --   1222.6986              1245.9029              1299.3551
 Red. masses --      1.3782                 3.0685                 4.3711
 Frc consts  --      1.2140                 2.8064                 4.3481
 IR Inten    --      9.0796                 0.9978               205.4120

                     46                     47                     48
                      A                      A                      A
 Frequencies --   1348.6837              1361.2437              1393.9496
 Red. masses --      1.3742                 5.6861                 1.2791
 Frc consts  --      1.4727                 6.2078                 1.4644
 IR Inten    --      6.3335                37.5792                 9.2151

                     49                     50                     51
                      A                      A                      A
 Frequencies --   1446.0578              1463.5351              1491.9437
 Red. masses --      1.2430                 2.7053                 1.1778
 Frc consts  --      1.5314                 3.4141                 1.5447
 IR Inten    --      0.0913                 1.8144                12.0434

                     52                     53                     54
                      A                      A                      A
 Frequencies --   1503.2764              1516.9535              1521.5243
 Red. masses --      1.1359                 1.0474                 1.0529
 Frc consts  --      1.5124                 1.4201                 1.4361
 IR Inten    --      1.6877                 5.0991                 0.8700

                     55                     56                     57
                      A                      A                      A
 Frequencies --   1521.8113              1526.3210              1538.5791
 Red. masses --      1.0495                 1.1052                 1.0479
 Frc consts  --      1.4321                 1.5169                 1.4615
 IR Inten    --     10.3533                 5.8634                 6.5385

                     58                     59                     60
                      A                      A                      A
 Frequencies --   1541.2860              1567.9911              1633.5795
 Red. masses --      1.0546                 2.5323                 5.9291
 Frc consts  --      1.4761                 3.6682                 9.3222
 IR Inten    --     16.4678               127.5692                11.8215

                     61                     62                     63
                      A                      A                      A
 Frequencies --   1676.4769              1752.3378              3023.0781
 Red. masses --      5.7458                 1.0749                 1.0349
 Frc consts  --      9.5148                 1.9446                 5.5727
 IR Inten    --     41.8504               137.7374                38.9944

                     64                     65                     66
                      A                      A                      A
 Frequencies --   3043.1977              3044.7314              3076.3699
 Red. masses --      1.0393                 1.0356                 1.1059
 Frc consts  --      5.6709                 5.6563                 6.1666
 IR Inten    --     42.7577                45.9663                46.3313

                     67                     68                     69
                      A                      A                      A
 Frequencies --   3098.2650              3126.9544              3128.2610
 Red. masses --      1.0980                 1.1018                 1.1032
 Frc consts  --      6.2098                 6.3476                 6.3610
 IR Inten    --     19.6353                15.1532                11.2820

                     70                     71                     72
                      A                      A                      A
 Frequencies --   3146.7541              3170.0490              3183.9136
 Red. masses --      1.0997                 1.1040                 1.0888
 Frc consts  --      6.4158                 6.5364                 6.5032
 IR Inten    --     35.9038                20.3698                13.1560

                     73                     74                     75
                      A                      A                      A
 Frequencies --   3187.1039              3214.4774              3240.4303
 Red. masses --      1.0896                 1.0932                 1.0912
 Frc consts  --      6.5210                 6.6553                 6.7508
 IR Inten    --     12.8852                 5.1820                 5.0944

                     76                     77                     78
                      A                      A                      A
 Frequencies --   3582.1885              3714.1377              3796.4424
 Red. masses --      1.0563                 1.0656                 1.0708
 Frc consts  --      7.9864                 8.6610                 9.0934
 IR Inten    --    247.9147               191.0304                45.9602

 - Thermochemistry -
 -------------------
 Temperature   298.150 Kelvin.  Pressure   1.00000 Atm.
 Atom     1 has atomic number  6 and mass  12.00000

 Molecular mass:   172.10994 amu.
 Principal axes and moments of inertia in atomic units:
                           1         2         3
     Eigenvalues --  1737.077022654.673193543.23617
           X            0.99970  -0.02360  -0.00691
           Y            0.02388   0.99881   0.04252
           Z            0.00589  -0.04268   0.99907
 This molecule is an asymmetric top.
 Rotational symmetry number  1.
 Warning -- assumption of classical behavior for rotation
           may cause significant error
 Rotational temperatures (Kelvin)      0.04986     0.03263     0.02444
 Rotational constants (GHZ):           1.03895     0.67984     0.50935
 Zero-point vibrational energy     630427.1 (Joules/Mol)
                                  150.67570 (Kcal/Mol)
 Warning -- explicit consideration of  23 degrees of freedom as
           vibrations may cause significant error
 Vibrational temperatures:     35.59    58.62    66.13    71.65   104.32
          (Kelvin)            113.50   149.68   183.19   201.30   224.56
                              249.03   332.42   341.39   384.98   493.08
                              498.59   579.30   609.00   613.95   627.00
                              741.32   765.83   767.83   943.53  1017.98
                             1032.65  1056.45  1194.25  1211.65  1218.43
                             1353.93  1384.77  1466.20  1491.39  1529.01
                             1538.43  1547.82  1577.64  1654.08  1711.41
                             1714.53  1745.20  1759.19  1792.58  1869.48
                             1940.45  1958.53  2005.58  2080.55  2105.70
                             2146.57  2162.88  2182.56  2189.13  2189.55
                             2196.04  2213.67  2217.57  2255.99  2350.36
                             2412.08  2521.22  4349.54  4378.48  4380.69
                             4426.21  4457.71  4498.99  4500.87  4527.48
                             4560.99  4580.94  4585.53  4624.92  4662.26
                             5153.97  5343.82  5462.23

 Zero-point correction=                           0.240117 (Hartree/Particle)
 Thermal correction to Energy=                    0.256339
 Thermal correction to Enthalpy=                  0.257284
 Thermal correction to Gibbs Free Energy=         0.194649
 Sum of electronic and zero-point Energies=           -578.041384
 Sum of electronic and thermal Energies=              -578.025162
 Sum of electronic and thermal Enthalpies=            -578.024217
 Sum of electronic and thermal Free Energies=         -578.086852

                     E (Thermal)             CV                S
                      KCal/Mol        Cal/Mol-Kelvin    Cal/Mol-Kelvin
 Total                  160.855             55.575            131.826
 Electronic               0.000              0.000              0.000
 Translational            0.889              2.981             41.336
 Rotational               0.889              2.981             31.169
 Vibrational            159.078             49.613             59.320
 Vibration     1          0.593              1.985              6.212
 Vibration     2          0.594              1.981              5.223
 Vibration     3          0.595              1.979              4.984
 Vibration     4          0.595              1.978              4.825
 Vibration     5          0.599              1.967              4.084
 Vibration     6          0.600              1.963              3.918
 Vibration     7          0.605              1.946              3.377
 Vibration     8          0.611              1.926              2.986
 Vibration     9          0.615              1.913              2.805
 Vibration    10          0.620              1.896              2.597
 Vibration    11          0.627              1.876              2.402
 Vibration    12          0.653              1.794              1.871
 Vibration    13          0.656              1.784              1.823
 Vibration    14          0.673              1.733              1.612
 Vibration    15          0.722              1.590              1.200
 Vibration    16          0.725              1.582              1.182
 Vibration    17          0.768              1.464              0.953
 Vibration    18          0.785              1.420              0.881
 Vibration    19          0.788              1.412              0.869
 Vibration    20          0.796              1.392              0.840
 Vibration    21          0.870              1.216              0.621
 Vibration    22          0.887              1.179              0.582
 Vibration    23          0.889              1.176              0.579

                           ! Non-Optimized Parameters !

 1\1\GINC-NODE201\Freq\RB3LYP\6-31G(d)\C9H16O3\VSC10255\09-Dec-2020\0\\
 #N Geom=AllCheck Guess=TCheck SCRF=Check GenChk RB3LYP/6-31G(d) Freq\\
 CID_144266726_JID_2541_neutraal\\0,1\C,2.7963068459,0.309490421,0.2692
 165723\C,1.2984168029,0.176376438,0.1414750711\C,0.699419144,-1.073007
 8524,-0.0935021675\C,-0.6791472142,-1.2085732879,-0.1916430327\C,-1.51
 04927521,-0.0862973292,-0.0612323359\C,-0.9381921027,1.167036923,0.175
 3406626\C,0.4527046944,1.2825195086,0.2750897606\O,-2.8466482613,-0.31
 79297364,-0.2002443305\C,-3.7330207934,0.7936192602,-0.0531153538\C,0.

 Normal termination of Gaussian 16 at Wed Dec  9 18:05:34 2020.

 ----------------------------------------------------------------------
 # B3LYP/6-311++G(d,p) empiricaldispersion=gd3bj scf=xqc pop=npa geom=c
 heck
 ----------------------------------------------------------------------

 ---------------------------------------
 CID_144266726_JID_2541_Energie_neutraal
 ---------------------------------------
 Structure from the checkpoint file:  "JID_2541.chk"
 Charge =  0 Multiplicity = 1

 SCF Done:  E(RB3LYP) =  -578.477550611     A.U. after   14 cycles
 Normal termination of Gaussian 16 at Wed Dec  9 18:08:43 2020.

 ----------------------------------------------------------------------
 # B3LYP/6-311++G(d,p) empiricaldispersion=gd3bj scf=xqc pop=npa geom=c
 heck
 ----------------------------------------------------------------------

 -------------------------------------
 CID_144266726_JID_2541_Energie_kation
 -------------------------------------
 Structure from the checkpoint file:  "JID_2541.chk"
 Charge =  1 Multiplicity = 2

 SCF Done:  E(UB3LYP) =  -578.171863725     A.U. after   23 cycles
 Normal termination of Gaussian 16 at Wed Dec  9 18:15:44 2020.
 Gaussian 16:  ES64L-G16RevA.03 25-Dec-2016

 ------------------------------------
 CID_144266726_JID_2541_Energie_anion
 ------------------------------------
 Structure from the checkpoint file:  "JID_2541.chk"
 Charge = -1 Multiplicity = 2

                         Standard orientation:
 ---------------------------------------------------------------------
 Center     Atomic      Atomic             Coordinates (Angstroms)
 Number     Number       Type             X           Y           Z
 ---------------------------------------------------------------------
      1          6           0       -3.513544   -0.671723   -0.346675
      2          6           0       -2.027999   -0.764917   -0.097312
      3          6           0       -1.497571   -0.592447    1.192601
      4          6           0       -0.134274   -0.697116    1.435341
      5          6           0        0.751241   -0.975794    0.383748
      6          6           0        0.247191   -1.153901   -0.907977
      7          6           0       -1.130033   -1.048520   -1.131652
      8          8           0        2.071535   -1.031511    0.718425
      9          6           0        3.007967   -1.334643   -0.317938
     10          6           0       -0.648169    2.794814    0.496375
     11          8           0       -0.354844    2.155264   -0.740553
     12          8           0        2.426882    1.751477   -0.398567
     13          1           0       -4.028024   -1.591845   -0.040570
     14          1           0       -3.964254    0.152718    0.216964
     15          1           0       -3.730182   -0.512130   -1.407503
     16          1           0       -2.167393   -0.368353    2.019183
     17          1           0        0.272785   -0.558811    2.431919
     18          1           0        0.909508   -1.346570   -1.742523
     19          1           0       -1.506896   -1.180577   -2.142747
     20          1           0        2.782491   -2.304755   -0.777099
     21          1           0        3.014250   -0.535757   -1.065495
     22          1           0        3.980391   -1.382299    0.173965
     23          1           0       -0.277406    3.819373    0.418603
     24          1           0       -0.152071    2.302805    1.343465
     25          1           0       -1.728989    2.823368    0.690619
     26          1           0       -0.729928    1.258800   -0.713756
     27          1           0        1.495583    1.901733   -0.662944
     28          1           0        2.352708    1.185944    0.384419
 ---------------------------------------------------------------------

 SCF Done:  E(UB3LYP) =  -578.464489134     A.U. after   33 cycles
 SCF Done:  E(UB3LYP) =  -578.464489134     a.u. after    1 cycles

 The electronic state is 2-A.
 Alpha  occ. eigenvalues --  -19.06568 -19.03384 -19.00031 -10.14296 -10.12657
 Alpha  occ. eigenvalues --  -10.11616 -10.08756 -10.08272 -10.08203 -10.08086
 Alpha  occ. eigenvalues --  -10.07962 -10.06746  -0.98011  -0.93293  -0.88735
 Alpha  occ. eigenvalues --   -0.76731  -0.68309  -0.66028  -0.62422  -0.59043
 Alpha  occ. eigenvalues --   -0.57331  -0.52238  -0.48854  -0.44302  -0.42396
 Alpha  occ. eigenvalues --   -0.41004  -0.39827  -0.37794  -0.37421  -0.35230
 Alpha  occ. eigenvalues --   -0.34929  -0.33750  -0.33332  -0.33106  -0.32326
 Alpha  occ. eigenvalues --   -0.29076  -0.28839  -0.27226  -0.26978  -0.26359
 Alpha  occ. eigenvalues --   -0.24980  -0.23897  -0.22668  -0.19603  -0.19141
 Alpha  occ. eigenvalues --   -0.16735  -0.13177   0.04345
 Alpha virt. eigenvalues --    0.06292   0.06996   0.07151   0.07962   0.08513
 Alpha virt. eigenvalues --    0.08915   0.09009   0.10328   0.10644   0.11276
 Alpha virt. eigenvalues --    0.11508   0.11893   0.12801   0.13111   0.14545

  Beta  occ. eigenvalues --  -19.06558 -19.03374 -19.00025 -10.14299 -10.12629
  Beta  occ. eigenvalues --  -10.11590 -10.08762 -10.08243 -10.08183 -10.08050
  Beta  occ. eigenvalues --  -10.07941 -10.06700  -0.97991  -0.93278  -0.88719
  Beta  occ. eigenvalues --   -0.76697  -0.68276  -0.65974  -0.62373  -0.58987
  Beta  occ. eigenvalues --   -0.57257  -0.52161  -0.48809  -0.44258  -0.42364
  Beta  occ. eigenvalues --   -0.40984  -0.39792  -0.37770  -0.37356  -0.35175
  Beta  occ. eigenvalues --   -0.34905  -0.33722  -0.33295  -0.33062  -0.32280
  Beta  occ. eigenvalues --   -0.29027  -0.28809  -0.27203  -0.26923  -0.26308
  Beta  occ. eigenvalues --   -0.24958  -0.23858  -0.22628  -0.19592  -0.19123
  Beta  occ. eigenvalues --   -0.16644  -0.13138
  Beta virt. eigenvalues --    0.06618   0.07282   0.07341   0.07760   0.08384
  Beta virt. eigenvalues --    0.09080   0.09244   0.09727   0.10844   0.11052
  Beta virt. eigenvalues --    0.11478   0.11834   0.12311   0.13187   0.13448

 Mulliken charges and spin densities:
               1          2
     1  C    4.210464  -4.821644
     2  C   -0.694538   1.072035
     3  C   -0.693293   0.708236
     4  C   -1.223601   0.906693
     5  C    0.160620  -0.984320
     6  C    0.380338  -0.004756
     7  C   -0.246625  -0.157996
     8  O   -0.137484   0.013761
     9  C    0.472960  -0.809434
    10  C    0.235214  -0.573397
    11  O   -0.381023   0.009329
    12  O   -0.480995  -0.019534
    13  H   -0.077996   0.239881
    14  H   -0.239191   0.389242
    15  H   -0.405490   0.558725
    16  H   -0.965615   1.167753
    17  H   -0.366518   0.554708
    18  H   -0.277916   0.480397
    19  H   -0.681631   0.862622
    20  H   -0.267832   0.412126
    21  H    0.173456   0.022461
    22  H   -0.259424   0.423824
    23  H    0.079626   0.069404
    24  H   -0.051846   0.216505
    25  H   -0.187593   0.325578
    26  H    0.375172  -0.066347
    27  H    0.269747   0.042303
    28  H    0.281014  -0.038154
 Sum of Mulliken charges =  -1.00000   1.00000

 Dipole moment (field-independent basis, Debye):
    X=              3.1010    Y=              0.4113    Z=              0.4194  Tot=              3.1562
 Quadrupole moment (field-independent basis, Debye-Ang):
   XX=           -142.9393   YY=           -115.9412   ZZ=           -116.1247
   XY=             -2.3301   XZ=              4.7842   YZ=             -1.2767

 Summary of Natural Population Analysis:

                                       Natural Population
                Natural  -----------------------------------------------
    Atom  No    Charge         Core      Valence    Rydberg      Total
 -----------------------------------------------------------------------
      C    1   -0.29189      0.99963     2.28589    0.00637     3.29189
      C    2   -0.04025      0.99951     2.02885    0.01188     3.04025
      C    3   -0.09223      0.99951     2.08164    0.01108     3.09223
      C    4   -0.11816      0.99952     2.10690    0.01174     3.11816
      C    5    0.15163      0.99937     1.83379    0.01521     2.84837
      C    6   -0.14180      0.99951     2.13202    0.01027     3.14180
      C    7   -0.10043      0.99952     2.09002    0.01089     3.10043
      O    8   -0.28026      0.99986     3.27013    0.01027     4.28026
      C    9   -0.10787      0.99959     2.09947    0.00881     3.10787
      C   10   -0.10166      0.99964     2.09144    0.01058     3.10166
      O   11   -0.37845      0.99989     3.37189    0.00666     4.37845
      O   12   -0.48078      0.99991     3.47573    0.00514     4.48078
      H   13    0.10563      0.00000     0.39310    0.00127     0.39437
      H   14    0.10588      0.00000     0.39231    0.00181     0.39412
      H   15    0.10397      0.00000     0.39442    0.00161     0.39603
      H   16    0.10583      0.00000     0.39182    0.00235     0.39417
      H   17    0.10757      0.00000     0.39097    0.00145     0.39243
      H   18    0.10963      0.00000     0.38887    0.00150     0.39037
      H   19    0.10493      0.00000     0.39368    0.00139     0.39507
      H   20    0.08580      0.00000     0.41270    0.00150     0.41420
      H   21    0.09899      0.00000     0.39969    0.00131     0.40101
      H   22    0.09275      0.00000     0.40627    0.00099     0.40725
      H   23    0.08480      0.00000     0.41438    0.00083     0.41520
      H   24    0.08087      0.00000     0.41776    0.00137     0.41913
      H   25    0.08235      0.00000     0.41641    0.00123     0.41765
      H   26    0.24271      0.00000     0.25269    0.00460     0.25729
      H   27    0.24147      0.00000     0.25535    0.00318     0.25853
      H   28    0.22896      0.00000     0.26828    0.00275     0.27104
 =======================================================================
   * Total *    0.00000     11.99548    34.85646    0.14806    47.00000

 Normal termination of Gaussian 16 at Wed Dec  9 18:25:47 2020.
