 Gaussian 16, Revision A.03,

 -----------------------------------------------------------
 # opt freq B3LYP/6-31G(d) empiricaldispersion=gd3bj scf=xqc
 -----------------------------------------------------------

 -------------------------------
 CID_123404722_JID_2855_neutraal
 -------------------------------
 Symbolic Z-matrix:
 Charge =  0 Multiplicity = 1

 SCF Done:  E(RB3LYP) =  -468.160787855     A.U. after   13 cycles
 SCF Done:  E(RB3LYP) =  -468.163112103     A.U. after   11 cycles
 SCF Done:  E(RB3LYP) =  -468.163742207     A.U. after   11 cycles
 SCF Done:  E(RB3LYP) =  -468.164103235     A.U. after   11 cycles
 SCF Done:  E(RB3LYP) =  -468.164171809     A.U. after   10 cycles
 SCF Done:  E(RB3LYP) =  -468.164201527     A.U. after   10 cycles
 SCF Done:  E(RB3LYP) =  -468.164203555     A.U. after    7 cycles
 SCF Done:  E(RB3LYP) =  -468.164204203     A.U. after    7 cycles
 Optimization completed.
    -- Stationary point found.
 Normal termination of Gaussian 16 at Wed Dec  9 18:05:17 2020.

 --------------------------------------------------------------------
 #N Geom=AllCheck Guess=TCheck SCRF=Check GenChk RB3LYP/6-31G(d) Freq
 --------------------------------------------------------------------

 Structure from the checkpoint file:  "JID_2855.chk"
 -------------------------------
 CID_123404722_JID_2855_neutraal
 -------------------------------
 Charge =  0 Multiplicity = 1

 SCF Done:  E(RB3LYP) =  -468.164204203     A.U. after    1 cycles

  Exact polarizability: 141.447   0.001 143.412   0.000   1.845  87.092
 Approx polarizability: 195.269   0.001 199.854   0.001   5.184 136.328

                      1                      2                      3
                      A                      A                      A
 Frequencies --     88.3689                95.9392               110.4765
 Red. masses --      1.8034                 2.4908                 1.0276
 Frc consts  --      0.0083                 0.0135                 0.0074
 IR Inten    --      0.0533                 0.0307                 0.0495

                      4                      5                      6
                      A                      A                      A
 Frequencies --    111.8815               117.1713               190.6977
 Red. masses --      1.2740                 2.3960                 2.0986
 Frc consts  --      0.0094                 0.0194                 0.0450
 IR Inten    --      0.3066                 0.7022                 0.0229

                      7                      8                      9
                      A                      A                      A
 Frequencies --    261.4542               281.4259               305.7037
 Red. masses --      2.3072                 2.8361                 2.2660
 Frc consts  --      0.0929                 0.1323                 0.1248
 IR Inten    --      2.9731                 0.8161                 0.0569

                     10                     11                     12
                      A                      A                      A
 Frequencies --    324.7002               350.2393               428.4253
 Red. masses --      1.8984                 2.3918                 3.7444
 Frc consts  --      0.1179                 0.1729                 0.4049
 IR Inten    --      0.6608                 0.4437                 1.0342

                     13                     14                     15
                      A                      A                      A
 Frequencies --    439.2462               447.8467               456.7424
 Red. masses --      3.9574                 2.2656                 4.2308
 Frc consts  --      0.4499                 0.2677                 0.5200
 IR Inten    --      1.0831                 0.3881                 0.1205

                     16                     17                     18
                      A                      A                      A
 Frequencies --    493.2627               561.0154               607.3870
 Red. masses --      2.7024                 2.0445                 3.2171
 Frc consts  --      0.3874                 0.3791                 0.6993
 IR Inten    --      0.2983                 1.8602                 0.0151

                     19                     20                     21
                      A                      A                      A
 Frequencies --    615.3934               647.3453               795.7270
 Red. masses --      2.6418                 3.6054                 2.2446
 Frc consts  --      0.5895                 0.8902                 0.8374
 IR Inten    --      0.0566                 0.0421                 0.4965

                     22                     23                     24
                      A                      A                      A
 Frequencies --    844.1311               872.2410               873.0227
 Red. masses --      1.4926                 3.0156                 2.0782
 Frc consts  --      0.6266                 1.3517                 0.9332
 IR Inten    --      1.1084                 0.0039                 0.9323

                     25                     26                     27
                      A                      A                      A
 Frequencies --    903.4587               933.0386               983.2115
 Red. masses --      2.2025                 1.4199                 1.4987
 Frc consts  --      1.0592                 0.7283                 0.8536
 IR Inten    --      1.2026                 2.8059                 3.2235

                     28                     29                     30
                      A                      A                      A
 Frequencies --    983.9242               990.3993              1039.3043
 Red. masses --      1.7439                 2.4990                 2.4378
 Frc consts  --      0.9947                 1.4442                 1.5514
 IR Inten    --      2.4649                 2.4425                 4.3335

                     31                     32                     33
                      A                      A                      A
 Frequencies --   1041.7777              1064.4627              1068.9708
 Red. masses --      1.3264                 1.5346                 2.4145
 Frc consts  --      0.8482                 1.0245                 1.6256
 IR Inten    --      2.6862                 3.7340                 0.5138

                     34                     35                     36
                      A                      A                      A
 Frequencies --   1092.8056              1103.1919              1110.1211
 Red. masses --      1.8030                 1.7478                 1.8618
 Frc consts  --      1.2686                 1.2532                 1.3519
 IR Inten    --      1.2878                 0.7174                 0.0128

                     37                     38                     39
                      A                      A                      A
 Frequencies --   1169.5918              1177.6070              1189.2314
 Red. masses --      1.3345                 1.8487                 1.9463
 Frc consts  --      1.0756                 1.5105                 1.6218
 IR Inten    --      0.3267                 0.9624                 0.0421

                     40                     41                     42
                      A                      A                      A
 Frequencies --   1197.2289              1224.1183              1261.0522
 Red. masses --      1.2647                 2.1799                 2.6101
 Frc consts  --      1.0680                 1.9245                 2.4455
 IR Inten    --      0.2184                 4.0342                 0.8524

                     43                     44                     45
                      A                      A                      A
 Frequencies --   1278.0203              1297.1922              1312.7791
 Red. masses --      1.3744                 1.2731                 1.2220
 Frc consts  --      1.3226                 1.2622                 1.2408
 IR Inten    --      5.8862                 6.2598                 1.1677

                     46                     47                     48
                      A                      A                      A
 Frequencies --   1340.2439              1376.0011              1386.9382
 Red. masses --      2.6266                 1.4374                 1.9679
 Frc consts  --      2.7797                 1.6035                 2.2303
 IR Inten    --      0.0019                 1.5625                 8.2769

                     49                     50                     51
                      A                      A                      A
 Frequencies --   1388.9199              1390.1259              1407.5112
 Red. masses --      1.5050                 1.3651                 1.5711
 Frc consts  --      1.7106                 1.5542                 1.8338
 IR Inten    --      1.2453                 7.7130                 4.1220

                     52                     53                     54
                      A                      A                      A
 Frequencies --   1415.0153              1439.9651              1443.4841
 Red. masses --      1.6951                 1.2782                 1.2552
 Frc consts  --      1.9997                 1.5616                 1.5410
 IR Inten    --      1.4282                 0.0004                 0.8823

                     55                     56                     57
                      A                      A                      A
 Frequencies --   1497.9717              1505.5209              1508.4687
 Red. masses --      1.0839                 1.0788                 1.1009
 Frc consts  --      1.4330                 1.4407                 1.4759
 IR Inten    --      2.4191                 0.0004                 1.3136

                     58                     59                     60
                      A                      A                      A
 Frequencies --   1508.4815              1518.1528              1518.6403
 Red. masses --      1.0803                 1.0852                 1.0490
 Frc consts  --      1.4484                 1.4736                 1.4254
 IR Inten    --      2.1508                 7.1568                 6.4841

                     61                     62                     63
                      A                      A                      A
 Frequencies --   1519.1035              1521.5569              1524.1425
 Red. masses --      1.0518                 1.0716                 1.0887
 Frc consts  --      1.4301                 1.4617                 1.4901
 IR Inten    --      0.7990                 0.2190                 4.3470

                     64                     65                     66
                      A                      A                      A
 Frequencies --   1535.8902              1667.3651              1722.8283
 Red. masses --      1.1009                 6.4394                 8.0985
 Frc consts  --      1.5301                10.5477                14.1625
 IR Inten    --      0.0271                 1.4463                12.0695

                     67                     68                     69
                      A                      A                      A
 Frequencies --   2972.8871              2984.4792              3011.8360
 Red. masses --      1.0733                 1.0691                 1.0696
 Frc consts  --      5.5891                 5.6106                 5.7163
 IR Inten    --     18.6061                63.9416                28.9269

                     70                     71                     72
                      A                      A                      A
 Frequencies --   3012.8615              3019.1261              3020.0121
 Red. masses --      1.0689                 1.0435                 1.0440
 Frc consts  --      5.7169                 5.6039                 5.6098
 IR Inten    --      5.8395                81.1430                20.0820

                     73                     74                     75
                      A                      A                      A
 Frequencies --   3026.8708              3032.8887              3055.7179
 Red. masses --      1.0678                 1.0616                 1.0988
 Frc consts  --      5.7643                 5.7535                 6.0447
 IR Inten    --     16.1030                34.2793                 0.1577

                     76                     77                     78
                      A                      A                      A
 Frequencies --   3055.9590              3064.3597              3064.7761
 Red. masses --      1.0987                 1.0916                 1.0922
 Frc consts  --      6.0456                 6.0392                 6.0446
 IR Inten    --     63.9192                44.4219                55.4186

                     79                     80                     81
                      A                      A                      A
 Frequencies --   3064.8699              3066.8372              3080.4039
 Red. masses --      1.0940                 1.0862                 1.0953
 Frc consts  --      6.0547                 6.0193                 6.1234
 IR Inten    --      0.4337                58.7031                73.8345

                     82                     83                     84
                      A                      A                      A
 Frequencies --   3081.6446              3148.4989              3148.7821
 Red. masses --      1.1050                 1.0937                 1.0936
 Frc consts  --      6.1828                 6.3879                 6.3882
 IR Inten    --     56.5929                13.2714                33.5297

 - Thermochemistry -
 -------------------
 Temperature   298.150 Kelvin.  Pressure   1.00000 Atm.
 Atom     1 has atomic number  6 and mass  12.00000

 Molecular mass:   162.14085 amu.
 Principal axes and moments of inertia in atomic units:
                           1         2         3
     Eigenvalues --  1636.329561867.313403309.75407
           X            1.00000   0.00000   0.00000
           Y           -0.00000   1.00000   0.00044
           Z           -0.00000  -0.00044   1.00000
 This molecule is an asymmetric top.
 Rotational symmetry number  1.
 Warning -- assumption of classical behavior for rotation
           may cause significant error
 Rotational temperatures (Kelvin)      0.05293     0.04638     0.02617
 Rotational constants (GHZ):           1.10292     0.96649     0.54528
 Zero-point vibrational energy     716506.1 (Joules/Mol)
                                  171.24907 (Kcal/Mol)
 Warning -- explicit consideration of  19 degrees of freedom as
           vibrations may cause significant error
 Vibrational temperatures:    127.14   138.04   158.95   160.97   168.58
          (Kelvin)            274.37   376.17   404.91   439.84   467.17
                              503.92   616.41   631.98   644.35   657.15
                              709.70   807.18   873.89   885.41   931.39
                             1144.87  1214.52  1254.96  1256.08  1299.88
                             1342.43  1414.62  1415.65  1424.96  1495.33
                             1498.89  1531.52  1538.01  1572.30  1587.25
                             1597.22  1682.78  1694.31  1711.04  1722.55
                             1761.23  1814.37  1838.79  1866.37  1888.80
                             1928.31  1979.76  1995.49  1998.35  2000.08
                             2025.09  2035.89  2071.79  2076.85  2155.25
                             2166.11  2170.35  2170.37  2184.28  2184.98
                             2185.65  2189.18  2192.90  2209.80  2398.97
                             2478.77  4277.32  4294.00  4333.36  4334.84
                             4343.85  4345.12  4354.99  4363.65  4396.50
                             4396.84  4408.93  4409.53  4409.66  4412.49
                             4432.01  4433.80  4529.99  4530.40

 Zero-point correction=                           0.272903 (Hartree/Particle)
 Thermal correction to Energy=                    0.284883
 Thermal correction to Enthalpy=                  0.285827
 Thermal correction to Gibbs Free Energy=         0.235454
 Sum of electronic and zero-point Energies=           -467.891301
 Sum of electronic and thermal Energies=              -467.879321
 Sum of electronic and thermal Enthalpies=            -467.878377
 Sum of electronic and thermal Free Energies=         -467.928750

                     E (Thermal)             CV                S
                      KCal/Mol        Cal/Mol-Kelvin    Cal/Mol-Kelvin
 Total                  178.767             46.680            106.020
 Electronic               0.000              0.000              0.000
 Translational            0.889              2.981             41.159
 Rotational               0.889              2.981             30.693
 Vibrational            176.989             40.718             34.168
 Vibration     1          0.601              1.957              3.696
 Vibration     2          0.603              1.952              3.535
 Vibration     3          0.606              1.941              3.261
 Vibration     4          0.607              1.940              3.236
 Vibration     5          0.608              1.935              3.147
 Vibration     6          0.634              1.853              2.221
 Vibration     7          0.669              1.743              1.652
 Vibration     8          0.681              1.708              1.525
 Vibration     9          0.696              1.663              1.385
 Vibration    10          0.709              1.626              1.286
 Vibration    11          0.727              1.575              1.165
 Vibration    12          0.790              1.408              0.864
 Vibration    13          0.799              1.385              0.829
 Vibration    14          0.807              1.366              0.802
 Vibration    15          0.815              1.346              0.776
 Vibration    16          0.849              1.265              0.675
 Vibration    17          0.917              1.116              0.522
 Vibration    18          0.966              1.016              0.437
 Vibration    19          0.975              0.999              0.424

                           ! Non-Optimized Parameters !
 Normal termination of Gaussian 16 at Wed Dec  9 18:13:09 2020.

 ----------------------------------------------------------------------
 # B3LYP/6-311++G(d,p) empiricaldispersion=gd3bj scf=xqc pop=npa geom=c
 heck
 ----------------------------------------------------------------------

 ---------------------------------------
 CID_123404722_JID_2855_Energie_neutraal
 ---------------------------------------
 Structure from the checkpoint file:  "JID_2855.chk"
 Charge =  0 Multiplicity = 1

 SCF Done:  E(RB3LYP) =  -468.284070704     A.U. after   13 cycles
 Normal termination of Gaussian 16 at Wed Dec  9 18:16:17 2020.

 ----------------------------------------------------------------------
 # B3LYP/6-311++G(d,p) empiricaldispersion=gd3bj scf=xqc pop=npa geom=c
 heck
 ----------------------------------------------------------------------

 -------------------------------------
 CID_123404722_JID_2855_Energie_kation
 -------------------------------------
 Structure from the checkpoint file:  "JID_2855.chk"
 Charge =  1 Multiplicity = 2

 SCF Done:  E(UB3LYP) =  -468.028410566     A.U. after   15 cycles
 Normal termination of Gaussian 16 at Wed Dec  9 18:20:53 2020.
 Gaussian 16:  ES64L-G16RevA.03 25-Dec-2016

 ----------------------------------------------------------------------
 # B3LYP/6-311++G(d,p) empiricaldispersion=gd3bj scf=xqc pop=npa geom=c
 heck
 ----------------------------------------------------------------------

 ------------------------------------
 CID_123404722_JID_2855_Energie_anion
 ------------------------------------
 Structure from the checkpoint file:  "JID_2855.chk"
 Charge = -1 Multiplicity = 2

                         Standard orientation:
 ---------------------------------------------------------------------
 Center     Atomic      Atomic             Coordinates (Angstroms)
 Number     Number       Type             X           Y           Z
 ---------------------------------------------------------------------
      1          6           0        1.103593    2.927138    0.104548
      2          6           0        0.993760    1.428116    0.099576
      3          6           0       -0.162806    0.742395   -0.044133
      4          6           0       -1.481048    1.481243   -0.256934
      5          6           0       -2.680705    0.565742   -0.512216
      6          6           0       -2.680737   -0.565589    0.512226
      7          6           0       -1.481128   -1.481151    0.256945
      8          6           0       -0.162854   -0.742369    0.044112
      9          6           0        0.993661   -1.428169   -0.099623
     10          6           0        2.278865   -0.674271   -0.355734
     11          6           0        2.278895    0.674124    0.355760
     12          6           0        1.103376   -2.927202   -0.104566
     13          1           0        0.138385    3.435830    0.065734
     14          1           0        1.705817    3.282790   -0.744124
     15          1           0        1.624851    3.266403    1.011656
     16          1           0       -1.376897    2.193788   -1.084124
     17          1           0       -1.702615    2.086256    0.634757
     18          1           0       -2.625469    0.137591   -1.523236
     19          1           0       -3.606575    1.151074   -0.464997
     20          1           0       -2.625479   -0.137440    1.523246
     21          1           0       -3.606639   -1.150870    0.465007
     22          1           0       -1.376989   -2.193690    1.084141
     23          1           0       -1.702736   -2.086167   -0.634735
     24          1           0        3.142856   -1.272758   -0.041601
     25          1           0        2.391527   -0.518448   -1.442862
     26          1           0        2.391480    0.518276    1.442892
     27          1           0        3.142953    1.272545    0.041686
     28          1           0        1.625577   -3.266445   -1.011130
     29          1           0        1.704648   -3.282978    0.744737
     30          1           0        0.138078   -3.435810   -0.066809
 ---------------------------------------------------------------------

 SCF Done:  E(UB3LYP) =  -468.260943268     A.U. after   33 cycles
 SCF Done:  E(UB3LYP) =  -468.260943268     a.u. after    1 cycles

 The electronic state is 2-A.
 Alpha  occ. eigenvalues --  -10.06239 -10.06215 -10.05827 -10.05826 -10.05737
 Alpha  occ. eigenvalues --  -10.05714 -10.05243 -10.05214 -10.04979 -10.04979
 Alpha  occ. eigenvalues --  -10.04931 -10.04931  -0.74474  -0.70150  -0.67666
 Alpha  occ. eigenvalues --   -0.62710  -0.62101  -0.59885  -0.53828  -0.52092
 Alpha  occ. eigenvalues --   -0.51080  -0.45061  -0.43532  -0.36837  -0.36412
 Alpha  occ. eigenvalues --   -0.35802  -0.34813  -0.32471  -0.31573  -0.30699
 Alpha  occ. eigenvalues --   -0.30103  -0.30005  -0.28749  -0.27243  -0.26517
 Alpha  occ. eigenvalues --   -0.26334  -0.25557  -0.24784  -0.24258  -0.23010
 Alpha  occ. eigenvalues --   -0.22427  -0.19616  -0.18686  -0.16134  -0.08193
 Alpha  occ. eigenvalues --    0.05403
 Alpha virt. eigenvalues --    0.06378   0.07752   0.08185   0.08804   0.09092
 Alpha virt. eigenvalues --    0.09260   0.10344   0.10804   0.11071   0.11388
 Alpha virt. eigenvalues --    0.11876   0.12517   0.13123   0.13381   0.13640

  Beta  occ. eigenvalues --  -10.06236 -10.06212 -10.05814 -10.05814 -10.05735
  Beta  occ. eigenvalues --  -10.05712 -10.05230 -10.05201 -10.04914 -10.04913
  Beta  occ. eigenvalues --  -10.04884 -10.04884  -0.74390  -0.70103  -0.67554
  Beta  occ. eigenvalues --   -0.62673  -0.62047  -0.59801  -0.53741  -0.52046
  Beta  occ. eigenvalues --   -0.51057  -0.45020  -0.43395  -0.36781  -0.36331
  Beta  occ. eigenvalues --   -0.35724  -0.34769  -0.32431  -0.31524  -0.30602
  Beta  occ. eigenvalues --   -0.30004  -0.29933  -0.28697  -0.27170  -0.26454
  Beta  occ. eigenvalues --   -0.26311  -0.25504  -0.24729  -0.24220  -0.22994
  Beta  occ. eigenvalues --   -0.22393  -0.19572  -0.18643  -0.15903  -0.07828
  Beta virt. eigenvalues --    0.07100   0.07933   0.07997   0.08720   0.09098
  Beta virt. eigenvalues --    0.09555   0.09748   0.10780   0.11048   0.11053
  Beta virt. eigenvalues --    0.12110   0.12310   0.12772   0.13277   0.13299

 Mulliken charges and spin densities:
               1          2
     1  C    2.291567  -2.634917
     2  C   -0.087361   1.134346
     3  C   -0.167242   0.104078
     4  C   -0.433143  -0.271898
     5  C   -0.065873  -0.296065
     6  C   -0.066742  -0.295127
     7  C   -0.433397  -0.271866
     8  C   -0.167480   0.104422
     9  C   -0.087032   1.134394
    10  C   -1.142430   0.244925
    11  C   -1.141720   0.244444
    12  C    2.292605  -2.636249
    13  H   -0.856181   1.023484
    14  H   -0.305193   0.471049
    15  H   -0.047853   0.183411
    16  H   -0.087437   0.251182
    17  H    0.141114   0.015250
    18  H    0.118694  -0.001922
    19  H   -0.038965   0.196253
    20  H    0.118592  -0.001816
    21  H   -0.038227   0.195494
    22  H   -0.087608   0.251434
    23  H    0.141554   0.014734
    24  H    0.047558   0.079896
    25  H    0.131937   0.001602
    26  H    0.131827   0.001706
    27  H    0.047828   0.079586
    28  H   -0.048574   0.184143
    29  H   -0.305415   0.471359
    30  H   -0.855404   1.022667
 Sum of Mulliken charges =  -1.00000   1.00000

 Dipole moment (field-independent basis, Debye):
    X=             -1.0277    Y=             -0.0002    Z=             -0.0003  Tot=              1.0277
 Quadrupole moment (field-independent basis, Debye-Ang):
   XX=           -109.5350   YY=           -166.3794   ZZ=            -97.5485
   XY=              0.0211   XZ=             -0.0017   YZ=              6.6326

 Summary of Natural Population Analysis:

                                       Natural Population
                Natural  -----------------------------------------------
    Atom  No    Charge         Core      Valence    Rydberg      Total
 -----------------------------------------------------------------------
      C    1   -0.29789      0.99963     2.29176    0.00651     3.29789
      C    2    0.01268      0.99945     1.97848    0.00939     2.98732
      C    3   -0.02856      0.99940     2.01955    0.00962     3.02856
      C    4   -0.19780      0.99960     2.18901    0.00919     3.19780
      C    5   -0.18737      0.99964     2.17938    0.00835     3.18737
      C    6   -0.18738      0.99964     2.17968    0.00806     3.18738
      C    7   -0.19776      0.99960     2.18901    0.00914     3.19776
      C    8   -0.02857      0.99940     2.01956    0.00961     3.02857
      C    9    0.01270      0.99945     1.97846    0.00939     2.98730
      C   10   -0.19528      0.99960     2.18684    0.00884     3.19528
      C   11   -0.19528      0.99960     2.18684    0.00884     3.19528
      C   12   -0.29790      0.99963     2.29176    0.00651     3.29790
      H   13    0.10459      0.00000     0.39389    0.00153     0.39541
      H   14    0.10517      0.00000     0.39208    0.00275     0.39483
      H   15    0.09889      0.00000     0.40010    0.00100     0.40111
      H   16    0.10306      0.00000     0.39601    0.00092     0.39694
      H   17    0.10007      0.00000     0.39862    0.00131     0.39993
      H   18    0.09181      0.00000     0.40722    0.00097     0.40819
      H   19    0.09553      0.00000     0.40359    0.00088     0.40447
      H   20    0.09171      0.00000     0.40737    0.00092     0.40829
      H   21    0.09548      0.00000     0.40369    0.00082     0.40452
      H   22    0.10307      0.00000     0.39602    0.00092     0.39693
      H   23    0.10007      0.00000     0.39862    0.00131     0.39993
      H   24    0.09810      0.00000     0.40094    0.00096     0.40190
      H   25    0.09704      0.00000     0.40183    0.00113     0.40296
      H   26    0.09704      0.00000     0.40183    0.00113     0.40296
      H   27    0.09810      0.00000     0.40094    0.00096     0.40190
      H   28    0.09889      0.00000     0.40010    0.00101     0.40111
      H   29    0.10518      0.00000     0.39206    0.00276     0.39482
      H   30    0.10458      0.00000     0.39390    0.00153     0.39542
 =======================================================================
   * Total *    0.00000     11.99463    32.87914    0.12623    45.00000

 Normal termination of Gaussian 16 at Wed Dec  9 18:32:25 2020.
