 Gaussian 16, Revision A.03,

 -----------------------------------------------------------
 # opt freq B3LYP/6-31G(d) empiricaldispersion=gd3bj scf=xqc
 -----------------------------------------------------------

 -------------------------------
 CID_112715022_JID_4502_neutraal
 -------------------------------
 Symbolic Z-matrix:
 Charge =  0 Multiplicity = 1

 SCF Done:  E(RB3LYP) =  -652.072131104     A.U. after   15 cycles
 SCF Done:  E(RB3LYP) =  -652.076885668     A.U. after   12 cycles
 SCF Done:  E(RB3LYP) =  -652.077036535     A.U. after   13 cycles
 SCF Done:  E(RB3LYP) =  -652.078172618     A.U. after   13 cycles
 SCF Done:  E(RB3LYP) =  -652.078574854     A.U. after   12 cycles
 SCF Done:  E(RB3LYP) =  -652.078684506     A.U. after   12 cycles
 SCF Done:  E(RB3LYP) =  -652.078699278     A.U. after   10 cycles
 SCF Done:  E(RB3LYP) =  -652.078702162     A.U. after    8 cycles
 SCF Done:  E(RB3LYP) =  -652.078703001     A.U. after    8 cycles
 SCF Done:  E(RB3LYP) =  -652.078703157     A.U. after    7 cycles
 Optimization completed.
    -- Stationary point found.
 Normal termination of Gaussian 16 at Thu Dec 10 09:55:50 2020.

 --------------------------------------------------------------------
 #N Geom=AllCheck Guess=TCheck SCRF=Check GenChk RB3LYP/6-31G(d) Freq
 --------------------------------------------------------------------

 Structure from the checkpoint file:  "JID_4502.chk"
 -------------------------------
 CID_112715022_JID_4502_neutraal
 -------------------------------
 Charge =  0 Multiplicity = 1

 SCF Done:  E(RB3LYP) =  -652.078703157     A.U. after    1 cycles

  Exact polarizability: 132.555  -0.855 117.623   7.020   3.026  82.350
 Approx polarizability: 183.637   6.253 179.327  18.391  12.397 135.696

                      1                      2                      3
                      A                      A                      A
 Frequencies --     49.0023                68.6235               109.1561
 Red. masses --      4.4304                11.0352                 5.5935
 Frc consts  --      0.0063                 0.0306                 0.0393
 IR Inten    --      0.0345                 1.7467                 0.4770

                      4                      5                      6
                      A                      A                      A
 Frequencies --    147.9685               180.8623               252.9400
 Red. masses --      3.7141                 4.3350                 3.4139
 Frc consts  --      0.0479                 0.0835                 0.1287
 IR Inten    --      0.0382                 0.3878                 0.0519

                      7                      8                      9
                      A                      A                      A
 Frequencies --    268.5806               298.8338               316.8480
 Red. masses --      3.1502                 2.9543                 4.6525
 Frc consts  --      0.1339                 0.1554                 0.2752
 IR Inten    --      0.6277                 2.7668                 0.5447

                     10                     11                     12
                      A                      A                      A
 Frequencies --    349.0501               399.4030               433.0001
 Red. masses --      2.7298                 3.2241                 3.7760
 Frc consts  --      0.1960                 0.3030                 0.4171
 IR Inten    --      1.5317                 0.7070                 1.2221

                     13                     14                     15
                      A                      A                      A
 Frequencies --    437.3463               530.4748               585.5870
 Red. masses --      3.9483                 3.2590                 2.1391
 Frc consts  --      0.4450                 0.5403                 0.4322
 IR Inten    --      0.0641                 0.5062                55.9870

                     16                     17                     18
                      A                      A                      A
 Frequencies --    617.6884               634.5880               662.9703
 Red. masses --      3.8165                 2.5536                 3.7015
 Frc consts  --      0.8579                 0.6059                 0.9585
 IR Inten    --      9.1098                50.6697                 8.6026

                     19                     20                     21
                      A                      A                      A
 Frequencies --    689.9471               719.6674               734.1874
 Red. masses --      2.7656                 2.3222                 1.4231
 Frc consts  --      0.7756                 0.7086                 0.4519
 IR Inten    --      6.2647                35.2704                31.9648

                     22                     23                     24
                      A                      A                      A
 Frequencies --    782.7776               801.5810               836.1577
 Red. masses --      2.1827                 1.2623                 2.8012
 Frc consts  --      0.7880                 0.4779                 1.1539
 IR Inten    --     21.0541                 4.8104                 6.8594

                     25                     26                     27
                      A                      A                      A
 Frequencies --    839.2138               879.4288               907.8892
 Red. masses --      1.4750                 2.7663                 3.4306
 Frc consts  --      0.6121                 1.2605                 1.6661
 IR Inten    --      9.4554                 0.1019                10.1881

                     28                     29                     30
                      A                      A                      A
 Frequencies --    925.8946               934.2146               954.6954
 Red. masses --      1.8674                 3.9918                 1.7219
 Frc consts  --      0.9432                 2.0526                 0.9247
 IR Inten    --      2.6756                 4.2091                10.2810

                     31                     32                     33
                      A                      A                      A
 Frequencies --    977.1373               993.4636              1016.6237
 Red. masses --      3.1534                 2.1157                 2.0593
 Frc consts  --      1.7739                 1.2303                 1.2540
 IR Inten    --      3.4235                 3.2022                 2.9928

                     34                     35                     36
                      A                      A                      A
 Frequencies --   1064.7469              1073.8870              1076.1490
 Red. masses --      1.3870                 1.8831                 1.9254
 Frc consts  --      0.9265                 1.2795                 1.3138
 IR Inten    --     12.1306                 1.1959                 3.2758

                     37                     38                     39
                      A                      A                      A
 Frequencies --   1091.9358              1129.5191              1171.0383
 Red. masses --      1.4001                 2.8012                 2.2056
 Frc consts  --      0.9836                 2.1056                 1.7820
 IR Inten    --      0.2144                25.2194                 6.2226

                     40                     41                     42
                      A                      A                      A
 Frequencies --   1192.9344              1199.4323              1205.2497
 Red. masses --      1.2847                 1.6032                 1.7748
 Frc consts  --      1.0772                 1.3589                 1.5190
 IR Inten    --     13.1561                75.2679               115.1386

                     43                     44                     45
                      A                      A                      A
 Frequencies --   1231.0332              1256.8543              1277.8616
 Red. masses --      1.6244                 1.9322                 1.6653
 Frc consts  --      1.4504                 1.7983                 1.6022
 IR Inten    --      5.8773                19.3249                 7.5718

                     46                     47                     48
                      A                      A                      A
 Frequencies --   1287.9357              1320.8020              1346.6751
 Red. masses --      1.7643                 2.1937                 1.6626
 Frc consts  --      1.7243                 2.2547                 1.7765
 IR Inten    --      2.4041                15.4425                11.3452

                     49                     50                     51
                      A                      A                      A
 Frequencies --   1363.2318              1374.6904              1384.3760
 Red. masses --      2.1028                 1.4172                 2.3835
 Frc consts  --      2.3024                 1.5779                 2.6913
 IR Inten    --      3.9731                 2.4666                34.7559

                     52                     53                     54
                      A                      A                      A
 Frequencies --   1402.3646              1469.9579              1501.0753
 Red. masses --      2.0030                 4.1295                 1.0902
 Frc consts  --      2.3209                 5.2573                 1.4473
 IR Inten    --      8.6078                 1.2175                 5.8003

                     55                     56                     57
                      A                      A                      A
 Frequencies --   1509.4830              1520.1256              1541.7355
 Red. masses --      1.0994                 1.1220                 1.3536
 Frc consts  --      1.4759                 1.5276                 1.8956
 IR Inten    --      1.8596                 1.1036                 7.0375

                     58                     59                     60
                      A                      A                      A
 Frequencies --   1550.4981              1679.1157              1836.4701
 Red. masses --      4.4007                 8.0092                 9.6301
 Frc consts  --      6.2332                13.3045                19.1359
 IR Inten    --     16.0813                 5.1138               275.0694

                     61                     62                     63
                      A                      A                      A
 Frequencies --   3029.5175              3033.5972              3037.9522
 Red. masses --      1.0674                 1.0809                 1.0640
 Frc consts  --      5.7722                 5.8606                 5.7854
 IR Inten    --     27.9535                 6.3997                36.5836

                     64                     65                     66
                      A                      A                      A
 Frequencies --   3073.0197              3087.7527              3148.5752
 Red. masses --      1.0951                 1.1019                 1.0534
 Frc consts  --      6.0931                 6.1901                 6.1526
 IR Inten    --     39.3883                38.1697                15.4071

                     67                     68                     69
                      A                      A                      A
 Frequencies --   3153.3745              3228.4005              3240.8289
 Red. masses --      1.0592                 1.1175                 1.1143
 Frc consts  --      6.2057                 6.8622                 6.8957
 IR Inten    --     13.0733                 0.5637                11.3118

                     70                     71                     72
                      A                      A                      A
 Frequencies --   3261.7634              3301.7635              3680.7812
 Red. masses --      1.0925                 1.1032                 1.0639
 Frc consts  --      6.8483                 7.0860                 8.4924
 IR Inten    --      4.3200                 2.2634                55.4622

 - Thermochemistry -
 -------------------
 Temperature   298.150 Kelvin.  Pressure   1.00000 Atm.
 Atom     1 has atomic number  6 and mass  12.00000

 Molecular mass:   192.07864 amu.
 Principal axes and moments of inertia in atomic units:
                           1         2         3
     Eigenvalues --  1739.744482548.519863777.42096
           X            0.99959  -0.02849  -0.00032
           Y            0.02849   0.99958  -0.00485
           Z            0.00045   0.00484   0.99999
 This molecule is an asymmetric top.
 Rotational symmetry number  1.
 Warning -- assumption of classical behavior for rotation
           may cause significant error
 Rotational temperatures (Kelvin)      0.04979     0.03399     0.02293
 Rotational constants (GHZ):           1.03736     0.70815     0.47777
 Zero-point vibrational energy     560284.8 (Joules/Mol)
                                  133.91129 (Kcal/Mol)
 Warning -- explicit consideration of  16 degrees of freedom as
           vibrations may cause significant error
 Vibrational temperatures:     70.50    98.73   157.05   212.89   260.22
          (Kelvin)            363.92   386.43   429.96   455.87   502.21
                              574.65   622.99   629.24   763.23   842.53
                              888.72   913.03   953.87   992.68  1035.44
                             1056.33  1126.24  1153.30  1203.04  1207.44
                             1265.30  1306.25  1332.16  1344.13  1373.59
                             1405.88  1429.37  1462.69  1531.93  1545.08
                             1548.34  1571.05  1625.13  1684.86  1716.37
                             1725.72  1734.09  1771.18  1808.33  1838.56
                             1853.05  1900.34  1937.57  1961.39  1977.87
                             1991.81  2017.69  2114.94  2159.71  2171.81
                             2187.12  2218.21  2230.82  2415.87  2642.27
                             4358.80  4364.67  4370.94  4421.39  4442.59
                             4530.10  4537.00  4644.95  4662.83  4692.95
                             4750.50  5295.82

 Zero-point correction=                           0.213401 (Hartree/Particle)
 Thermal correction to Energy=                    0.224923
 Thermal correction to Enthalpy=                  0.225867
 Thermal correction to Gibbs Free Energy=         0.175627
 Sum of electronic and zero-point Energies=           -651.865302
 Sum of electronic and thermal Energies=              -651.853780
 Sum of electronic and thermal Enthalpies=            -651.852836
 Sum of electronic and thermal Free Energies=         -651.903076

                     E (Thermal)             CV                S
                      KCal/Mol        Cal/Mol-Kelvin    Cal/Mol-Kelvin
 Total                  141.141             45.969            105.738
 Electronic               0.000              0.000              0.000
 Translational            0.889              2.981             41.664
 Rotational               0.889              2.981             31.194
 Vibrational            139.364             40.007             32.881
 Vibration     1          0.595              1.978              4.857
 Vibration     2          0.598              1.969              4.192
 Vibration     3          0.606              1.942              3.284
 Vibration     4          0.617              1.905              2.698
 Vibration     5          0.630              1.866              2.319
 Vibration     6          0.664              1.758              1.710
 Vibration     7          0.673              1.731              1.605
 Vibration     8          0.692              1.676              1.423
 Vibration     9          0.704              1.641              1.326
 Vibration    10          0.726              1.577              1.170
 Vibration    11          0.765              1.471              0.965
 Vibration    12          0.794              1.398              0.849
 Vibration    13          0.798              1.389              0.835
 Vibration    14          0.885              1.183              0.586
 Vibration    15          0.943              1.063              0.475
 Vibration    16          0.977              0.995              0.420

 Optimization completed.
    -- Stationary point found.
 Normal termination of Gaussian 16 at Thu Dec 10 10:04:29 2020.

 ----------------------------------------------------------------------
 # B3LYP/6-311++G(d,p) empiricaldispersion=gd3bj scf=xqc pop=npa geom=c
 heck
 ----------------------------------------------------------------------

 ---------------------------------------
 CID_112715022_JID_4502_Energie_neutraal
 ---------------------------------------
 Structure from the checkpoint file:  "JID_4502.chk"
 Charge =  0 Multiplicity = 1

 SCF Done:  E(RB3LYP) =  -652.265042777     A.U. after   15 cycles
 Normal termination of Gaussian 16 at Thu Dec 10 10:08:08 2020.

 ----------------------------------------------------------------------
 # B3LYP/6-311++G(d,p) empiricaldispersion=gd3bj scf=xqc pop=npa geom=c
 heck
 ----------------------------------------------------------------------

 -------------------------------------
 CID_112715022_JID_4502_Energie_kation
 -------------------------------------
 Structure from the checkpoint file:  "JID_4502.chk"
 Charge =  1 Multiplicity = 2

 SCF Done:  E(UB3LYP) =  -651.965685189     A.U. after   24 cycles
 Normal termination of Gaussian 16 at Thu Dec 10 10:16:51 2020.
 Gaussian 16:  ES64L-G16RevA.03 25-Dec-2016

 ----------------------------------------------------------------------
 # B3LYP/6-311++G(d,p) empiricaldispersion=gd3bj scf=xqc pop=npa geom=c
 heck
 ----------------------------------------------------------------------

 ------------------------------------
 CID_112715022_JID_4502_Energie_anion
 ------------------------------------
 Structure from the checkpoint file:  "JID_4502.chk"
 Charge = -1 Multiplicity = 2

                         Standard orientation:
 ---------------------------------------------------------------------
 Center     Atomic      Atomic             Coordinates (Angstroms)
 Number     Number       Type             X           Y           Z
 ---------------------------------------------------------------------
      1          6           0        1.100685    2.127310    0.275516
      2          6           0       -0.222252    2.194844   -0.510861
      3          6           0       -1.123601    1.004617   -0.203468
      4          6           0       -2.614515    1.179205   -0.300570
      5          6           0       -1.952731    1.085392    1.056118
      6          6           0       -0.499369   -0.341309   -0.648644
      7          6           0        0.949513   -0.305339   -0.296128
      8          6           0        1.694375    0.759535    0.111539
      9          6           0        3.035452    0.264524    0.271528
     10          6           0        2.994458   -1.055853   -0.057595
     11          8           0        1.726284   -1.423937   -0.415676
     12          6           0       -1.253038   -1.534542   -0.079526
     13          8           0       -2.199303   -2.062988   -0.621410
     14          8           0       -0.789229   -1.934734    1.126699
     15          1           0        1.792826    2.900546   -0.079628
     16          1           0        0.911445    2.340898    1.337016
     17          1           0       -0.002123    2.216330   -1.587042
     18          1           0       -0.756808    3.121977   -0.274594
     19          1           0       -3.201771    0.329386   -0.635263
     20          1           0       -2.991130    2.144898   -0.627546
     21          1           0       -2.105701    0.189449    1.648023
     22          1           0       -1.863333    1.992482    1.648489
     23          1           0       -0.628959   -0.427959   -1.736203
     24          1           0        3.906672    0.822757    0.585958
     25          1           0        3.734656   -1.840051   -0.093643
     26          1           0       -1.351657   -2.687752    1.390064
 ---------------------------------------------------------------------

 SCF Done:  E(UB3LYP) =  -652.249431243     A.U. after   33 cycles
 SCF Done:  E(UB3LYP) =  -652.249431244     a.u. after    1 cycles

 The electronic state is 2-A.
 Alpha  occ. eigenvalues --  -19.08951 -19.07314 -19.02280 -10.21426 -10.12458
 Alpha  occ. eigenvalues --  -10.12313 -10.11034 -10.10127 -10.07635 -10.07602
 Alpha  occ. eigenvalues --  -10.07544 -10.07421 -10.07400 -10.07306  -1.01784
 Alpha  occ. eigenvalues --   -1.01146  -0.92723  -0.78750  -0.72615  -0.69714
 Alpha  occ. eigenvalues --   -0.66047  -0.61702  -0.55952  -0.52523  -0.50962
 Alpha  occ. eigenvalues --   -0.49607  -0.46712  -0.44280  -0.42138  -0.40575
 Alpha  occ. eigenvalues --   -0.39584  -0.38423  -0.37331  -0.35130  -0.34571
 Alpha  occ. eigenvalues --   -0.33902  -0.33131  -0.31255  -0.30927  -0.30108
 Alpha  occ. eigenvalues --   -0.28476  -0.27364  -0.26853  -0.25739  -0.24553
 Alpha  occ. eigenvalues --   -0.22973  -0.19988  -0.19018  -0.18576  -0.17471
 Alpha  occ. eigenvalues --   -0.12626   0.04543
 Alpha virt. eigenvalues --    0.06508   0.06698   0.08012   0.08139   0.08679
 Alpha virt. eigenvalues --    0.09339   0.09497   0.10177   0.10822   0.11233
 Alpha virt. eigenvalues --    0.12009   0.12581   0.13294   0.14855   0.15096

  Beta  occ. eigenvalues --  -19.08946 -19.07265 -19.02264 -10.21420 -10.12449
  Beta  occ. eigenvalues --  -10.12307 -10.11022 -10.10127 -10.07610 -10.07578
  Beta  occ. eigenvalues --  -10.07544 -10.07409 -10.07389 -10.07280  -1.01734
  Beta  occ. eigenvalues --   -1.01123  -0.92666  -0.78734  -0.72597  -0.69691
  Beta  occ. eigenvalues --   -0.66010  -0.61672  -0.55890  -0.52452  -0.50908
  Beta  occ. eigenvalues --   -0.49554  -0.46683  -0.44227  -0.42102  -0.40549
  Beta  occ. eigenvalues --   -0.39557  -0.38381  -0.37296  -0.35098  -0.34537
  Beta  occ. eigenvalues --   -0.33866  -0.33106  -0.31224  -0.30879  -0.30071
  Beta  occ. eigenvalues --   -0.28449  -0.27343  -0.26818  -0.25711  -0.24517
  Beta  occ. eigenvalues --   -0.22927  -0.19962  -0.18972  -0.18552  -0.17456
  Beta  occ. eigenvalues --   -0.12610
  Beta virt. eigenvalues --    0.06877   0.07526   0.07993   0.08233   0.08716
  Beta virt. eigenvalues --    0.09041   0.09757   0.09850   0.10518   0.11270
  Beta virt. eigenvalues --    0.11495   0.12307   0.12852   0.13941   0.14957

 Mulliken charges and spin densities:
               1          2
     1  C    1.540848  -2.445793
     2  C   -0.102169  -0.162365
     3  C   -0.978106   1.372640
     4  C    0.503134  -0.749948
     5  C    0.255811  -0.772751
     6  C    2.193117  -1.650515
     7  C   -2.562052   1.392942
     8  C    0.914505  -0.009580
     9  C   -0.778920   0.625033
    10  C    0.572823  -0.594344
    11  O   -0.042249   0.029512
    12  C    0.454750  -0.933375
    13  O   -0.298020   0.062557
    14  O   -0.227349   0.089414
    15  H   -0.500821   0.683320
    16  H    0.228150  -0.054994
    17  H    0.030023   0.137649
    18  H   -0.367971   0.536583
    19  H    0.117007   0.057707
    20  H   -0.184347   0.334211
    21  H   -0.077208   0.263096
    22  H   -0.361582   0.529140
    23  H    0.092051   0.198975
    24  H   -0.732377   0.893684
    25  H   -0.361830   0.534977
    26  H   -0.327218   0.632227
 Sum of Mulliken charges =  -1.00000   1.00000

 Dipole moment (field-independent basis, Debye):
    X=             -0.3120    Y=             -1.2500    Z=             -2.2108  Tot=              2.5588
 Quadrupole moment (field-independent basis, Debye-Ang):
   XX=           -137.4394   YY=           -140.8600   ZZ=           -113.3983
   XY=             -6.1898   XZ=              2.6256   YZ=              2.4711

 Summary of Natural Population Analysis:

                                       Natural Population
                Natural  -----------------------------------------------
    Atom  No    Charge         Core      Valence    Rydberg      Total
 -----------------------------------------------------------------------
      C    1   -0.19312      0.99960     2.18414    0.00939     3.19312
      C    2   -0.17999      0.99959     2.17026    0.01015     3.17999
      C    3   -0.03354      0.99954     2.02068    0.01332     3.03354
      C    4   -0.19637      0.99958     2.18795    0.00885     3.19637
      C    5   -0.19526      0.99958     2.18644    0.00925     3.19526
      C    6   -0.16796      0.99946     2.15644    0.01206     3.16796
      C    7    0.15399      0.99934     1.83093    0.01575     2.84601
      C    8   -0.05274      0.99944     2.04295    0.01034     3.05274
      C    9   -0.14295      0.99952     2.13368    0.00975     3.14295
      C   10    0.06345      0.99950     1.92384    0.01321     2.93655
      O   11   -0.23421      0.99985     3.22624    0.00811     4.23421
      C   12    0.41676      0.99970     1.55639    0.02715     2.58324
      O   13   -0.30609      0.99987     3.30015    0.00607     4.30609
      O   14   -0.33725      0.99987     3.33027    0.00711     4.33725
      H   15    0.10550      0.00000     0.39277    0.00174     0.39450
      H   16    0.10400      0.00000     0.39441    0.00158     0.39600
      H   17    0.09808      0.00000     0.40056    0.00136     0.40192
      H   18    0.10581      0.00000     0.39204    0.00216     0.39419
      H   19    0.10999      0.00000     0.38903    0.00098     0.39001
      H   20    0.10289      0.00000     0.39610    0.00100     0.39711
      H   21    0.10779      0.00000     0.39060    0.00161     0.39221
      H   22    0.10545      0.00000     0.39316    0.00139     0.39455
      H   23    0.11788      0.00000     0.38061    0.00151     0.38212
      H   24    0.10978      0.00000     0.38891    0.00131     0.39022
      H   25    0.09416      0.00000     0.40469    0.00115     0.40584
      H   26    0.24395      0.00000     0.24342    0.01263     0.25605
 =======================================================================
   * Total *   -0.00000     13.99443    36.81666    0.18892    51.00000

 Normal termination of Gaussian 16 at Thu Dec 10 10:28:14 2020.
