 Gaussian 16, Revision A.03,

 -----------------------------------------------------------
 # opt freq B3LYP/6-31G(d) empiricaldispersion=gd3bj scf=xqc
 -----------------------------------------------------------

 -------------------------------
 CID_126997648_JID_1890_neutraal
 -------------------------------
 Symbolic Z-matrix:
 Charge =  0 Multiplicity = 1

 SCF Done:  E(RB3LYP) =  -538.952213506     A.U. after   14 cycles
 SCF Done:  E(RB3LYP) =  -538.962375858     A.U. after   12 cycles
 SCF Done:  E(RB3LYP) =  -538.961173977     A.U. after   13 cycles
 SCF Done:  E(RB3LYP) =  -538.963669344     A.U. after   12 cycles
 SCF Done:  E(RB3LYP) =  -538.964183559     A.U. after   12 cycles
 SCF Done:  E(RB3LYP) =  -538.964521849     A.U. after   13 cycles
 SCF Done:  E(RB3LYP) =  -538.964803805     A.U. after   11 cycles
 SCF Done:  E(RB3LYP) =  -538.965066616     A.U. after   12 cycles
 SCF Done:  E(RB3LYP) =  -538.965200572     A.U. after   12 cycles
 SCF Done:  E(RB3LYP) =  -538.965300214     A.U. after   10 cycles
 SCF Done:  E(RB3LYP) =  -538.965623641     A.U. after    9 cycles
 SCF Done:  E(RB3LYP) =  -538.965624336     A.U. after    9 cycles
 SCF Done:  E(RB3LYP) =  -538.965624243     A.U. after    8 cycles
 SCF Done:  E(RB3LYP) =  -538.965624416     A.U. after    8 cycles
 SCF Done:  E(RB3LYP) =  -538.965624443     A.U. after    7 cycles
 Optimization completed.
    -- Stationary point found.

 1\1\GINC-NODE201\FOpt\RB3LYP\6-31G(d)\C8H14O3\VSC10255\08-Dec-2020\0\\
 # opt freq B3LYP/6-31G(d) empiricaldispersion=gd3bj scf=xqc\\CID_12699
 7648_JID_1890_neutraal\\0,1\C,1.1013261644,-0.5335017938,0.7614568955\
 C,0.5540327203,0.4513145006,1.7895319552\C,1.0460278369,1.8832487072,1
 .6055722504\O,-0.9050001544,0.3923376965,1.8627848017\C,-1.6379564048,
 0.7452581957,0.8044471585\O,-1.2024944611,1.1291483519,-0.2661227983\C
 ,-3.1359300569,0.6275838813,1.0433025904\C,-3.9054237593,-0.1488759773
 ,-0.0746512136\C,-4.9505206444,0.9964996073,-0.1316514892\C,-3.9522261

 Normal termination of Gaussian 16 at Tue Dec  8 21:34:29 2020.

 --------------------------------------------------------------------
 #N Geom=AllCheck Guess=TCheck SCRF=Check GenChk RB3LYP/6-31G(d) Freq
 --------------------------------------------------------------------

 Structure from the checkpoint file:  "JID_1890.chk"
 -------------------------------
 CID_126997648_JID_1890_neutraal
 -------------------------------
 Charge =  0 Multiplicity = 1

 SCF Done:  E(RB3LYP) =  -538.965624443     A.U. after    1 cycles

  Exact polarizability: 110.381  -1.551  81.425  -0.000  -0.000  79.437
 Approx polarizability: 129.894  -1.234 133.597  -0.000   0.002 107.689

                      1                      2                      3
                      A                      A                      A
 Frequencies --     18.1248                58.6802                87.0360
 Red. masses --      4.0965                 3.5686                 2.2873
 Frc consts  --      0.0008                 0.0072                 0.0102
 IR Inten    --      1.9586                 1.2763                 0.0190

                      4                      5                      6
                      A                      A                      A
 Frequencies --    122.3173               172.1127               234.5586
 Red. masses --      3.0759                 3.5542                 1.2119
 Frc consts  --      0.0271                 0.0620                 0.0393
 IR Inten    --      0.3025                 5.1633                 0.0080

                      7                      8                      9
                      A                      A                      A
 Frequencies --    240.6763               241.5086               248.5297
 Red. masses --      2.5047                 3.6577                 1.0605
 Frc consts  --      0.0855                 0.1257                 0.0386
 IR Inten    --      3.6358                 3.8958                 0.0336

                     10                     11                     12
                      A                      A                      A
 Frequencies --    260.6043               325.8954               374.4077
 Red. masses --      1.0660                 4.3801                 2.5507
 Frc consts  --      0.0427                 0.2741                 0.2107
 IR Inten    --     94.6076                14.9743                 1.5323

                     13                     14                     15
                      A                      A                      A
 Frequencies --    405.4126               407.7076               447.7226
 Red. masses --      2.9820                 3.5099                 3.8553
 Frc consts  --      0.2888                 0.3438                 0.4553
 IR Inten    --      1.0713                 2.3484                19.3707

                     16                     17                     18
                      A                      A                      A
 Frequencies --    494.4199               550.0893               705.3599
 Red. masses --      2.9453                 4.2615                 1.4998
 Frc consts  --      0.4242                 0.7598                 0.4397
 IR Inten    --      4.0067                 0.3301                 5.8934

                     19                     20                     21
                      A                      A                      A
 Frequencies --    724.0284               796.0164               800.2493
 Red. masses --      3.0555                 3.1822                 1.7248
 Frc consts  --      0.9437                 1.1880                 0.6508
 IR Inten    --      4.4627                 3.0025                 6.6737

                     22                     23                     24
                      A                      A                      A
 Frequencies --    824.3181               876.4657               924.3427
 Red. masses --      5.3155                 2.3243                 2.7682
 Frc consts  --      2.1281                 1.0520                 1.3935
 IR Inten    --     28.2837                 0.3554                12.9873

                     25                     26                     27
                      A                      A                      A
 Frequencies --    949.0069               952.0768               953.1409
 Red. masses --      1.2144                 2.4225                 2.4750
 Frc consts  --      0.6444                 1.2938                 1.3248
 IR Inten    --      1.6335                 0.7323                14.3347

                     28                     29                     30
                      A                      A                      A
 Frequencies --    958.5540               969.8721              1020.8755
 Red. masses --      1.3892                 2.7269                 2.2338
 Frc consts  --      0.7521                 1.5113                 1.3716
 IR Inten    --      0.2737                 6.9685                 0.8989

                     31                     32                     33
                      A                      A                      A
 Frequencies --   1077.7582              1084.7168              1172.5112
 Red. masses --      2.1937                 1.6281                 2.1558
 Frc consts  --      1.5013                 1.1286                 1.7462
 IR Inten    --     31.4550                 3.7189                10.0542

                     34                     35                     36
                      A                      A                      A
 Frequencies --   1179.9353              1201.8047              1213.5449
 Red. masses --      1.9506                 2.4844                 1.2989
 Frc consts  --      1.6001                 2.1142                 1.1270
 IR Inten    --     90.3675                57.5300                 0.9230

                     37                     38                     39
                      A                      A                      A
 Frequencies --   1219.3897              1256.4034              1268.1805
 Red. masses --      1.9404                 2.3225                 1.2639
 Frc consts  --      1.6999                 2.1601                 1.1977
 IR Inten    --      0.6854               395.3418                 0.7584

                     40                     41                     42
                      A                      A                      A
 Frequencies --   1277.6640              1286.7080              1297.4516
 Red. masses --      1.6775                 1.3656                 1.8278
 Frc consts  --      1.6134                 1.3321                 1.8129
 IR Inten    --     63.9408                 0.2989               141.5093

                     43                     44                     45
                      A                      A                      A
 Frequencies --   1392.2802              1414.0557              1427.4145
 Red. masses --      1.3012                 1.3235                 1.3494
 Frc consts  --      1.4861                 1.5593                 1.6199
 IR Inten    --      2.6108                 5.8562                19.5363

                     46                     47                     48
                      A                      A                      A
 Frequencies --   1441.0119              1448.9191              1490.5393
 Red. masses --      1.2501                 2.0728                 1.0871
 Frc consts  --      1.5295                 2.5639                 1.4229
 IR Inten    --     27.1805                54.8721                 2.8401

                     49                     50                     51
                      A                      A                      A
 Frequencies --   1505.2560              1510.4036              1521.5767
 Red. masses --      1.0960                 1.0478                 1.0520
 Frc consts  --      1.4632                 1.4084                 1.4351
 IR Inten    --      3.6691                 0.0532                15.0797

                     52                     53                     54
                      A                      A                      A
 Frequencies --   1530.3006              1533.9248              1550.0145
 Red. masses --      1.0489                 1.1181                 1.0554
 Frc consts  --      1.4472                 1.5500                 1.4939
 IR Inten    --      0.0000                 0.8228                 7.5529

                     55                     56                     57
                      A                      A                      A
 Frequencies --   1792.2260              3060.8285              3064.7310
 Red. masses --     11.2872                 1.0382                 1.0400
 Frc consts  --     21.3610                 5.7306                 5.7551
 IR Inten    --    138.9004                20.7973                14.7107

                     58                     59                     60
                      A                      A                      A
 Frequencies --   3068.9467              3081.2941              3086.0914
 Red. masses --      1.0638                 1.0594                 1.0629
 Frc consts  --      5.9032                 5.9263                 5.9644
 IR Inten    --     37.0734                51.0671                 7.7358

                     61                     62                     63
                      A                      A                      A
 Frequencies --   3087.8472              3122.8199              3124.3144
 Red. masses --      1.0847                 1.1037                 1.1016
 Frc consts  --      6.0938                 6.3416                 6.3354
 IR Inten    --     28.7023                16.5049                13.7252

                     64                     65                     66
                      A                      A                      A
 Frequencies --   3126.9464              3148.5653              3153.2794
 Red. masses --      1.1019                 1.1073                 1.1059
 Frc consts  --      6.3479                 6.4673                 6.4789
 IR Inten    --     39.7106                 2.0241                31.4140

                     67                     68                     69
                      A                      A                      A
 Frequencies --   3168.2158              3172.4824              3737.8575
 Red. masses --      1.1007                 1.0999                 1.0661
 Frc consts  --      6.5097                 6.5225                 8.7761
 IR Inten    --      1.3736                21.6740                 6.6143

 - Thermochemistry -
 -------------------
 Temperature   298.150 Kelvin.  Pressure   1.00000 Atm.
 Atom     1 has atomic number  6 and mass  12.00000

 Molecular mass:   158.09429 amu.
 Principal axes and moments of inertia in atomic units:
                           1         2         3
     Eigenvalues --   760.492782864.634642941.25111
           X            1.00000  -0.00057  -0.00000
           Y            0.00057   1.00000  -0.00006
           Z            0.00000   0.00006   1.00000
 This molecule is an asymmetric top.
 Rotational symmetry number  1.
 Warning -- assumption of classical behavior for rotation
           may cause significant error
 Rotational temperatures (Kelvin)      0.11389     0.03024     0.02945
 Rotational constants (GHZ):           2.37312     0.63001     0.61360
 Zero-point vibrational energy     564890.5 (Joules/Mol)
                                  135.01208 (Kcal/Mol)
 Warning -- explicit consideration of  17 degrees of freedom as
           vibrations may cause significant error
 Vibrational temperatures:     26.08    84.43   125.23   175.99   247.63
          (Kelvin)            337.48   346.28   347.48   357.58   374.95
                              468.89   538.69   583.30   586.60   644.17
                              711.36   791.46  1014.86  1041.72  1145.29
                             1151.38  1186.01  1261.04  1329.92  1365.41
                             1369.83  1371.36  1379.15  1395.43  1468.81
                             1550.65  1560.67  1686.98  1697.66  1729.13
                             1746.02  1754.43  1807.68  1824.63  1838.27
                             1851.29  1866.74  2003.18  2034.51  2053.73
                             2073.29  2084.67  2144.55  2165.73  2173.13
                             2189.21  2201.76  2206.98  2230.13  2578.61
                             4403.85  4409.46  4415.53  4433.29  4440.20
                             4442.72  4493.04  4495.19  4498.98  4530.08
                             4536.87  4558.36  4564.49  5377.94

 Zero-point correction=                           0.215155 (Hartree/Particle)
 Thermal correction to Energy=                    0.227318
 Thermal correction to Enthalpy=                  0.228262
 Thermal correction to Gibbs Free Energy=         0.176145
 Sum of electronic and zero-point Energies=           -538.750469
 Sum of electronic and thermal Energies=              -538.738307
 Sum of electronic and thermal Enthalpies=            -538.737363
 Sum of electronic and thermal Free Energies=         -538.789479

                     E (Thermal)             CV                S
                      KCal/Mol        Cal/Mol-Kelvin    Cal/Mol-Kelvin
 Total                  142.644             44.812            109.688
 Electronic               0.000              0.000              0.000
 Translational            0.889              2.981             41.083
 Rotational               0.889              2.981             30.239
 Vibrational            140.866             38.851             38.366
 Vibration     1          0.593              1.986              6.830
 Vibration     2          0.596              1.974              4.501
 Vibration     3          0.601              1.958              3.726
 Vibration     4          0.610              1.930              3.063
 Vibration     5          0.626              1.877              2.412
 Vibration     6          0.654              1.788              1.844
 Vibration     7          0.658              1.778              1.798
 Vibration     8          0.658              1.777              1.792
 Vibration     9          0.662              1.765              1.741
 Vibration    10          0.669              1.745              1.658
 Vibration    11          0.710              1.624              1.280
 Vibration    12          0.746              1.525              1.062
 Vibration    13          0.770              1.458              0.943
 Vibration    14          0.772              1.453              0.935
 Vibration    15          0.807              1.366              0.803
 Vibration    16          0.850              1.262              0.672
 Vibration    17          0.905              1.139              0.544

 Optimization completed.
    -- Stationary point found.

 1\1\GINC-NODE201\Freq\RB3LYP\6-31G(d)\C8H14O3\VSC10255\08-Dec-2020\0\\
 #N Geom=AllCheck Guess=TCheck SCRF=Check GenChk RB3LYP/6-31G(d) Freq\\
 CID_126997648_JID_1890_neutraal\\0,1\C,1.1013261644,-0.5335017938,0.76
 14568955\C,0.5540327203,0.4513145006,1.7895319552\C,1.0460278369,1.883
 2487072,1.6055722504\O,-0.9050001544,0.3923376965,1.8627848017\C,-1.63
 79564048,0.7452581957,0.8044471585\O,-1.2024944611,1.1291483519,-0.266
 1227983\C,-3.1359300569,0.6275838813,1.0433025904\C,-3.9054237593,-0.1
 488759773,-0.0746512136\C,-4.9505206444,0.9964996073,-0.1316514892\C,-

 Normal termination of Gaussian 16 at Tue Dec  8 21:39:46 2020.

 ----------------------------------------------------------------------
 # B3LYP/6-311++G(d,p) empiricaldispersion=gd3bj scf=xqc pop=npa geom=c
 heck
 ----------------------------------------------------------------------

 ---------------------------------------
 CID_126997648_JID_1890_Energie_neutraal
 ---------------------------------------
 Structure from the checkpoint file:  "JID_1890.chk"
 Charge =  0 Multiplicity = 1

 SCF Done:  E(RB3LYP) =  -539.131300108     A.U. after   13 cycles
 Normal termination of Gaussian 16 at Tue Dec  8 21:42:05 2020.

 ----------------------------------------------------------------------
 # B3LYP/6-311++G(d,p) empiricaldispersion=gd3bj scf=xqc pop=npa geom=c
 heck
 ----------------------------------------------------------------------

 -------------------------------------
 CID_126997648_JID_1890_Energie_kation
 -------------------------------------
 Structure from the checkpoint file:  "JID_1890.chk"
 Charge =  1 Multiplicity = 2

 SCF Done:  E(UB3LYP) =  -538.783052948     A.U. after   33 cycles
 SCF Done:  E(UB3LYP) =  -538.783052948     a.u. after    1 cycles
 Normal termination of Gaussian 16 at Tue Dec  8 21:49:23 2020.
 Gaussian 16:  ES64L-G16RevA.03 25-Dec-2016

 ------------------------------------
 CID_126997648_JID_1890_Energie_anion
 ------------------------------------
 Structure from the checkpoint file:  "JID_1890.chk"
 Charge = -1 Multiplicity = 2

                         Standard orientation:
 ---------------------------------------------------------------------
 Center     Atomic      Atomic             Coordinates (Angstroms)
 Number     Number       Type             X           Y           Z
 ---------------------------------------------------------------------
      1          6           0       -2.883284   -0.261209   -1.280275
      2          6           0       -2.478940    0.462401    0.000048
      3          6           0       -2.883240   -0.261455    1.280247
      4          8           0       -1.054990    0.794044    0.000049
      5          6           0       -0.145476   -0.183013   -0.000024
      6          8           0       -0.384521   -1.377156   -0.000134
      7          6           0        1.287463    0.328366    0.000026
      8          6           0        2.203174   -0.326885   -1.084847
      9          6           0        3.282909   -0.581331   -0.000047
     10          6           0        2.203158   -0.327104    1.084788
     11          8           0        1.298258    1.741311    0.000167
     12          1           0       -2.474360   -1.272578   -1.306713
     13          1           0       -2.528490    0.289977   -2.157198
     14          1           0       -3.976294   -0.319264   -1.332991
     15          1           0       -2.926708    1.460515    0.000154
     16          1           0       -2.474408   -1.272867    1.306438
     17          1           0       -2.528316    0.289511    2.157258
     18          1           0       -3.976251   -0.319417    1.333052
     19          1           0        1.767698   -1.255054   -1.461184
     20          1           0        2.453696    0.329154   -1.924458
     21          1           0        4.072816    0.177714    0.000036
     22          1           0        3.757540   -1.565812   -0.000147
     23          1           0        2.453672    0.328770    1.924530
     24          1           0        1.767666   -1.255342    1.460935
     25          1           0        2.227165    2.020478    0.000130
 ---------------------------------------------------------------------

 SCF Done:  E(UB3LYP) =  -539.115360037     A.U. after   32 cycles

 The electronic state is 2-A.
 Alpha  occ. eigenvalues --  -19.06276 -19.02158 -19.00625 -10.19792 -10.13709
 Alpha  occ. eigenvalues --  -10.13642 -10.06956 -10.06953 -10.06800 -10.06286
 Alpha  occ. eigenvalues --  -10.06285  -1.00456  -0.92882  -0.91822  -0.73730
 Alpha  occ. eigenvalues --   -0.69758  -0.59772  -0.59729  -0.56802  -0.53831
 Alpha  occ. eigenvalues --   -0.47284  -0.43065  -0.41007  -0.40411  -0.38203
 Alpha  occ. eigenvalues --   -0.36936  -0.36781  -0.34404  -0.32047  -0.31719
 Alpha  occ. eigenvalues --   -0.30908  -0.29682  -0.29247  -0.27280  -0.26630
 Alpha  occ. eigenvalues --   -0.25452  -0.24256  -0.23255  -0.22636  -0.21599
 Alpha  occ. eigenvalues --   -0.20369  -0.17012  -0.16609   0.04662
 Alpha virt. eigenvalues --    0.06015   0.08263   0.08426   0.08667   0.09234
 Alpha virt. eigenvalues --    0.09434   0.10410   0.10813   0.11488   0.12152
 Alpha virt. eigenvalues --    0.12236   0.12493   0.13627   0.14525   0.14894

  Beta  occ. eigenvalues --  -19.06273 -19.02116 -19.00620 -10.19792 -10.13709
  Beta  occ. eigenvalues --  -10.13630 -10.06938 -10.06935 -10.06758 -10.06259
  Beta  occ. eigenvalues --  -10.06259  -1.00449  -0.92800  -0.91815  -0.73696
  Beta  occ. eigenvalues --   -0.69726  -0.59726  -0.59678  -0.56753  -0.53780
  Beta  occ. eigenvalues --   -0.47195  -0.43008  -0.40972  -0.40352  -0.38161
  Beta  occ. eigenvalues --   -0.36916  -0.36731  -0.34351  -0.32023  -0.31689
  Beta  occ. eigenvalues --   -0.30889  -0.29637  -0.29215  -0.27253  -0.26598
  Beta  occ. eigenvalues --   -0.25427  -0.24218  -0.23217  -0.22588  -0.21563
  Beta  occ. eigenvalues --   -0.20357  -0.16994  -0.16574
  Beta virt. eigenvalues --    0.07050   0.07558   0.08806   0.08844   0.09029
  Beta virt. eigenvalues --    0.09663   0.10055   0.10729   0.11329   0.11906
  Beta virt. eigenvalues --    0.12183   0.12574   0.12999   0.13841   0.14548

 Mulliken charges and spin densities:
               1          2
     1  C    0.716113  -1.161052
     2  C   -0.800913   0.830093
     3  C    0.716111  -1.161052
     4  O    0.104498  -0.022347
     5  C   -0.039443  -0.698945
     6  O   -0.230477  -0.004313
     7  C   -0.688484   1.310354
     8  C    0.533422  -0.963508
     9  C    0.345782  -0.502110
    10  C    0.533427  -0.963490
    11  O   -0.186422  -0.038272
    12  H    0.058459   0.112945
    13  H    0.005983   0.127423
    14  H   -0.391494   0.556661
    15  H   -0.398252   0.583882
    16  H    0.058480   0.112921
    17  H    0.006005   0.127403
    18  H   -0.391551   0.556720
    19  H    0.060210   0.108701
    20  H   -0.097570   0.258371
    21  H   -0.458338   0.608921
    22  H   -0.216947   0.354039
    23  H   -0.097524   0.258321
    24  H    0.060211   0.108704
    25  H   -0.201283   0.499631
 Sum of Mulliken charges =  -1.00000   1.00000

 Dipole moment (field-independent basis, Debye):
    X=             -0.2588    Y=             -2.5369    Z=             -0.0002  Tot=              2.5501
 Quadrupole moment (field-independent basis, Debye-Ang):
   XX=           -153.5101   YY=           -101.8020   ZZ=            -93.3792
   XY=             -6.0648   XZ=              0.0004   YZ=             -0.0006

 Summary of Natural Population Analysis:

                                       Natural Population
                Natural  -----------------------------------------------
    Atom  No    Charge         Core      Valence    Rydberg      Total
 -----------------------------------------------------------------------
      C    1   -0.30125      0.99964     2.29576    0.00585     3.30125
      C    2    0.06280      0.99955     1.92410    0.01355     2.93720
      C    3   -0.30125      0.99964     2.29576    0.00585     3.30125
      O    4   -0.26840      0.99985     3.25965    0.00891     4.26840
      C    5    0.40700      0.99961     1.56762    0.02578     2.59300
      O    6   -0.32034      0.99987     3.31570    0.00477     4.32034
      C    7    0.08835      0.99949     1.89420    0.01796     2.91165
      C    8   -0.19196      0.99961     2.18343    0.00892     3.19196
      C    9   -0.19585      0.99965     2.18665    0.00955     3.19585
      C   10   -0.19196      0.99961     2.18343    0.00892     3.19196
      O   11   -0.36041      0.99988     3.35430    0.00623     4.36041
      H   12    0.10898      0.00000     0.39003    0.00099     0.39102
      H   13    0.10233      0.00000     0.39671    0.00097     0.39767
      H   14    0.10453      0.00000     0.39392    0.00154     0.39547
      H   15    0.09288      0.00000     0.40566    0.00146     0.40712
      H   16    0.10898      0.00000     0.39003    0.00099     0.39102
      H   17    0.10233      0.00000     0.39670    0.00097     0.39767
      H   18    0.10454      0.00000     0.39392    0.00154     0.39546
      H   19    0.10705      0.00000     0.39169    0.00126     0.39295
      H   20    0.10208      0.00000     0.39661    0.00131     0.39792
      H   21    0.10057      0.00000     0.39513    0.00430     0.39943
      H   22    0.09652      0.00000     0.40239    0.00110     0.40348
      H   23    0.10208      0.00000     0.39661    0.00130     0.39792
      H   24    0.10705      0.00000     0.39169    0.00126     0.39295
      H   25    0.23335      0.00000     0.25998    0.00667     0.26665
 =======================================================================
   * Total *    0.00000     10.99640    31.86166    0.14194    43.00000

 Normal termination of Gaussian 16 at Tue Dec  8 21:55:39 2020.
