 Gaussian 16, Revision A.03,

 -----------------------------------------------------------
 # opt freq B3LYP/6-31G(d) empiricaldispersion=gd3bj scf=xqc
 -----------------------------------------------------------

 ------------------------------
 CID_55221583_JID_4445_neutraal
 ------------------------------
 Symbolic Z-matrix:
 Charge =  0 Multiplicity = 1

 SCF Done:  E(RB3LYP) =  -582.474749354     A.U. after   13 cycles
 SCF Done:  E(RB3LYP) =  -582.480611615     A.U. after   11 cycles
 SCF Done:  E(RB3LYP) =  -582.480559721     A.U. after   11 cycles
 SCF Done:  E(RB3LYP) =  -582.481199947     A.U. after   11 cycles
 SCF Done:  E(RB3LYP) =  -582.483621245     A.U. after    9 cycles
 SCF Done:  E(RB3LYP) =  -582.485432544     A.U. after   11 cycles
 SCF Done:  E(RB3LYP) =  -582.486381662     A.U. after   10 cycles
 SCF Done:  E(RB3LYP) =  -582.485918727     A.U. after   11 cycles
 SCF Done:  E(RB3LYP) =  -582.486847315     A.U. after   10 cycles
 SCF Done:  E(RB3LYP) =  -582.486989449     A.U. after    9 cycles
 SCF Done:  E(RB3LYP) =  -582.486965392     A.U. after   10 cycles
 SCF Done:  E(RB3LYP) =  -582.486889554     A.U. after   10 cycles
 SCF Done:  E(RB3LYP) =  -582.486993327     A.U. after   10 cycles
 SCF Done:  E(RB3LYP) =  -582.487006988     A.U. after    8 cycles
 SCF Done:  E(RB3LYP) =  -582.487007817     A.U. after    7 cycles
 SCF Done:  E(RB3LYP) =  -582.487007923     A.U. after    7 cycles
 Optimization completed.
    -- Stationary point found.
 Normal termination of Gaussian 16 at Thu Dec 10 09:56:03 2020.

 --------------------------------------------------------------------
 #N Geom=AllCheck Guess=TCheck SCRF=Check GenChk RB3LYP/6-31G(d) Freq
 --------------------------------------------------------------------

 Structure from the checkpoint file:  "JID_4445.chk"
 ------------------------------
 CID_55221583_JID_4445_neutraal
 ------------------------------
 Charge =  0 Multiplicity = 1

 SCF Done:  E(RB3LYP) =  -582.487007923     A.U. after    1 cycles

  Exact polarizability: 154.656  -0.911 134.356   0.199  -0.088 124.809
 Approx polarizability: 195.720  -0.587 192.135   1.003   0.709 190.040

                      1                      2                      3
                      A                      A                      A
 Frequencies --     63.5094                90.5050               107.8748
 Red. masses --      2.8057                 2.9821                 2.6759
 Frc consts  --      0.0067                 0.0144                 0.0183
 IR Inten    --      0.4655                 0.4670                 0.4155

                      4                      5                      6
                      A                      A                      A
 Frequencies --    186.1372               198.5957               212.4606
 Red. masses --      2.7154                 2.5475                 1.9198
 Frc consts  --      0.0554                 0.0592                 0.0511
 IR Inten    --      2.0103                 0.8461                 0.6650

                      7                      8                      9
                      A                      A                      A
 Frequencies --    222.1264               230.3786               248.8820
 Red. masses --      1.2968                 1.3778                 1.1798
 Frc consts  --      0.0377                 0.0431                 0.0431
 IR Inten    --     10.0976                 5.7861                21.2815

                     10                     11                     12
                      A                      A                      A
 Frequencies --    258.4079               276.6131               285.4331
 Red. masses --      2.0232                 1.6276                 1.5035
 Frc consts  --      0.0796                 0.0734                 0.0722
 IR Inten    --     13.2008                 0.6777                 0.7433

                     13                     14                     15
                      A                      A                      A
 Frequencies --    299.5722               304.3041               333.7305
 Red. masses --      1.8692                 2.0743                 1.8477
 Frc consts  --      0.0988                 0.1132                 0.1212
 IR Inten    --      1.8216                 0.2540                 1.8725

                     16                     17                     18
                      A                      A                      A
 Frequencies --    340.4750               359.5819               376.0856
 Red. masses --      1.8468                 2.1790                 2.2003
 Frc consts  --      0.1261                 0.1660                 0.1834
 IR Inten    --      1.1156                 0.3177                 0.4840

                     19                     20                     21
                      A                      A                      A
 Frequencies --    401.3771               416.0844               429.3351
 Red. masses --      2.5364                 2.4571                 2.2929
 Frc consts  --      0.2408                 0.2506                 0.2490
 IR Inten    --      3.2796                 0.1370                 1.0644

                     22                     23                     24
                      A                      A                      A
 Frequencies --    438.3563               472.3972               490.7070
 Red. masses --      1.8056                 2.7731                 2.2856
 Frc consts  --      0.2044                 0.3646                 0.3243
 IR Inten    --      2.8997                 0.2762                 0.2959

                     25                     26                     27
                      A                      A                      A
 Frequencies --    510.1570               573.1075               588.5533
 Red. masses --      2.2291                 2.4378                 3.2342
 Frc consts  --      0.3418                 0.4718                 0.6601
 IR Inten    --      3.8222                 1.5295                 5.8274

                     28                     29                     30
                      A                      A                      A
 Frequencies --    639.3093               744.0745               837.6318
 Red. masses --      2.4785                 2.4580                 1.4833
 Frc consts  --      0.5968                 0.8018                 0.6132
 IR Inten    --      1.0507                 8.8004                 0.0338

                     31                     32                     33
                      A                      A                      A
 Frequencies --    839.6013               853.3364               872.5106
 Red. masses --      2.6052                 2.2452                 1.4053
 Frc consts  --      1.0820                 0.9633                 0.6303
 IR Inten    --      5.4383                 5.3386                46.5354

                     34                     35                     36
                      A                      A                      A
 Frequencies --    878.6673               907.4632               921.4984
 Red. masses --      1.5347                 2.1214                 2.0399
 Frc consts  --      0.6981                 1.0293                 1.0206
 IR Inten    --      7.8353                14.0671                 5.7395

                     37                     38                     39
                      A                      A                      A
 Frequencies --    941.8366               949.0426               976.2397
 Red. masses --      1.7859                 1.7123                 1.2161
 Frc consts  --      0.9334                 0.9086                 0.6829
 IR Inten    --      2.7647                 0.0873                 0.7137

                     40                     41                     42
                      A                      A                      A
 Frequencies --    978.3853               984.1877               990.1626
 Red. masses --      1.7501                 2.0072                 1.3014
 Frc consts  --      0.9870                 1.1455                 0.7518
 IR Inten    --      9.8860                48.4807                 4.3721

                     43                     44                     45
                      A                      A                      A
 Frequencies --   1044.9619              1052.0649              1055.6533
 Red. masses --      1.6109                 1.9294                 1.5676
 Frc consts  --      1.0364                 1.2582                 1.0293
 IR Inten    --      2.4476                 9.8667                 4.5111

                     46                     47                     48
                      A                      A                      A
 Frequencies --   1080.9406              1092.2435              1095.8872
 Red. masses --      1.6746                 1.9330                 2.2166
 Frc consts  --      1.1528                 1.3587                 1.5684
 IR Inten    --      1.8807                21.4930                 8.5488

                     49                     50                     51
                      A                      A                      A
 Frequencies --   1108.2925              1134.8359              1161.4632
 Red. masses --      1.8686                 2.2556                 2.3587
 Frc consts  --      1.3523                 1.7115                 1.8747
 IR Inten    --     12.0205                28.3601                12.4956

                     52                     53                     54
                      A                      A                      A
 Frequencies --   1181.1924              1191.7133              1211.0799
 Red. masses --      1.9443                 1.1970                 2.4097
 Frc consts  --      1.5983                 1.0016                 2.0824
 IR Inten    --      4.2432                 0.7622                56.7176

                     55                     56                     57
                      A                      A                      A
 Frequencies --   1230.5485              1257.2371              1263.6807
 Red. masses --      1.6521                 2.4891                 2.7304
 Frc consts  --      1.4739                 2.3180                 2.5690
 IR Inten    --      9.5427                11.9603                 9.1540

                     58                     59                     60
                      A                      A                      A
 Frequencies --   1278.0277              1291.3656              1302.0689
 Red. masses --      2.2463                 2.7313                 1.2525
 Frc consts  --      2.1617                 2.6836                 1.2511
 IR Inten    --      5.2177                 7.0602                 0.9959

                     61                     62                     63
                      A                      A                      A
 Frequencies --   1322.1869              1369.3223              1375.2894
 Red. masses --      1.1718                 1.4078                 1.3019
 Frc consts  --      1.2069                 1.5553                 1.4508
 IR Inten    --     10.4391                 1.1310                 1.2590

                     64                     65                     66
                      A                      A                      A
 Frequencies --   1392.8538              1398.5320              1405.3549
 Red. masses --      1.2416                 1.3444                 1.4288
 Frc consts  --      1.4192                 1.5493                 1.6626
 IR Inten    --     14.1041                 3.2814                 6.9548

                     67                     68                     69
                      A                      A                      A
 Frequencies --   1406.7030              1429.1586              1431.4757
 Red. masses --      1.3604                 1.2459                 1.2204
 Frc consts  --      1.5860                 1.4993                 1.4734
 IR Inten    --      1.5020                 1.6239                 0.8137

                     70                     71                     72
                      A                      A                      A
 Frequencies --   1438.1052              1443.2679              1450.6764
 Red. masses --      1.2424                 1.3538                 1.2782
 Frc consts  --      1.5139                 1.6615                 1.5849
 IR Inten    --     13.0839                 2.7669                15.2622

                     73                     74                     75
                      A                      A                      A
 Frequencies --   1468.5876              1503.0074              1510.7682
 Red. masses --      1.2165                 1.0979                 1.0772
 Frc consts  --      1.5458                 1.4612                 1.4486
 IR Inten    --     14.9191                 0.6184                 3.4739

                     76                     77                     78
                      A                      A                      A
 Frequencies --   1510.8459              1513.7013              1516.6110
 Red. masses --      1.0723                 1.0702                 1.0510
 Frc consts  --      1.4421                 1.4448                 1.4243
 IR Inten    --      3.6686                 0.4950                 1.1048

                     79                     80                     81
                      A                      A                      A
 Frequencies --   1524.7156              1527.0352              1531.6327
 Red. masses --      1.0824                 1.0818                 1.0519
 Frc consts  --      1.4826                 1.4862                 1.4539
 IR Inten    --      1.1857                 3.1257                 0.6504

                     82                     83                     84
                      A                      A                      A
 Frequencies --   1534.7797              1542.2103              1546.9922
 Red. masses --      1.0536                 1.0679                 1.0572
 Frc consts  --      1.4623                 1.4965                 1.4907
 IR Inten    --      6.3071                 3.8165                 3.5238

                     85                     86                     87
                      A                      A                      A
 Frequencies --   1552.5569              1556.3239              1562.5535
 Red. masses --      1.0659                 1.0631                 1.0652
 Frc consts  --      1.5138                 1.5172                 1.5324
 IR Inten    --      0.5051                17.3079                 1.0360

                     88                     89                     90
                      A                      A                      A
 Frequencies --   1696.0493              2903.0635              2926.3148
 Red. masses --      1.0855                 1.0742                 1.0732
 Frc consts  --      1.8397                 5.3340                 5.4147
 IR Inten    --     35.9621                56.8393                85.6795

                     91                     92                     93
                      A                      A                      A
 Frequencies --   3003.2559              3019.5853              3033.4927
 Red. masses --      1.0708                 1.0663                 1.0600
 Frc consts  --      5.6902                 5.7280                 5.7471
 IR Inten    --     52.6099                28.4690                43.6838

                     94                     95                     96
                      A                      A                      A
 Frequencies --   3035.7699              3049.2226              3051.0878
 Red. masses --      1.0612                 1.0422                 1.0406
 Frc consts  --      5.7622                 5.7094                 5.7074
 IR Inten    --     30.7835                24.7829                19.8999

                     97                     98                     99
                      A                      A                      A
 Frequencies --   3059.2985              3068.0317              3072.4093
 Red. masses --      1.0416                 1.0942                 1.0404
 Frc consts  --      5.7440                 6.0683                 5.7864
 IR Inten    --     57.7969                77.3416                17.5282

                    100                    101                    102
                      A                      A                      A
 Frequencies --   3074.5496              3082.3383              3093.6767
 Red. masses --      1.1050                 1.1047                 1.0921
 Frc consts  --      6.1544                 6.1840                 6.1582
 IR Inten    --     27.7493                82.5963                21.1041

                    103                    104                    105
                      A                      A                      A
 Frequencies --   3108.3461              3114.0252              3120.0104
 Red. masses --      1.0989                 1.0971                 1.0951
 Frc consts  --      6.2556                 6.2680                 6.2809
 IR Inten    --     11.2149                47.4613                40.2111

                    106                    107                    108
                      A                      A                      A
 Frequencies --   3123.9625              3135.3121              3142.0230
 Red. masses --      1.1006                 1.1012                 1.0904
 Frc consts  --      6.3286                 6.3778                 6.3427
 IR Inten    --     48.3902                27.8360                41.4078

                    109                    110                    111
                      A                      A                      A
 Frequencies --   3162.3359              3162.9884              3168.6763
 Red. masses --      1.0982                 1.0979                 1.0924
 Frc consts  --      6.4709                 6.4714                 6.4620
 IR Inten    --      6.7170                19.5457                38.8121

                    112                    113                    114
                      A                      A                      A
 Frequencies --   3177.3378              3478.6349              3565.0710
 Red. masses --      1.0885                 1.0507                 1.0915
 Frc consts  --      6.4745                 7.4910                 8.1734
 IR Inten    --     11.0255                 1.7657                 0.0781

 - Thermochemistry -
 -------------------
 Temperature   298.150 Kelvin.  Pressure   1.00000 Atm.
 Atom     1 has atomic number  6 and mass  12.00000

 Molecular mass:   198.20960 amu.
 Principal axes and moments of inertia in atomic units:
                           1         2         3
     Eigenvalues --  1752.394023525.649064036.05507
           X            0.99999  -0.00308   0.00084
           Y            0.00308   1.00000  -0.00054
           Z           -0.00084   0.00054   1.00000
 This molecule is an asymmetric top.
 Rotational symmetry number  1.
 Warning -- assumption of classical behavior for rotation
           may cause significant error
 Rotational temperatures (Kelvin)      0.04943     0.02457     0.02146
 Rotational constants (GHZ):           1.02987     0.51189     0.44715
 Zero-point vibrational energy     989635.1 (Joules/Mol)
                                  236.52847 (Kcal/Mol)
 Warning -- explicit consideration of  27 degrees of freedom as
           vibrations may cause significant error
 Vibrational temperatures:     91.38   130.22   155.21   267.81   285.73
          (Kelvin)            305.68   319.59   331.46   358.09   371.79
                              397.98   410.67   431.02   437.83   480.16
                              489.87   517.36   541.10   577.49   598.65
                              617.72   630.70   679.67   706.02   734.00
                              824.57   846.80   919.82  1070.56  1205.17
                             1208.00  1227.76  1255.35  1264.21  1305.64
                             1325.83  1355.09  1365.46  1404.59  1407.68
                             1416.03  1424.62  1503.47  1513.69  1518.85
                             1555.23  1571.49  1576.74  1594.59  1632.78
                             1671.09  1699.47  1714.61  1742.47  1770.48
                             1808.88  1818.15  1838.80  1857.99  1873.39
                             1902.33  1970.15  1978.73  2004.01  2012.18
                             2021.99  2023.93  2056.24  2059.57  2069.11
                             2076.54  2087.20  2112.97  2162.49  2173.66
                             2173.77  2177.88  2182.06  2193.73  2197.06
                             2203.68  2208.21  2218.90  2225.78  2233.78
                             2239.20  2248.17  2440.24  4176.86  4210.31
                             4321.02  4344.51  4364.52  4367.80  4387.15
                             4389.83  4401.65  4414.21  4420.51  4423.59
                             4434.80  4451.11  4472.22  4480.39  4489.00
                             4494.69  4511.01  4520.67  4549.90  4550.83
                             4559.02  4571.48  5004.98  5129.34

 Zero-point correction=                           0.376932 (Hartree/Particle)
 Thermal correction to Energy=                    0.392512
 Thermal correction to Enthalpy=                  0.393456
 Thermal correction to Gibbs Free Energy=         0.336901
 Sum of electronic and zero-point Energies=           -582.110076
 Sum of electronic and thermal Energies=              -582.094496
 Sum of electronic and thermal Enthalpies=            -582.093552
 Sum of electronic and thermal Free Energies=         -582.150107

                     E (Thermal)             CV                S
                      KCal/Mol        Cal/Mol-Kelvin    Cal/Mol-Kelvin
 Total                  246.305             63.626            119.030
 Electronic               0.000              0.000              0.000
 Translational            0.889              2.981             41.757
 Rotational               0.889              2.981             31.589
 Vibrational            244.528             57.665             45.684
 Vibration     1          0.597              1.972              4.345
 Vibration     2          0.602              1.956              3.649
 Vibration     3          0.606              1.943              3.307
 Vibration     4          0.632              1.859              2.266
 Vibration     5          0.637              1.842              2.146
 Vibration     6          0.643              1.822              2.022
 Vibration     7          0.648              1.807              1.942
 Vibration     8          0.652              1.795              1.876
 Vibration     9          0.662              1.765              1.738
 Vibration    10          0.667              1.749              1.673
 Vibration    11          0.678              1.717              1.555
 Vibration    12          0.683              1.701              1.501
 Vibration    13          0.692              1.674              1.419
 Vibration    14          0.695              1.666              1.393
 Vibration    15          0.715              1.608              1.242
 Vibration    16          0.720              1.595              1.210
 Vibration    17          0.734              1.556              1.124
 Vibration    18          0.747              1.521              1.055
 Vibration    19          0.767              1.467              0.958
 Vibration    20          0.779              1.435              0.905
 Vibration    21          0.791              1.406              0.861
 Vibration    22          0.799              1.387              0.832
 Vibration    23          0.829              1.311              0.731
 Vibration    24          0.846              1.271              0.682
 Vibration    25          0.865              1.227              0.633
 Vibration    26          0.929              1.089              0.498
 Vibration    27          0.946              1.056              0.470

                           ! Non-Optimized Parameters !
 Normal termination of Gaussian 16 at Thu Dec 10 10:10:37 2020.

 ----------------------------------------------------------------------
 # B3LYP/6-311++G(d,p) empiricaldispersion=gd3bj scf=xqc pop=npa geom=c
 heck
 ----------------------------------------------------------------------

 --------------------------------------
 CID_55221583_JID_4445_Energie_neutraal
 --------------------------------------
 Structure from the checkpoint file:  "JID_4445.chk"
 Charge =  0 Multiplicity = 1

 SCF Done:  E(RB3LYP) =  -582.653988818     A.U. after   14 cycles
 Normal termination of Gaussian 16 at Thu Dec 10 10:18:32 2020.

 ----------------------------------------------------------------------
 # B3LYP/6-311++G(d,p) empiricaldispersion=gd3bj scf=xqc pop=npa geom=c
 heck
 ----------------------------------------------------------------------

 ------------------------------------
 CID_55221583_JID_4445_Energie_kation
 ------------------------------------
 Structure from the checkpoint file:  "JID_4445.chk"
 Charge =  1 Multiplicity = 2

 SCF Done:  E(UB3LYP) =  -582.395144307     A.U. after   20 cycles
 Normal termination of Gaussian 16 at Thu Dec 10 10:36:40 2020.
 Gaussian 16:  ES64L-G16RevA.03 25-Dec-2016

 ----------------------------------------------------------------------
 # B3LYP/6-311++G(d,p) empiricaldispersion=gd3bj scf=xqc pop=npa geom=c
 heck
 ----------------------------------------------------------------------

 -----------------------------------
 CID_55221583_JID_4445_Energie_anion
 -----------------------------------
 Structure from the checkpoint file:  "JID_4445.chk"
 Charge = -1 Multiplicity = 2

                         Standard orientation:
 ---------------------------------------------------------------------
 Center     Atomic      Atomic             Coordinates (Angstroms)
 Number     Number       Type             X           Y           Z
 ---------------------------------------------------------------------
      1          6           0        3.202210   -0.173926   -0.095266
      2          6           0        1.747871   -0.559459   -0.452518
      3          6           0        1.427864   -0.050785   -1.872016
      4          6           0        1.723632   -2.103212   -0.513128
      5          6           0        0.711935    0.019879    0.611949
      6          6           0        0.827861   -0.755296    1.948220
      7          6           0        1.062457    1.480935    1.045809
      8          7           0        1.267893    2.497012    0.000248
      9          7           0       -0.715312   -0.028236    0.215627
     10          6           0       -1.305130    0.983199   -0.662924
     11          6           0       -2.766510    1.228200   -0.269740
     12          6           0       -3.570830   -0.073584   -0.353936
     13          6           0       -2.871045   -1.184563    0.435973
     14          6           0       -1.394878   -1.304030    0.030472
     15          1           0        3.890670   -0.648771   -0.804079
     16          1           0        3.482098   -0.514846    0.906869
     17          1           0        3.392345    0.902704   -0.142323
     18          1           0        2.228836   -0.345965   -2.561317
     19          1           0        0.497923   -0.491640   -2.242099
     20          1           0        1.317453    1.034072   -1.913273
     21          1           0        2.045205   -2.562115    0.426982
     22          1           0        0.736155   -2.493315   -0.765822
     23          1           0        2.415928   -2.442518   -1.293041
     24          1           0        1.856315   -0.750853    2.321046
     25          1           0        0.187207   -0.279420    2.696946
     26          1           0        0.520358   -1.797752    1.866934
     27          1           0        0.214319    1.815852    1.651629
     28          1           0        1.927161    1.414735    1.722735
     29          1           0        1.270345    3.415201    0.441126
     30          1           0        2.183475    2.388620   -0.427998
     31          1           0       -1.286250    0.655813   -1.720696
     32          1           0       -0.724226    1.901002   -0.611209
     33          1           0       -3.201925    1.992336   -0.927188
     34          1           0       -2.794681    1.619014    0.756102
     35          1           0       -4.598032    0.070493    0.003705
     36          1           0       -3.642858   -0.377650   -1.408851
     37          1           0       -2.913083   -0.959764    1.509617
     38          1           0       -3.375065   -2.147412    0.279136
     39          1           0       -0.924617   -2.081534    0.631609
     40          1           0       -1.345740   -1.641874   -1.025020
 ---------------------------------------------------------------------

 SCF Done:  E(UB3LYP) =  -582.638113433     A.U. after   30 cycles

 The electronic state is 2-A.
 Alpha  occ. eigenvalues --  -14.19222 -14.18566 -10.10974 -10.08806 -10.08510
 Alpha  occ. eigenvalues --  -10.08156 -10.07396 -10.06712 -10.06482 -10.06051
 Alpha  occ. eigenvalues --  -10.05390 -10.05388 -10.05330 -10.04835  -0.82184
 Alpha  occ. eigenvalues --   -0.77480  -0.72035  -0.68804  -0.64890  -0.64518
 Alpha  occ. eigenvalues --   -0.58441  -0.58177  -0.55772  -0.53710  -0.51519
 Alpha  occ. eigenvalues --   -0.48879  -0.45822  -0.42761  -0.40440  -0.37468
 Alpha  occ. eigenvalues --   -0.36853  -0.35673  -0.34760  -0.34650  -0.33781
 Alpha  occ. eigenvalues --   -0.32408  -0.31966  -0.30984  -0.30355  -0.29953
 Alpha  occ. eigenvalues --   -0.28330  -0.28012  -0.27422  -0.27256  -0.26388
 Alpha  occ. eigenvalues --   -0.25756  -0.25095  -0.23963  -0.23584  -0.22983
 Alpha  occ. eigenvalues --   -0.21894  -0.21464  -0.21006  -0.20385  -0.13612
 Alpha  occ. eigenvalues --   -0.09764   0.04578
 Alpha virt. eigenvalues --    0.06417   0.06907   0.07567   0.08363   0.08718
 Alpha virt. eigenvalues --    0.08957   0.09689   0.09871   0.10767   0.11206
 Alpha virt. eigenvalues --    0.11474   0.11660   0.12088   0.12674   0.13000

  Beta  occ. eigenvalues --  -14.19209 -14.18518 -10.10973 -10.08797 -10.08489
  Beta  occ. eigenvalues --  -10.08149 -10.07391 -10.06704 -10.06472 -10.06044
  Beta  occ. eigenvalues --  -10.05373 -10.05371 -10.05293 -10.04823  -0.82163
  Beta  occ. eigenvalues --   -0.77406  -0.72010  -0.68782  -0.64871  -0.64488
  Beta  occ. eigenvalues --   -0.58398  -0.58127  -0.55719  -0.53665  -0.51488
  Beta  occ. eigenvalues --   -0.48837  -0.45789  -0.42720  -0.40402  -0.37408
  Beta  occ. eigenvalues --   -0.36822  -0.35646  -0.34711  -0.34620  -0.33750
  Beta  occ. eigenvalues --   -0.32374  -0.31941  -0.30962  -0.30322  -0.29934
  Beta  occ. eigenvalues --   -0.28303  -0.27981  -0.27393  -0.27231  -0.26361
  Beta  occ. eigenvalues --   -0.25734  -0.25069  -0.23937  -0.23559  -0.22956
  Beta  occ. eigenvalues --   -0.21867  -0.21444  -0.20980  -0.20360  -0.13565
  Beta  occ. eigenvalues --   -0.09695
  Beta virt. eigenvalues --    0.06523   0.07267   0.07724   0.07802   0.08898
  Beta virt. eigenvalues --    0.09128   0.09326   0.09918   0.10246   0.11076
  Beta virt. eigenvalues --    0.11697   0.11764   0.11937   0.12196   0.12991

 Mulliken charges and spin densities:
               1          2
     1  C    0.825569  -1.382397
     2  C   -1.438659   1.717889
     3  C    0.238984  -0.741297
     4  C   -0.238683  -0.382561
     5  C    0.082133  -0.039560
     6  C    1.831343  -2.336780
     7  C    0.619581  -1.363844
     8  N   -0.864970   0.448571
     9  N    0.298906   0.184872
    10  C   -0.693961   0.392897
    11  C    0.106431  -0.373076
    12  C   -0.598481   0.222490
    13  C    0.593341  -0.949627
    14  C   -0.536586   0.392105
    15  H   -0.081572   0.228816
    16  H   -0.104089   0.256127
    17  H   -0.732144   0.860232
    18  H   -0.144388   0.295714
    19  H    0.105694   0.036512
    20  H    0.000915   0.137088
    21  H   -0.093632   0.245035
    22  H   -0.221713   0.360537
    23  H   -0.030790   0.194505
    24  H    0.013880   0.138071
    25  H    0.064516   0.098754
    26  H    0.071280   0.048792
    27  H    0.068151   0.113349
    28  H   -0.421391   0.580516
    29  H   -0.520651   0.774558
    30  H    0.273140  -0.051733
    31  H    0.010765   0.080880
    32  H    0.511902  -0.242146
    33  H    0.004185   0.137046
    34  H   -0.026727   0.146425
    35  H   -0.105130   0.272561
    36  H    0.095594   0.008030
    37  H    0.066549   0.050047
    38  H   -0.224354   0.374147
    39  H    0.086481   0.066091
    40  H    0.108581   0.000361
 Sum of Mulliken charges =  -1.00000   1.00000

 Dipole moment (field-independent basis, Debye):
    X=             -4.2335    Y=             -3.0774    Z=             -1.4003  Tot=              5.4179
 Quadrupole moment (field-independent basis, Debye-Ang):
   XX=           -160.9965   YY=           -148.4213   ZZ=           -126.3212
   XY=            -10.3214   XZ=             -1.5223   YZ=             -3.1042

 Summary of Natural Population Analysis:

                                       Natural Population
                Natural  -----------------------------------------------
    Atom  No    Charge         Core      Valence    Rydberg      Total
 -----------------------------------------------------------------------
      C    1   -0.28492      0.99962     2.27776    0.00754     3.28492
      C    2   -0.05094      0.99954     2.03722    0.01418     3.05094
      C    3   -0.28879      0.99962     2.28233    0.00685     3.28879
      C    4   -0.28676      0.99962     2.27979    0.00734     3.28676
      C    5    0.08375      0.99951     1.89770    0.01904     2.91625
      C    6   -0.28897      0.99961     2.28210    0.00726     3.28897
      C    7   -0.09518      0.99955     2.08160    0.01403     3.09518
      N    8   -0.42857      0.99976     2.91751    0.01131     3.92857
      N    9   -0.29869      0.99967     2.78446    0.01456     3.79869
      C   10   -0.09021      0.99959     2.08077    0.00985     3.09021
      C   11   -0.19070      0.99962     2.18326    0.00782     3.19070
      C   12   -0.19041      0.99963     2.18318    0.00760     3.19041
      C   13   -0.19058      0.99962     2.18251    0.00845     3.19058
      C   14   -0.08272      0.99960     2.07190    0.01122     3.08272
      H   15    0.09939      0.00000     0.39952    0.00109     0.40061
      H   16    0.10082      0.00000     0.39789    0.00129     0.39918
      H   17    0.09765      0.00000     0.40051    0.00185     0.40235
      H   18    0.09634      0.00000     0.40283    0.00084     0.40366
      H   19    0.09858      0.00000     0.40008    0.00134     0.40142
      H   20    0.10978      0.00000     0.38859    0.00163     0.39022
      H   21    0.09971      0.00000     0.39937    0.00093     0.40029
      H   22    0.10090      0.00000     0.39783    0.00126     0.39910
      H   23    0.09857      0.00000     0.40055    0.00088     0.40143
      H   24    0.10167      0.00000     0.39733    0.00100     0.39833
      H   25    0.10335      0.00000     0.39532    0.00133     0.39665
      H   26    0.09949      0.00000     0.39951    0.00100     0.40051
      H   27    0.09783      0.00000     0.40057    0.00160     0.40217
      H   28    0.08877      0.00000     0.40913    0.00210     0.41123
      H   29    0.18147      0.00000     0.31486    0.00367     0.31853
      H   30    0.17700      0.00000     0.32024    0.00276     0.32300
      H   31    0.07331      0.00000     0.42484    0.00185     0.42669
      H   32    0.12006      0.00000     0.37755    0.00239     0.37994
      H   33    0.09414      0.00000     0.40508    0.00078     0.40586
      H   34    0.09464      0.00000     0.40382    0.00154     0.40536
      H   35    0.09569      0.00000     0.40332    0.00099     0.40431
      H   36    0.09055      0.00000     0.40816    0.00130     0.40945
      H   37    0.09497      0.00000     0.40358    0.00145     0.40503
      H   38    0.09459      0.00000     0.40449    0.00092     0.40541
      H   39    0.09881      0.00000     0.39973    0.00146     0.40119
      H   40    0.07562      0.00000     0.42276    0.00162     0.42438
 =======================================================================
   * Total *    0.00000     13.99457    41.81952    0.18592    56.00000

 Normal termination of Gaussian 16 at Thu Dec 10 11:03:14 2020.
