 Gaussian 16, Revision A.03,

 -----------------------------------------------------------
 # opt freq B3LYP/6-31G(d) empiricaldispersion=gd3bj scf=xqc
 -----------------------------------------------------------

 -------------------------------
 CID_131300628_JID_6328_neutraal
 -------------------------------
 Symbolic Z-matrix:
 Charge =  0 Multiplicity = 1

 SCF Done:  E(RB3LYP) =  -1064.70490484     A.U. after   16 cycles
 SCF Done:  E(RB3LYP) =  -1064.71390950     A.U. after   13 cycles
 SCF Done:  E(RB3LYP) =  -1064.71515345     A.U. after   13 cycles
 SCF Done:  E(RB3LYP) =  -1064.71636300     A.U. after   12 cycles
 SCF Done:  E(RB3LYP) =  -1064.71656650     A.U. after   12 cycles
 SCF Done:  E(RB3LYP) =  -1064.71676934     A.U. after   11 cycles
 SCF Done:  E(RB3LYP) =  -1064.71683001     A.U. after   11 cycles
 SCF Done:  E(RB3LYP) =  -1064.71685216     A.U. after   10 cycles
 SCF Done:  E(RB3LYP) =  -1064.71686297     A.U. after    9 cycles
 SCF Done:  E(RB3LYP) =  -1064.71686695     A.U. after    9 cycles
 SCF Done:  E(RB3LYP) =  -1064.71687097     A.U. after    8 cycles
 SCF Done:  E(RB3LYP) =  -1064.71687270     A.U. after    9 cycles
 SCF Done:  E(RB3LYP) =  -1064.71687409     A.U. after    9 cycles
 SCF Done:  E(RB3LYP) =  -1064.71687509     A.U. after    9 cycles
 SCF Done:  E(RB3LYP) =  -1064.71687537     A.U. after    8 cycles
 Optimization completed.
    -- Stationary point found.
 Normal termination of Gaussian 16 at Thu Dec 10 22:14:36 2020.

 --------------------------------------------------------------------
 #N Geom=AllCheck Guess=TCheck SCRF=Check GenChk RB3LYP/6-31G(d) Freq
 --------------------------------------------------------------------

 Structure from the checkpoint file:  "JID_6328.chk"
 -------------------------------
 CID_131300628_JID_6328_neutraal
 -------------------------------
 Charge =  0 Multiplicity = 1

 SCF Done:  E(RB3LYP) =  -1064.71687537     A.U. after    1 cycles

  Exact polarizability: 222.960  -6.598 164.268  -2.687  -2.596  84.615
 Approx polarizability: 307.228  -8.139 287.608  -5.190  -9.933 137.691

                      1                      2                      3
                      A                      A                      A
 Frequencies --     41.9388                53.6730                65.0256
 Red. masses --      4.2809                 4.9019                 3.8102
 Frc consts  --      0.0044                 0.0083                 0.0095
 IR Inten    --      2.3067                 0.1557                 1.6157

                      4                      5                      6
                      A                      A                      A
 Frequencies --     86.3364                97.8024               125.2687
 Red. masses --      1.5725                 4.9509                 2.2888
 Frc consts  --      0.0069                 0.0279                 0.0212
 IR Inten    --      1.8135                 1.1887                 0.4909

                      7                      8                      9
                      A                      A                      A
 Frequencies --    139.2558               183.5974               199.0780
 Red. masses --      2.6458                 2.4710                 2.2837
 Frc consts  --      0.0302                 0.0491                 0.0533
 IR Inten    --      0.5014                 1.0470                 1.3387

                     10                     11                     12
                      A                      A                      A
 Frequencies --    221.8603               239.7415               267.4032
 Red. masses --      2.7045                 4.5658                 4.6407
 Frc consts  --      0.0784                 0.1546                 0.1955
 IR Inten    --      0.1680                 3.3726                 2.7407

                     13                     14                     15
                      A                      A                      A
 Frequencies --    271.8990               305.6913               335.4230
 Red. masses --      3.8056                 2.2715                 2.9677
 Frc consts  --      0.1658                 0.1251                 0.1967
 IR Inten    --      3.2652                15.3166                 4.7322

                     16                     17                     18
                      A                      A                      A
 Frequencies --    377.0362               404.8803               419.7280
 Red. masses --      2.0976                 2.1873                 4.1193
 Frc consts  --      0.1757                 0.2113                 0.4276
 IR Inten    --     42.6289                56.2928                41.1018

                     19                     20                     21
                      A                      A                      A
 Frequencies --    473.1540               496.4207               581.7426
 Red. masses --      5.1617                 4.7239                 4.2261
 Frc consts  --      0.6808                 0.6859                 0.8427
 IR Inten    --      0.7578                 2.2417                 5.2175

                     22                     23                     24
                      A                      A                      A
 Frequencies --    588.7524               621.5001               636.4242
 Red. masses --      3.8154                 9.3314                 7.1776
 Frc consts  --      0.7792                 2.1236                 1.7129
 IR Inten    --      1.5518                10.5080                 4.9350

                     25                     26                     27
                      A                      A                      A
 Frequencies --    668.2405               697.5701               748.1254
 Red. masses --      4.2198                 4.2425                 3.2677
 Frc consts  --      1.1102                 1.2163                 1.0776
 IR Inten    --     11.2938                23.8978                 5.7642

                     28                     29                     30
                      A                      A                      A
 Frequencies --    754.5358               778.9502               780.1524
 Red. masses --      1.3397                 3.9025                 2.3921
 Frc consts  --      0.4494                 1.3951                 0.8578
 IR Inten    --      9.2888                43.4960                15.9348

                     31                     32                     33
                      A                      A                      A
 Frequencies --    798.9514               814.3488               816.7281
 Red. masses --      1.4099                 2.5038                 1.8941
 Frc consts  --      0.5302                 0.9783                 0.7444
 IR Inten    --     47.7616                 5.0423                59.1035

                     34                     35                     36
                      A                      A                      A
 Frequencies --    837.5702               840.5946               887.8191
 Red. masses --      1.4543                 1.7691                 4.3288
 Frc consts  --      0.6011                 0.7365                 2.0103
 IR Inten    --    169.6730                38.7014                26.7270

                     37                     38                     39
                      A                      A                      A
 Frequencies --    898.1430               965.8491               983.3260
 Red. masses --      4.6299                 3.0399                 2.7277
 Frc consts  --      2.2005                 1.6708                 1.5540
 IR Inten    --     61.7129                15.1234                29.5957

                     40                     41                     42
                      A                      A                      A
 Frequencies --   1069.9123              1078.0093              1095.4737
 Red. masses --      2.0414                 1.5637                 1.6404
 Frc consts  --      1.3768                 1.0707                 1.1598
 IR Inten    --      7.0141                15.4239                 1.7533

                     43                     44                     45
                      A                      A                      A
 Frequencies --   1154.9643              1158.9326              1179.1637
 Red. masses --      1.4735                 1.3357                 1.6409
 Frc consts  --      1.1580                 1.0570                 1.3442
 IR Inten    --     16.2388                 7.1353                65.4856

                     46                     47                     48
                      A                      A                      A
 Frequencies --   1218.9655              1244.4071              1269.3944
 Red. masses --      1.8814                 1.7827                 2.5083
 Frc consts  --      1.6471                 1.6265                 2.3814
 IR Inten    --     15.2931                27.7445                30.0202

                     49                     50                     51
                      A                      A                      A
 Frequencies --   1297.6058              1300.4103              1355.5421
 Red. masses --      2.2418                 1.3932                 3.2169
 Frc consts  --      2.2240                 1.3882                 3.4827
 IR Inten    --     76.9038                 5.7709                 6.6783

                     52                     53                     54
                      A                      A                      A
 Frequencies --   1371.4327              1397.1704              1435.0941
 Red. masses --      1.6679                 2.9710                 1.4603
 Frc consts  --      1.8483                 3.4171                 1.7720
 IR Inten    --     39.7780                 3.2186                 3.3568

                     55                     56                     57
                      A                      A                      A
 Frequencies --   1443.3942              1473.7344              1503.9872
 Red. masses --      3.4107                 1.3229                 6.5340
 Frc consts  --      4.1866                 1.6928                 8.7080
 IR Inten    --      9.6636                26.1805                69.4718

                     58                     59                     60
                      A                      A                      A
 Frequencies --   1509.2890              1522.0809              1526.1767
 Red. masses --      1.0858                 1.0555                 1.0510
 Frc consts  --      1.4573                 1.4407                 1.4423
 IR Inten    --     19.3390                 4.3765                 4.1723

                     61                     62                     63
                      A                      A                      A
 Frequencies --   1531.9192              1533.1691              1537.3563
 Red. masses --      1.4045                 4.9990                 1.1358
 Frc consts  --      1.9419                 6.9232                 1.5816
 IR Inten    --     53.1498                44.8276                 7.5098

                     64                     65                     66
                      A                      A                      A
 Frequencies --   1565.1205              1567.0806              1629.8147
 Red. masses --      3.0632                 2.1430                 7.2841
 Frc consts  --      4.4210                 3.1006                11.4000
 IR Inten    --    364.7135                 1.5540                41.8433

                     67                     68                     69
                      A                      A                      A
 Frequencies --   1680.1939              1700.3447              3033.0547
 Red. masses --      2.7881                 2.3571                 1.0673
 Frc consts  --      4.6375                 4.0151                 5.7847
 IR Inten    --    361.4367               121.2090                30.3355

                     70                     71                     72
                      A                      A                      A
 Frequencies --   3042.1687              3050.6969              3086.1166
 Red. masses --      1.0473                 1.0353                 1.0952
 Frc consts  --      5.7108                 5.6770                 6.1457
 IR Inten    --     66.2874                37.3965                 5.4020

                     73                     74                     75
                      A                      A                      A
 Frequencies --   3114.2114              3117.9084              3129.1091
 Red. masses --      1.0942                 1.1018                 1.1030
 Frc consts  --      6.2522                 6.3109                 6.3631
 IR Inten    --     12.3306                54.3258                33.2121

                     76                     77                     78
                      A                      A                      A
 Frequencies --   3177.0869              3246.2696              3270.5060
 Red. masses --      1.0990                 1.0942                 1.0953
 Frc consts  --      6.5361                 6.7936                 6.9025
 IR Inten    --      8.0831                 1.9967                 3.0139

                     79                     80                     81
                      A                      A                      A
 Frequencies --   3292.9909              3442.9548              3594.2927
 Red. masses --      1.0943                 1.0557                 1.0903
 Frc consts  --      6.9915                 7.3732                 8.2989
 IR Inten    --      1.1842                79.8171                30.0007

 - Thermochemistry -
 -------------------
 Temperature   298.150 Kelvin.  Pressure   1.00000 Atm.
 Atom     1 has atomic number  6 and mass  12.00000

 Molecular mass:   235.07793 amu.
 Principal axes and moments of inertia in atomic units:
                           1         2         3
     Eigenvalues --  2102.956296770.916988565.94418
           X            0.99986   0.01625  -0.00265
           Y           -0.01625   0.99986  -0.00245
           Z            0.00261   0.00249   0.99999
 This molecule is an asymmetric top.
 Rotational symmetry number  1.
 Warning -- assumption of classical behavior for rotation
           may cause significant error
 Rotational temperatures (Kelvin)      0.04119     0.01279     0.01011
 Rotational constants (GHZ):           0.85819     0.26654     0.21069
 Zero-point vibrational energy     606818.0 (Joules/Mol)
                                  145.03298 (Kcal/Mol)
 Warning -- explicit consideration of  22 degrees of freedom as
           vibrations may cause significant error
 Vibrational temperatures:     60.34    77.22    93.56   124.22   140.72
          (Kelvin)            180.23   200.36   264.16   286.43   319.21
                              344.93   384.73   391.20   439.82   482.60
                              542.47   582.53   603.89   680.76   714.24
                              837.00   847.08   894.20   915.67   961.45
                             1003.65  1076.39  1085.61  1120.74  1122.47
                             1149.51  1171.67  1175.09  1205.08  1209.43
                             1277.37  1292.23  1389.64  1414.79  1539.37
                             1551.01  1576.14  1661.74  1667.45  1696.55
                             1753.82  1790.42  1826.38  1866.97  1871.00
                             1950.32  1973.19  2010.22  2064.78  2076.72
                             2120.38  2163.90  2171.53  2189.93  2195.83
                             2204.09  2205.89  2211.91  2251.86  2254.68
                             2344.94  2417.42  2446.42  4363.89  4377.00
                             4389.27  4440.23  4480.66  4485.97  4502.09
                             4571.12  4670.66  4705.53  4737.88  4953.64
                             5171.39

 Zero-point correction=                           0.231125 (Hartree/Particle)
 Thermal correction to Energy=                    0.246645
 Thermal correction to Enthalpy=                  0.247589
 Thermal correction to Gibbs Free Energy=         0.187506
 Sum of electronic and zero-point Energies=          -1064.485751
 Sum of electronic and thermal Energies=             -1064.470230
 Sum of electronic and thermal Enthalpies=           -1064.469286
 Sum of electronic and thermal Free Energies=        -1064.529369

                     E (Thermal)             CV                S
                      KCal/Mol        Cal/Mol-Kelvin    Cal/Mol-Kelvin
 Total                  154.772             57.924            126.456
 Electronic               0.000              0.000              0.000
 Translational            0.889              2.981             42.266
 Rotational               0.889              2.981             33.167
 Vibrational            152.995             51.963             51.023
 Vibration     1          0.595              1.980              5.165
 Vibration     2          0.596              1.976              4.677
 Vibration     3          0.597              1.971              4.299
 Vibration     4          0.601              1.959              3.741
 Vibration     5          0.603              1.951              3.498
 Vibration     6          0.610              1.928              3.017
 Vibration     7          0.615              1.914              2.814
 Vibration     8          0.631              1.862              2.292
 Vibration     9          0.637              1.841              2.142
 Vibration    10          0.648              1.808              1.944
 Vibration    11          0.657              1.780              1.805
 Vibration    12          0.673              1.733              1.613
 Vibration    13          0.675              1.725              1.584
 Vibration    14          0.696              1.663              1.386
 Vibration    15          0.717              1.605              1.234
 Vibration    16          0.748              1.519              1.051
 Vibration    17          0.770              1.460              0.945
 Vibration    18          0.782              1.427              0.893
 Vibration    19          0.830              1.310              0.729
 Vibration    20          0.852              1.258              0.667
 Vibration    21          0.939              1.071              0.482
 Vibration    22          0.946              1.056              0.469

                           ! Non-Optimized Parameters !
 Normal termination of Gaussian 16 at Thu Dec 10 22:24:26 2020.

 ----------------------------------------------------------------------
 # B3LYP/6-311++G(d,p) empiricaldispersion=gd3bj scf=xqc pop=npa geom=c
 heck
 ----------------------------------------------------------------------

 ---------------------------------------
 CID_131300628_JID_6328_Energie_neutraal
 ---------------------------------------
 Structure from the checkpoint file:  "JID_6328.chk"
 Charge =  0 Multiplicity = 1

 SCF Done:  E(RB3LYP) =  -1064.92813794     A.U. after   17 cycles
 Normal termination of Gaussian 16 at Thu Dec 10 22:29:45 2020.

 ----------------------------------------------------------------------
 # B3LYP/6-311++G(d,p) empiricaldispersion=gd3bj scf=xqc pop=npa geom=c
 heck
 ----------------------------------------------------------------------

 -------------------------------------
 CID_131300628_JID_6328_Energie_kation
 -------------------------------------
 Structure from the checkpoint file:  "JID_6328.chk"
 Charge =  1 Multiplicity = 2

 SCF Done:  E(UB3LYP) =  -1064.66716828     A.U. after   25 cycles
 Normal termination of Gaussian 16 at Thu Dec 10 22:40:57 2020.
 Gaussian 16:  ES64L-G16RevA.03 25-Dec-2016

 ----------------------------------------------------------------------
 # B3LYP/6-311++G(d,p) empiricaldispersion=gd3bj scf=xqc pop=npa geom=c
 heck
 ----------------------------------------------------------------------

 ------------------------------------
 CID_131300628_JID_6328_Energie_anion
 ------------------------------------
 Structure from the checkpoint file:  "JID_6328.chk"
 Charge = -1 Multiplicity = 2

                         Standard orientation:
 ---------------------------------------------------------------------
 Center     Atomic      Atomic             Coordinates (Angstroms)
 Number     Number       Type             X           Y           Z
 ---------------------------------------------------------------------
      1          6           0        3.620341    2.631823   -0.598474
      2          6           0        3.063872    1.978012    0.680486
      3          6           0        2.148377    0.823738    0.423424
      4          6           0        0.783385    0.770222    0.393515
      5          6           0        0.381362   -0.573763    0.056905
      6          6           0        1.572359   -1.303824   -0.097331
      7          7           0        2.628848   -0.462706    0.096657
      8          6           0        4.013033   -0.886094    0.030659
      9          7           0        1.722481   -2.624942   -0.453076
     10          6           0       -0.914673   -1.202296   -0.045762
     11          8           0       -1.054305   -2.424688   -0.210006
     12          6           0       -2.141760   -0.346191    0.028266
     13          6           0       -2.273839    0.903838   -0.521091
     14         16           0       -3.890424    1.488240   -0.320893
     15          6           0       -4.270417   -0.012008    0.509581
     16          7           0       -3.291761   -0.855173    0.605408
     17          1           0        4.205531    1.923968   -1.196256
     18          1           0        4.267156    3.482129   -0.354311
     19          1           0        2.799667    2.990024   -1.228184
     20          1           0        3.895307    1.676055    1.332562
     21          1           0        2.498197    2.727660    1.244773
     22          1           0        0.127369    1.595850    0.627645
     23          1           0        4.340071   -1.361614    0.964712
     24          1           0        4.131467   -1.598317   -0.791496
     25          1           0        4.654139   -0.025807   -0.161006
     26          1           0        0.807797   -3.079880   -0.429159
     27          1           0        2.438762   -3.139181    0.047407
     28          1           0       -1.528597    1.478334   -1.050611
     29          1           0       -5.264856   -0.184561    0.904276
 ---------------------------------------------------------------------

 SCF Done:  E(UB3LYP) =  -1064.92867566     A.U. after   33 cycles
 SCF Done:  E(UB3LYP) =  -1064.92867566     a.u. after    1 cycles

 The electronic state is 2-A.
 Alpha  occ. eigenvalues --  -88.76487 -18.95150 -14.25292 -14.21110 -14.20073
 Alpha  occ. eigenvalues --  -10.12230 -10.11603 -10.11185 -10.10683 -10.08528
 Alpha  occ. eigenvalues --  -10.08160 -10.07875 -10.07307 -10.06907 -10.04447
 Alpha  occ. eigenvalues --  -10.03970  -7.85144  -5.81402  -5.81069  -5.80791
 Alpha  occ. eigenvalues --   -0.89444  -0.88310  -0.84443  -0.79451  -0.70406
 Alpha  occ. eigenvalues --   -0.68412  -0.68199  -0.63830  -0.59723  -0.59352
 Alpha  occ. eigenvalues --   -0.53085  -0.50917  -0.48280  -0.48120  -0.43802
 Alpha  occ. eigenvalues --   -0.42729  -0.40642  -0.38839  -0.37195  -0.36949
 Alpha  occ. eigenvalues --   -0.34958  -0.33632  -0.32426  -0.31780  -0.31352
 Alpha  occ. eigenvalues --   -0.30222  -0.29703  -0.29036  -0.28647  -0.27804
 Alpha  occ. eigenvalues --   -0.27752  -0.26239  -0.25295  -0.24261  -0.23793
 Alpha  occ. eigenvalues --   -0.19948  -0.17413  -0.16205  -0.13724  -0.13193
 Alpha  occ. eigenvalues --   -0.11704  -0.07918   0.03885
 Alpha virt. eigenvalues --    0.05454   0.06857   0.08179   0.08330   0.08678
 Alpha virt. eigenvalues --    0.08773   0.09533   0.10354   0.10978   0.11364
 Alpha virt. eigenvalues --    0.11926   0.12291   0.12673   0.13526   0.13612

  Beta  occ. eigenvalues --  -88.76452 -18.94874 -14.25287 -14.21093 -14.20093
  Beta  occ. eigenvalues --  -10.12157 -10.11542 -10.11139 -10.10482 -10.08544
  Beta  occ. eigenvalues --  -10.08148 -10.07872 -10.06994 -10.06884 -10.04398
  Beta  occ. eigenvalues --  -10.04015  -7.85112  -5.81386  -5.81056  -5.80673
  Beta  occ. eigenvalues --   -0.89268  -0.87951  -0.84353  -0.79392  -0.70350
  Beta  occ. eigenvalues --   -0.68333  -0.67962  -0.63537  -0.59651  -0.59245
  Beta  occ. eigenvalues --   -0.52951  -0.50643  -0.48058  -0.47855  -0.43719
  Beta  occ. eigenvalues --   -0.42667  -0.40499  -0.38730  -0.37157  -0.36874
  Beta  occ. eigenvalues --   -0.34857  -0.33598  -0.32349  -0.31664  -0.31144
  Beta  occ. eigenvalues --   -0.30016  -0.29563  -0.28772  -0.28487  -0.27669
  Beta  occ. eigenvalues --   -0.27546  -0.26072  -0.25257  -0.24096  -0.22758
  Beta  occ. eigenvalues --   -0.19849  -0.16832  -0.16185  -0.12985  -0.12615
  Beta  occ. eigenvalues --   -0.11366  -0.07641
  Beta virt. eigenvalues --    0.06223   0.07309   0.08063   0.08225   0.08646
  Beta virt. eigenvalues --    0.08956   0.09588   0.09776   0.10625   0.11097
  Beta virt. eigenvalues --    0.11546   0.12026   0.12303   0.12892   0.13625

 Mulliken charges and spin densities:
               1          2
     1  C    0.336038  -0.838988
     2  C   -1.081783   0.445328
     3  C    0.605358  -0.159411
     4  C   -0.792491   0.057698
     5  C    0.906814  -0.033046
     6  C    0.440267  -0.114411
     7  N   -0.026919   0.164877
     8  C    0.800261  -1.236878
     9  N   -0.427700   0.017432
    10  C   -1.310371   0.077709
    11  O   -0.367263   0.100284
    12  C   -0.866190  -0.003562
    13  C    0.709267   0.244787
    14  S   -0.519320   0.067409
    15  C    0.290621   0.043376
    16  N    0.072954  -0.016514
    17  H    0.030178   0.103204
    18  H   -0.255869   0.381488
    19  H    0.105949   0.028112
    20  H   -0.085135   0.245278
    21  H    0.025205   0.133433
    22  H    0.185933  -0.019246
    23  H   -0.417899   0.618792
    24  H   -0.031183   0.198761
    25  H   -0.325602   0.454845
    26  H    0.282659   0.023490
    27  H    0.192316   0.030020
    28  H    0.286455  -0.013089
    29  H    0.237452  -0.001176
 Sum of Mulliken charges =  -1.00000   1.00000

 Dipole moment (field-independent basis, Debye):
    X=             -2.2751    Y=              2.4495    Z=             -0.4831  Tot=              3.3778
 Quadrupole moment (field-independent basis, Debye-Ang):
   XX=           -173.9790   YY=           -135.3672   ZZ=           -120.9930
   XY=            -12.5934   XZ=             -3.9374   YZ=             -1.1625

 Summary of Natural Population Analysis:

                                       Natural Population
                Natural  -----------------------------------------------
    Atom  No    Charge         Core      Valence    Rydberg      Total
 -----------------------------------------------------------------------
      C    1   -0.28210      0.99966     2.27705    0.00539     3.28210
      C    2   -0.20872      0.99961     2.19992    0.00919     3.20872
      C    3    0.06163      0.99951     1.92633    0.01253     2.93837
      C    4   -0.11606      0.99948     2.10922    0.00737     3.11606
      C    5   -0.13664      0.99946     2.12618    0.01100     3.13664
      C    6    0.22413      0.99950     1.76291    0.01346     2.77587
      N    7   -0.21561      0.99959     2.70667    0.00935     3.71561
      C    8   -0.17923      0.99964     2.17165    0.00793     3.17923
      N    9   -0.40956      0.99970     2.90020    0.00966     3.90956
      C   10    0.27722      0.99953     1.70467    0.01858     2.72278
      O   11   -0.29365      0.99988     3.28815    0.00562     4.29365
      C   12    0.02572      0.99945     1.96025    0.01459     2.97428
      C   13   -0.13861      0.99949     2.13053    0.00859     3.13861
      S   14    0.17169      4.99949     2.80621    0.02261     7.82831
      C   15   -0.05603      0.99967     2.03957    0.01679     3.05603
      N   16   -0.22088      0.99967     2.71003    0.01119     3.72088
      H   17    0.09537      0.00000     0.40352    0.00112     0.40463
      H   18    0.09536      0.00000     0.40320    0.00144     0.40464
      H   19    0.09797      0.00000     0.40107    0.00096     0.40203
      H   20    0.10014      0.00000     0.39843    0.00143     0.39986
      H   21    0.10424      0.00000     0.39482    0.00095     0.39576
      H   22    0.10552      0.00000     0.39326    0.00122     0.39448
      H   23    0.09641      0.00000     0.40144    0.00215     0.40359
      H   24    0.10198      0.00000     0.39679    0.00123     0.39802
      H   25    0.10414      0.00000     0.39455    0.00131     0.39586
      H   26    0.21226      0.00000     0.28543    0.00231     0.28774
      H   27    0.18192      0.00000     0.31653    0.00155     0.31808
      H   28    0.11013      0.00000     0.38884    0.00103     0.38987
      H   29    0.09126      0.00000     0.40746    0.00128     0.40874
 =======================================================================
   * Total *   -0.00000     19.99331    41.80487    0.20182    62.00000

 Normal termination of Gaussian 16 at Thu Dec 10 22:55:37 2020.
