 Gaussian 16, Revision A.03,

 -----------------------------------------------------------
 # opt freq B3LYP/6-31G(d) empiricaldispersion=gd3bj scf=xqc
 -----------------------------------------------------------

 ------------------------------
 CID_12060255_JID_2139_neutraal
 ------------------------------
 Symbolic Z-matrix:
 Charge =  0 Multiplicity = 1

 SCF Done:  E(RB3LYP) =  -585.564216215     A.U. after   16 cycles
 SCF Done:  E(RB3LYP) =  -585.571365671     A.U. after   13 cycles
 SCF Done:  E(RB3LYP) =  -585.573247881     A.U. after   13 cycles
 SCF Done:  E(RB3LYP) =  -585.573759993     A.U. after   14 cycles
 SCF Done:  E(RB3LYP) =  -585.573999305     A.U. after   12 cycles
 SCF Done:  E(RB3LYP) =  -585.574206921     A.U. after   11 cycles
 SCF Done:  E(RB3LYP) =  -585.574256188     A.U. after   11 cycles
 SCF Done:  E(RB3LYP) =  -585.574267859     A.U. after    9 cycles
 SCF Done:  E(RB3LYP) =  -585.574272123     A.U. after    9 cycles
 SCF Done:  E(RB3LYP) =  -585.574273673     A.U. after    9 cycles
 SCF Done:  E(RB3LYP) =  -585.574274425     A.U. after    8 cycles
 SCF Done:  E(RB3LYP) =  -585.574274760     A.U. after    8 cycles
 SCF Done:  E(RB3LYP) =  -585.574275118     A.U. after    8 cycles
 SCF Done:  E(RB3LYP) =  -585.574275278     A.U. after    8 cycles
 SCF Done:  E(RB3LYP) =  -585.574275303     A.U. after    7 cycles
 SCF Done:  E(RB3LYP) =  -585.574275316     A.U. after    7 cycles
 Optimization completed.
    -- Stationary point found.
 Normal termination of Gaussian 16 at Wed Dec  9 16:51:00 2020.

 --------------------------------------------------------------------
 #N Geom=AllCheck Guess=TCheck SCRF=Check GenChk RB3LYP/6-31G(d) Freq
 --------------------------------------------------------------------

 Structure from the checkpoint file:  "JID_2139.chk"
 ------------------------------
 CID_12060255_JID_2139_neutraal
 ------------------------------
 Charge =  0 Multiplicity = 1

 SCF Done:  E(RB3LYP) =  -585.574275316     A.U. after    1 cycles

  Exact polarizability: 132.532  -6.156 104.994  -0.001  -0.000  41.966
 Approx polarizability: 196.407 -23.523 188.929  -0.002  -0.000  63.937

                      1                      2                      3
                      A                      A                      A
 Frequencies --     30.0156                94.8417               124.0716
 Red. masses --      3.6640                 3.8585                 5.3495
 Frc consts  --      0.0019                 0.0204                 0.0485
 IR Inten    --      0.6564                 0.8997                 1.8215

                      4                      5                      6
                      A                      A                      A
 Frequencies --    135.3820               179.7488               240.8560
 Red. masses --      4.4080                 1.1263                 4.3883
 Frc consts  --      0.0476                 0.0214                 0.1500
 IR Inten    --      1.7226                 0.0060                 5.6091

                      7                      8                      9
                      A                      A                      A
 Frequencies --    273.8380               342.9508               420.5661
 Red. masses --      6.3150                 4.2740                 7.9566
 Frc consts  --      0.2790                 0.2962                 0.8292
 IR Inten    --      0.4660                 1.9682                 2.9580

                     10                     11                     12
                      A                      A                      A
 Frequencies --    428.4251               581.5487               604.3412
 Red. masses --      9.9927                12.9013                 7.7312
 Frc consts  --      1.0806                 2.5707                 1.6636
 IR Inten    --      6.0856                 3.2793                 1.6682

                     13                     14                     15
                      A                      A                      A
 Frequencies --    615.1027               618.6051               689.9869
 Red. masses --      3.9705                 3.7549                 1.2702
 Frc consts  --      0.8851                 0.8466                 0.3563
 IR Inten    --      6.8808                 6.3808                 1.3242

                     16                     17                     18
                      A                      A                      A
 Frequencies --    712.7838               728.2420               742.0889
 Red. masses --     10.8973                 6.4756                 1.1973
 Frc consts  --      3.2620                 2.0234                 0.3885
 IR Inten    --      0.5787                 5.3464                82.7585

                     19                     20                     21
                      A                      A                      A
 Frequencies --    837.0513               881.2228               887.3290
 Red. masses --      1.2558                 1.2762                 6.2825
 Frc consts  --      0.5184                 0.5839                 2.9144
 IR Inten    --      0.0596                 0.0012                 2.7165

                     22                     23                     24
                      A                      A                      A
 Frequencies --    905.4191               934.9671               965.0603
 Red. masses --     10.8252                 5.0130                10.5400
 Frc consts  --      5.2286                 2.5819                 5.7836
 IR Inten    --     39.2375                21.8051                 0.9353

                     25                     26                     27
                      A                      A                      A
 Frequencies --   1028.9847              1041.8424              1072.0015
 Red. masses --      2.5518                 9.6282                 3.0374
 Frc consts  --      1.5919                 6.1575                 2.0566
 IR Inten    --     24.5216                72.9322                26.8013

                     28                     29                     30
                      A                      A                      A
 Frequencies --   1105.5780              1109.4766              1176.4899
 Red. masses --      1.6038                 1.3055                 2.6247
 Frc consts  --      1.1550                 0.9468                 2.1404
 IR Inten    --     39.4005                17.1364                32.8068

                     31                     32                     33
                      A                      A                      A
 Frequencies --   1186.7924              1232.6444              1296.2438
 Red. masses --      1.2615                 1.5367                 1.5264
 Frc consts  --      1.0469                 1.3756                 1.5111
 IR Inten    --      0.8155                11.3726                 6.6498

                     34                     35                     36
                      A                      A                      A
 Frequencies --   1339.6159              1378.0216              1443.7971
 Red. masses --      3.6505                 5.5255                 3.5560
 Frc consts  --      3.8598                 6.1821                 4.3674
 IR Inten    --      4.4931               220.6643                27.7331

                     37                     38                     39
                      A                      A                      A
 Frequencies --   1476.6141              1487.4584              1510.5398
 Red. masses --     11.1987                 1.3422                 1.0463
 Frc consts  --     14.3864                 1.7496                 1.4067
 IR Inten    --      3.6397                11.7981                 7.9350

                     40                     41                     42
                      A                      A                      A
 Frequencies --   1524.2124              1525.7658              1603.3835
 Red. masses --      2.1935                 1.2306                 4.6020
 Frc consts  --      3.0024                 1.6879                 6.9707
 IR Inten    --     51.5611                17.8635                17.0462

                     43                     44                     45
                      A                      A                      A
 Frequencies --   1634.1511              1662.8545              3070.6753
 Red. masses --      7.8219                10.2762                 1.0302
 Frc consts  --     12.3068                16.7414                 5.7233
 IR Inten    --    270.1976               167.1175                30.8764

                     46                     47                     48
                      A                      A                      A
 Frequencies --   3145.2366              3191.7475              3260.6550
 Red. masses --      1.1082                 1.1064                 1.0906
 Frc consts  --      6.4589                 6.6410                 6.8316
 IR Inten    --     17.3835                12.4727                 5.9948

                     49                     50                     51
                      A                      A                      A
 Frequencies --   3273.2926              3307.6794              3322.5309
 Red. masses --      1.0970                 1.1004                 1.0999
 Frc consts  --      6.9251                 7.0935                 7.1540
 IR Inten    --      2.3939                 2.0697                 4.6952

 - Thermochemistry -
 -------------------
 Temperature   298.150 Kelvin.  Pressure   1.00000 Atm.
 Atom     1 has atomic number  6 and mass  12.00000

 Molecular mass:   165.05383 amu.
 Principal axes and moments of inertia in atomic units:
                           1         2         3
     Eigenvalues --   999.851412521.597343509.98093
           X            0.99936   0.03588  -0.00000
           Y           -0.03588   0.99936   0.00000
           Z            0.00000  -0.00000   1.00000
 This molecule is an asymmetric top.
 Rotational symmetry number  1.
 Warning -- assumption of classical behavior for rotation
           may cause significant error
 Rotational temperatures (Kelvin)      0.08663     0.03435     0.02468
 Rotational constants (GHZ):           1.80501     0.71571     0.51417
 Zero-point vibrational energy     373131.6 (Joules/Mol)
                                   89.18059 (Kcal/Mol)
 Warning -- explicit consideration of  14 degrees of freedom as
           vibrations may cause significant error
 Vibrational temperatures:     43.19   136.46   178.51   194.78   258.62
          (Kelvin)            346.54   393.99   493.43   605.10   616.41
                              836.72   869.51   885.00   890.03   992.74
                             1025.54  1047.78  1067.70  1204.33  1267.88
                             1276.67  1302.70  1345.21  1388.51  1480.48
                             1498.98  1542.37  1590.68  1596.29  1692.71
                             1707.53  1773.50  1865.01  1927.41  1982.67
                             2077.30  2124.52  2140.12  2173.33  2193.00
                             2195.24  2306.91  2351.18  2392.48  4418.02
                             4525.29  4592.21  4691.36  4709.54  4759.01
                             4780.38

 Zero-point correction=                           0.142118 (Hartree/Particle)
 Thermal correction to Energy=                    0.152057
 Thermal correction to Enthalpy=                  0.153001
 Thermal correction to Gibbs Free Energy=         0.105436
 Sum of electronic and zero-point Energies=           -585.432157
 Sum of electronic and thermal Energies=              -585.422218
 Sum of electronic and thermal Enthalpies=            -585.421274
 Sum of electronic and thermal Free Energies=         -585.468839

                     E (Thermal)             CV                S
                      KCal/Mol        Cal/Mol-Kelvin    Cal/Mol-Kelvin
 Total                   95.417             36.947            100.109
 Electronic               0.000              0.000              0.000
 Translational            0.889              2.981             41.212
 Rotational               0.889              2.981             30.560
 Vibrational             93.640             30.985             28.338
 Vibration     1          0.594              1.984              5.828
 Vibration     2          0.603              1.953              3.558
 Vibration     3          0.610              1.929              3.036
 Vibration     4          0.613              1.918              2.868
 Vibration     5          0.629              1.867              2.331
 Vibration     6          0.658              1.778              1.797
 Vibration     7          0.676              1.722              1.572
 Vibration     8          0.722              1.590              1.198
 Vibration     9          0.783              1.426              0.890
 Vibration    10          0.790              1.408              0.864
 Vibration    11          0.938              1.071              0.483
 Vibration    12          0.963              1.023              0.442
 Vibration    13          0.975              1.000              0.424
 Vibration    14          0.978              0.993              0.419

 Optimization completed.
    -- Stationary point found.
 Normal termination of Gaussian 16 at Wed Dec  9 16:54:32 2020.

 ----------------------------------------------------------------------
 # B3LYP/6-311++G(d,p) empiricaldispersion=gd3bj scf=xqc pop=npa geom=c
 heck
 ----------------------------------------------------------------------

 --------------------------------------
 CID_12060255_JID_2139_Energie_neutraal
 --------------------------------------
 Structure from the checkpoint file:  "JID_2139.chk"
 Charge =  0 Multiplicity = 1

 SCF Done:  E(RB3LYP) =  -585.732093865     A.U. after   15 cycles
 Normal termination of Gaussian 16 at Wed Dec  9 16:56:01 2020.

 ----------------------------------------------------------------------
 # B3LYP/6-311++G(d,p) empiricaldispersion=gd3bj scf=xqc pop=npa geom=c
 heck
 ----------------------------------------------------------------------

 ------------------------------------
 CID_12060255_JID_2139_Energie_kation
 ------------------------------------
 Structure from the checkpoint file:  "JID_2139.chk"
 Charge =  1 Multiplicity = 2

 SCF Done:  E(UB3LYP) =  -585.418211042     A.U. after   27 cycles
 Normal termination of Gaussian 16 at Wed Dec  9 16:59:35 2020.
 Gaussian 16:  ES64L-G16RevA.03 25-Dec-2016

 ----------------------------------------------------------------------
 # B3LYP/6-311++G(d,p) empiricaldispersion=gd3bj scf=xqc pop=npa geom=c
 heck
 ----------------------------------------------------------------------

 -----------------------------------
 CID_12060255_JID_2139_Energie_anion
 -----------------------------------
 Structure from the checkpoint file:  "JID_2139.chk"
 Charge = -1 Multiplicity = 2

                         Standard orientation:
 ---------------------------------------------------------------------
 Center     Atomic      Atomic             Coordinates (Angstroms)
 Number     Number       Type             X           Y           Z
 ---------------------------------------------------------------------
      1          6           0        2.846058    1.883663    0.000033
      2          8           0        1.490808    1.400596   -0.000026
      3          6           0        1.358265    0.071945   -0.000009
      4          7           0        2.343837   -0.784374    0.000032
      5          8           0        1.742840   -2.027362    0.000026
      6          7           0        0.367187   -1.923751   -0.000019
      7          6           0        0.108359   -0.641629   -0.000030
      8          7           0       -1.177801   -0.134132   -0.000070
      9          6           0       -1.532901    1.214224   -0.000048
     10          6           0       -2.900114    1.282009    0.000035
     11          6           0       -3.405273   -0.058795    0.000063
     12          6           0       -2.333264   -0.910069   -0.000009
     13          1           0        2.766855    2.970203    0.000005
     14          1           0        3.372222    1.532828   -0.892455
     15          1           0        3.372132    1.532868    0.892590
     16          1           0       -0.772553    1.977201   -0.000116
     17          1           0       -3.483280    2.192305    0.000064
     18          1           0       -4.444284   -0.357608    0.000118
     19          1           0       -2.259629   -1.985947   -0.000011
 ---------------------------------------------------------------------

 SCF Done:  E(UB3LYP) =  -585.726736745     A.U. after   26 cycles

 The electronic state is 2-A.
 Alpha  occ. eigenvalues --  -19.03778 -19.03021 -14.22454 -14.17657 -14.15773
 Alpha  occ. eigenvalues --  -10.11532 -10.10047 -10.05973 -10.04212 -10.03967
 Alpha  occ. eigenvalues --  -10.01838 -10.01530  -0.99102  -0.95355  -0.84553
 Alpha  occ. eigenvalues --   -0.72204  -0.69586  -0.62866  -0.60619  -0.58129
 Alpha  occ. eigenvalues --   -0.49055  -0.46433  -0.43270  -0.41549  -0.39898
 Alpha  occ. eigenvalues --   -0.37854  -0.36170  -0.33057  -0.31675  -0.30296
 Alpha  occ. eigenvalues --   -0.28045  -0.27346  -0.26211  -0.25090  -0.24009
 Alpha  occ. eigenvalues --   -0.23261  -0.22834  -0.16275  -0.16170  -0.13109
 Alpha  occ. eigenvalues --   -0.11976  -0.08436  -0.08019   0.07221
 Alpha virt. eigenvalues --    0.08177   0.09544   0.10864   0.11836   0.12445
 Alpha virt. eigenvalues --    0.12856   0.13708   0.14889   0.16164   0.16815
 Alpha virt. eigenvalues --    0.17540   0.18280   0.18604   0.18880   0.20074

  Beta  occ. eigenvalues --  -19.03782 -19.02542 -14.22532 -14.17224 -14.14928
  Beta  occ. eigenvalues --  -10.11532 -10.10073 -10.05785 -10.04046 -10.03837
  Beta  occ. eigenvalues --  -10.01855 -10.01471  -0.98357  -0.95225  -0.84447
  Beta  occ. eigenvalues --   -0.71197  -0.69103  -0.62561  -0.60457  -0.57873
  Beta  occ. eigenvalues --   -0.48537  -0.46197  -0.43196  -0.41276  -0.39663
  Beta  occ. eigenvalues --   -0.37556  -0.35988  -0.32862  -0.30222  -0.30165
  Beta  occ. eigenvalues --   -0.27930  -0.26522  -0.26074  -0.25009  -0.23765
  Beta  occ. eigenvalues --   -0.23027  -0.22197  -0.15520  -0.14664  -0.12136
  Beta  occ. eigenvalues --   -0.09563  -0.07432  -0.06460
  Beta virt. eigenvalues --    0.08153   0.09501   0.10816   0.11802   0.12396
  Beta virt. eigenvalues --    0.12848   0.13701   0.14047   0.16155   0.16216
  Beta virt. eigenvalues --    0.17293   0.17521   0.18526   0.18904   0.19001

 Mulliken charges and spin densities:
               1          2
     1  C   -0.310104  -0.001558
     2  O   -0.180711   0.003211
     3  C    0.085824  -0.034934
     4  N   -0.467910   0.206191
     5  O    0.354755   0.087139
     6  N   -0.708659   0.430505
     7  C    0.128991   0.072851
     8  N    0.162831  -0.038590
     9  C   -0.249209   0.108091
    10  C   -0.290765   0.000384
    11  C   -0.512914   0.081944
    12  C   -0.017777   0.106395
    13  H    0.114334  -0.000081
    14  H    0.163421   0.000903
    15  H    0.163416   0.000908
    16  H    0.188498  -0.007978
    17  H    0.106244   0.000890
    18  H    0.099837  -0.003520
    19  H    0.169895  -0.012750
 Sum of Mulliken charges =  -1.00000   1.00000

 Dipole moment (field-independent basis, Debye):
    X=              0.9204    Y=              5.2862    Z=             -0.0000  Tot=              5.3658
 Quadrupole moment (field-independent basis, Debye-Ang):
   XX=            -95.9329   YY=            -85.7897   ZZ=            -77.8485
   XY=             11.7776   XZ=             -0.0003   YZ=             -0.0000

 Summary of Natural Population Analysis:

                                       Natural Population
                Natural  -----------------------------------------------
    Atom  No    Charge         Core      Valence    Rydberg      Total
 -----------------------------------------------------------------------
      C    1   -0.10131      0.99961     2.09311    0.00859     3.10131
      O    2   -0.27637      0.99985     3.26711    0.00941     4.27637
      C    3    0.20067      0.99949     1.78374    0.01610     2.79933
      N    4   -0.07166      0.99964     2.55688    0.01514     3.57166
      O    5   -0.07094      0.99990     3.05683    0.01420     4.07094
      N    6    0.03437      0.99966     2.45150    0.01447     3.46563
      C    7    0.14197      0.99955     1.84440    0.01408     2.85803
      N    8   -0.20715      0.99963     2.69587    0.01165     3.70715
      C    9    0.00562      0.99958     1.98350    0.01131     2.99438
      C   10   -0.16563      0.99958     2.15601    0.01004     3.16563
      C   11   -0.14759      0.99958     2.13821    0.00980     3.14759
      C   12    0.00455      0.99958     1.98428    0.01160     2.99545
      H   13    0.08184      0.00000     0.41731    0.00084     0.41816
      H   14    0.08726      0.00000     0.41110    0.00163     0.41274
      H   15    0.08726      0.00000     0.41110    0.00163     0.41274
      H   16    0.10309      0.00000     0.39586    0.00105     0.39691
      H   17    0.09440      0.00000     0.40473    0.00088     0.40560
      H   18    0.09405      0.00000     0.40509    0.00086     0.40595
      H   19    0.10558      0.00000     0.39330    0.00112     0.39442
 =======================================================================
   * Total *    0.00000     11.99564    30.84994    0.15442    43.00000

 Normal termination of Gaussian 16 at Wed Dec  9 17:03:15 2020.
