 Gaussian 16, Revision A.03,

 -----------------------------------------------------------
 # opt freq B3LYP/6-31G(d) empiricaldispersion=gd3bj scf=xqc
 -----------------------------------------------------------

 ------------------------------
 CID_65282913_JID_8378_neutraal
 ------------------------------
 Symbolic Z-matrix:
 Charge =  0 Multiplicity = 1

 SCF Done:  E(RB3LYP) =  -805.559353255     A.U. after   16 cycles
 SCF Done:  E(RB3LYP) =  -805.565579252     A.U. after   13 cycles
 SCF Done:  E(RB3LYP) =  -805.566819856     A.U. after   13 cycles
 SCF Done:  E(RB3LYP) =  -805.567008725     A.U. after   13 cycles
 SCF Done:  E(RB3LYP) =  -805.567299143     A.U. after   12 cycles
 SCF Done:  E(RB3LYP) =  -805.567299224     A.U. after   12 cycles
 SCF Done:  E(RB3LYP) =  -805.567399423     A.U. after   12 cycles
 SCF Done:  E(RB3LYP) =  -805.567413665     A.U. after   10 cycles
 SCF Done:  E(RB3LYP) =  -805.567419783     A.U. after    9 cycles
 SCF Done:  E(RB3LYP) =  -805.567421001     A.U. after    8 cycles
 SCF Done:  E(RB3LYP) =  -805.567421442     A.U. after    7 cycles
 SCF Done:  E(RB3LYP) =  -805.567421322     A.U. after    7 cycles
 Optimization completed.
    -- Stationary point found.
 Normal termination of Gaussian 16 at Fri Dec 11 20:23:55 2020.

 --------------------------------------------------------------------
 #N Geom=AllCheck Guess=TCheck SCRF=Check GenChk RB3LYP/6-31G(d) Freq
 --------------------------------------------------------------------

 Structure from the checkpoint file:  "JID_8378.chk"
 ------------------------------
 CID_65282913_JID_8378_neutraal
 ------------------------------
 Charge =  0 Multiplicity = 1

 SCF Done:  E(RB3LYP) =  -805.567421322     A.U. after    1 cycles

  Exact polarizability: 188.705  20.836 137.391   6.344  -1.328 150.896
 Approx polarizability: 247.752  38.661 212.109   8.456   1.309 260.101

                      1                      2                      3
                      A                      A                      A
 Frequencies --     40.5777                42.5217                59.3539
 Red. masses --      4.2487                 5.2014                 5.1670
 Frc consts  --      0.0041                 0.0055                 0.0107
 IR Inten    --      1.3772                 1.4376                 3.8958

                      4                      5                      6
                      A                      A                      A
 Frequencies --     69.6552               124.1692               172.0425
 Red. masses --      3.9882                 3.6621                 5.1822
 Frc consts  --      0.0114                 0.0333                 0.0904
 IR Inten    --      2.6072                 2.1870                 0.8382

                      7                      8                      9
                      A                      A                      A
 Frequencies --    181.5573               213.6631               230.7542
 Red. masses --      4.1911                 2.0712                 2.1029
 Frc consts  --      0.0814                 0.0557                 0.0660
 IR Inten    --      1.0469                 0.3711                 1.4084

                     10                     11                     12
                      A                      A                      A
 Frequencies --    245.1976               260.5069               272.4132
 Red. masses --      1.8088                 2.4268                 3.4634
 Frc consts  --      0.0641                 0.0970                 0.1514
 IR Inten    --      0.1166                 0.5295                 5.7452

                     13                     14                     15
                      A                      A                      A
 Frequencies --    279.8895               294.3980               322.1862
 Red. masses --      2.2185                 1.1162                 2.4799
 Frc consts  --      0.1024                 0.0570                 0.1517
 IR Inten    --      0.8034                 0.4967                15.2029

                     16                     17                     18
                      A                      A                      A
 Frequencies --    328.6616               364.1882               388.1350
 Red. masses --      1.2430                 3.0126                 3.4708
 Frc consts  --      0.0791                 0.2354                 0.3081
 IR Inten    --     89.6617                 3.0487                 2.6364

                     19                     20                     21
                      A                      A                      A
 Frequencies --    400.8170               411.6084               422.0210
 Red. masses --      2.1702                 2.8267                 2.1352
 Frc consts  --      0.2054                 0.2822                 0.2241
 IR Inten    --      3.3156                 6.1806                 0.5813

                     22                     23                     24
                      A                      A                      A
 Frequencies --    447.9300               455.4276               506.3058
 Red. masses --      3.0718                 4.2849                 3.9085
 Frc consts  --      0.3631                 0.5236                 0.5903
 IR Inten    --      3.5739                11.4463                 2.5885

                     25                     26                     27
                      A                      A                      A
 Frequencies --    536.6440               568.0212               569.6292
 Red. masses --      2.2366                 6.1606                 3.3270
 Frc consts  --      0.3795                 1.1711                 0.6360
 IR Inten    --      1.1052                 4.1470                 2.8911

                     28                     29                     30
                      A                      A                      A
 Frequencies --    613.4431               643.2710               686.3693
 Red. masses --      3.5485                 4.6453                 3.9236
 Frc consts  --      0.7868                 1.1325                 1.0890
 IR Inten    --      1.9369                19.2079                 8.5677

                     31                     32                     33
                      A                      A                      A
 Frequencies --    725.2871               752.4818               795.0584
 Red. masses --      2.7300                 6.2460                 2.3548
 Frc consts  --      0.8461                 2.0837                 0.8770
 IR Inten    --      3.2977                12.4956                16.3449

                     34                     35                     36
                      A                      A                      A
 Frequencies --    807.4513               814.2724               851.6650
 Red. masses --      1.7092                 3.2791                 3.8958
 Frc consts  --      0.6566                 1.2810                 1.6649
 IR Inten    --     16.1998                 3.4340                 1.4102

                     37                     38                     39
                      A                      A                      A
 Frequencies --    870.4444               885.7652               899.4650
 Red. masses --      2.3374                 2.0844                 2.2218
 Frc consts  --      1.0434                 0.9636                 1.0591
 IR Inten    --      5.4700                 4.0744                 1.9639

                     40                     41                     42
                      A                      A                      A
 Frequencies --    915.7299               944.1261               957.2759
 Red. masses --      1.3493                 2.0806                 1.8160
 Frc consts  --      0.6666                 1.0927                 0.9805
 IR Inten    --      0.1416                 8.5937                 7.8059

                     43                     44                     45
                      A                      A                      A
 Frequencies --    961.4997               968.4926               991.8975
 Red. masses --      1.7196                 1.3184                 2.0603
 Frc consts  --      0.9366                 0.7286                 1.1943
 IR Inten    --     10.2385                 0.3111                 0.6089

                     46                     47                     48
                      A                      A                      A
 Frequencies --   1024.4498              1040.1382              1078.9934
 Red. masses --      1.4007                 1.7242                 2.5036
 Frc consts  --      0.8661                 1.0991                 1.7173
 IR Inten    --     13.5181                 0.6016                 1.6053

                     49                     50                     51
                      A                      A                      A
 Frequencies --   1085.0194              1089.8202              1093.3005
 Red. masses --      2.0881                 1.9806                 2.1491
 Frc consts  --      1.4484                 1.3860                 1.5135
 IR Inten    --     19.1129                 2.1463                 3.0775

                     52                     53                     54
                      A                      A                      A
 Frequencies --   1126.3375              1171.1938              1181.6712
 Red. masses --      2.0296                 1.4302                 1.5305
 Frc consts  --      1.5170                 1.1558                 1.2591
 IR Inten    --     54.5508                16.1459                 2.5995

                     55                     56                     57
                      A                      A                      A
 Frequencies --   1185.2257              1199.6318              1249.1561
 Red. masses --      2.0382                 1.6183                 2.0751
 Frc consts  --      1.6869                 1.3722                 1.9078
 IR Inten    --      5.9353               133.7714                23.6105

                     58                     59                     60
                      A                      A                      A
 Frequencies --   1256.9310              1275.0221              1289.2170
 Red. masses --      2.6744                 1.5457                 1.7656
 Frc consts  --      2.4894                 1.4805                 1.7290
 IR Inten    --     32.7987                 7.2599                 0.8618

                     61                     62                     63
                      A                      A                      A
 Frequencies --   1305.2345              1315.9047              1326.8245
 Red. masses --      1.3408                 1.6733                 3.0784
 Frc consts  --      1.3459                 1.7072                 3.1930
 IR Inten    --     18.7798                15.4520                14.6488

                     64                     65                     66
                      A                      A                      A
 Frequencies --   1338.0064              1346.3026              1357.6150
 Red. masses --      2.7641                 1.6779                 1.7551
 Frc consts  --      2.9155                 1.7919                 1.9059
 IR Inten    --     93.1155                 7.9138                93.7874

                     67                     68                     69
                      A                      A                      A
 Frequencies --   1391.1464              1406.2209              1412.3822
 Red. masses --      1.3778                 1.2919                 1.4688
 Frc consts  --      1.5710                 1.5052                 1.7263
 IR Inten    --      2.3791                15.7461                21.7297

                     70                     71                     72
                      A                      A                      A
 Frequencies --   1415.9714              1428.7885              1430.4353
 Red. masses --      1.4317                 1.2532                 1.3537
 Frc consts  --      1.6912                 1.5073                 1.6319
 IR Inten    --      3.5903                 3.0745                 6.4374

                     73                     74                     75
                      A                      A                      A
 Frequencies --   1454.1237              1471.8026              1497.4874
 Red. masses --      1.2490                 2.4471                 2.4311
 Frc consts  --      1.5560                 3.1232                 3.2121
 IR Inten    --      9.2038               168.6071                55.5565

                     76                     77                     78
                      A                      A                      A
 Frequencies --   1504.3102              1506.6184              1516.1011
 Red. masses --      1.1567                 1.0961                 1.0753
 Frc consts  --      1.5423                 1.4658                 1.4562
 IR Inten    --     19.7078                 3.1367                 1.3638

                     79                     80                     81
                      A                      A                      A
 Frequencies --   1520.8694              1524.6270              1524.9466
 Red. masses --      1.0642                 1.8195                 1.3040
 Frc consts  --      1.4503                 2.4919                 1.7867
 IR Inten    --      1.1984                 9.4551                30.3156

                     82                     83                     84
                      A                      A                      A
 Frequencies --   1529.6286              1534.6280              1539.6004
 Red. masses --      1.0804                 1.0696                 1.1008
 Frc consts  --      1.4893                 1.4842                 1.5374
 IR Inten    --     15.6801                 4.8565                 1.0492

                     85                     86                     87
                      A                      A                      A
 Frequencies --   1553.9753              1636.5212              1648.7406
 Red. masses --      1.0590                 6.2631                 6.0762
 Frc consts  --      1.5068                 9.8828                 9.7317
 IR Inten    --      4.2970                 5.7808                21.2322

                     88                     89                     90
                      A                      A                      A
 Frequencies --   1745.2381              3012.9773              3029.1784
 Red. masses --     10.8092                 1.0629                 1.0630
 Frc consts  --     19.3978                 5.6848                 5.7467
 IR Inten    --    281.3168                25.5244                 4.5583

                     91                     92                     93
                      A                      A                      A
 Frequencies --   3036.7033              3040.9186              3044.9217
 Red. masses --      1.0408                 1.0601                 1.0647
 Frc consts  --      5.6547                 5.7755                 5.8160
 IR Inten    --     29.0758                56.7597                51.6884

                     94                     95                     96
                      A                      A                      A
 Frequencies --   3046.8598              3055.2116              3062.9647
 Red. masses --      1.0559                 1.0917                 1.0877
 Frc consts  --      5.7752                 6.0038                 6.0122
 IR Inten    --     20.0735                44.3459                 5.3890

                     97                     98                     99
                      A                      A                      A
 Frequencies --   3071.9648              3097.5899              3102.0372
 Red. masses --      1.0825                 1.1012                 1.0973
 Frc consts  --      6.0189                 6.2255                 6.2209
 IR Inten    --     36.9310                14.1198                 8.4819

                    100                    101                    102
                      A                      A                      A
 Frequencies --   3104.5604              3109.1555              3133.4049
 Red. masses --      1.1000                 1.1018                 1.0910
 Frc consts  --      6.2467                 6.2755                 6.3114
 IR Inten    --     71.3545                55.0465                27.1047

                    103                    104                    105
                      A                      A                      A
 Frequencies --   3145.4035              3153.9842              3173.4548
 Red. masses --      1.0979                 1.0957                 1.0894
 Frc consts  --      6.3999                 6.4221                 6.4642
 IR Inten    --      6.5093                14.9275                11.6762

                    106                    107                    108
                      A                      A                      A
 Frequencies --   3185.3832              3214.3080              3745.0626
 Red. masses --      1.0894                 1.0961                 1.0661
 Frc consts  --      6.5126                 6.6726                 8.8100
 IR Inten    --     20.8137                22.0669                42.7248

 - Thermochemistry -
 -------------------
 Temperature   298.150 Kelvin.  Pressure   1.00000 Atm.
 Atom     1 has atomic number  6 and mass  12.00000

 Molecular mass:   248.15248 amu.
 Principal axes and moments of inertia in atomic units:
                           1         2         3
     Eigenvalues --  2379.671236478.341226836.18227
           X            1.00000  -0.00058   0.00083
           Y            0.00060   0.99966  -0.02611
           Z           -0.00081   0.02611   0.99966
 This molecule is an asymmetric top.
 Rotational symmetry number  1.
 Warning -- assumption of classical behavior for rotation
           may cause significant error
 Rotational temperatures (Kelvin)      0.03640     0.01337     0.01267
 Rotational constants (GHZ):           0.75840     0.27858     0.26400
 Zero-point vibrational energy     863634.9 (Joules/Mol)
                                  206.41369 (Kcal/Mol)
 Warning -- explicit consideration of  28 degrees of freedom as
           vibrations may cause significant error
 Vibrational temperatures:     58.38    61.18    85.40   100.22   178.65
          (Kelvin)            247.53   261.22   307.41   332.00   352.78
                              374.81   391.94   402.70   423.57   463.55
                              472.87   523.99   558.44   576.69   592.21
                              607.19   644.47   655.26   728.46   772.11
                              817.26   819.57   882.61   925.52   987.53
                             1043.53  1082.65  1143.91  1161.74  1171.56
                             1225.36  1252.38  1274.42  1294.13  1317.53
                             1358.39  1377.31  1383.38  1393.44  1427.12
                             1473.95  1496.53  1552.43  1561.10  1568.01
                             1573.02  1620.55  1685.09  1700.16  1705.28
                             1726.00  1797.26  1808.44  1834.47  1854.90
                             1877.94  1893.29  1909.00  1925.09  1937.03
                             1953.31  2001.55  2023.24  2032.10  2037.27
                             2055.71  2058.08  2092.16  2117.60  2154.55
                             2164.37  2167.69  2181.33  2188.19  2193.60
                             2194.06  2200.79  2207.99  2215.14  2235.82
                             2354.59  2372.17  2511.01  4335.00  4358.31
                             4369.14  4375.20  4380.96  4383.75  4395.77
                             4406.92  4419.87  4456.74  4463.14  4466.77
                             4473.38  4508.27  4525.53  4537.88  4565.89
                             4583.06  4624.67  5388.31

 Zero-point correction=                           0.328941 (Hartree/Particle)
 Thermal correction to Energy=                    0.345780
 Thermal correction to Enthalpy=                  0.346724
 Thermal correction to Gibbs Free Energy=         0.284915
 Sum of electronic and zero-point Energies=           -805.238480
 Sum of electronic and thermal Energies=              -805.221642
 Sum of electronic and thermal Enthalpies=            -805.220697
 Sum of electronic and thermal Free Energies=         -805.282507

                     E (Thermal)             CV                S
                      KCal/Mol        Cal/Mol-Kelvin    Cal/Mol-Kelvin
 Total                  216.980             66.761            130.088
 Electronic               0.000              0.000              0.000
 Translational            0.889              2.981             42.427
 Rotational               0.889              2.981             33.021
 Vibrational            215.203             60.799             54.640
 Vibration     1          0.594              1.981              5.231
 Vibration     2          0.595              1.980              5.138
 Vibration     3          0.597              1.974              4.479
 Vibration     4          0.598              1.969              4.163
 Vibration     5          0.610              1.929              3.034
 Vibration     6          0.626              1.877              2.413
 Vibration     7          0.630              1.865              2.312
 Vibration     8          0.644              1.820              2.012
 Vibration     9          0.652              1.794              1.873
 Vibration    10          0.660              1.771              1.765
 Vibration    11          0.669              1.745              1.658
 Vibration    12          0.675              1.724              1.581
 Vibration    13          0.680              1.711              1.534
 Vibration    14          0.689              1.684              1.449
 Vibration    15          0.707              1.631              1.299
 Vibration    16          0.712              1.618              1.267
 Vibration    17          0.738              1.546              1.104
 Vibration    18          0.756              1.496              1.007
 Vibration    19          0.767              1.468              0.960
 Vibration    20          0.776              1.445              0.921
 Vibration    21          0.784              1.422              0.885
 Vibration    22          0.807              1.365              0.802
 Vibration    23          0.814              1.349              0.780
 Vibration    24          0.862              1.236              0.643
 Vibration    25          0.892              1.169              0.573
 Vibration    26          0.924              1.100              0.508
 Vibration    27          0.926              1.097              0.505
 Vibration    28          0.973              1.003              0.427

 Optimization completed.
    -- Stationary point found.
 Normal termination of Gaussian 16 at Fri Dec 11 20:45:32 2020.

 ----------------------------------------------------------------------
 # B3LYP/6-311++G(d,p) empiricaldispersion=gd3bj scf=xqc pop=npa geom=c
 heck
 ----------------------------------------------------------------------

 --------------------------------------
 CID_65282913_JID_8378_Energie_neutraal
 --------------------------------------
 Structure from the checkpoint file:  "JID_8378.chk"
 Charge =  0 Multiplicity = 1

 SCF Done:  E(RB3LYP) =  -805.794052027     A.U. after   16 cycles
 Normal termination of Gaussian 16 at Fri Dec 11 20:55:53 2020.

 ----------------------------------------------------------------------
 # B3LYP/6-311++G(d,p) empiricaldispersion=gd3bj scf=xqc pop=npa geom=c
 heck
 ----------------------------------------------------------------------

 ------------------------------------
 CID_65282913_JID_8378_Energie_kation
 ------------------------------------
 Structure from the checkpoint file:  "JID_8378.chk"
 Charge =  1 Multiplicity = 2

 SCF Done:  E(UB3LYP) =  -805.493050557     A.U. after   33 cycles
 SCF Done:  E(UB3LYP) =  -805.493050557     a.u. after    1 cycles
 Normal termination of Gaussian 16 at Fri Dec 11 21:26:36 2020.
 Gaussian 16:  ES64L-G16RevA.03 25-Dec-2016

 ----------------------------------------------------------------------
 # B3LYP/6-311++G(d,p) empiricaldispersion=gd3bj scf=xqc pop=npa geom=c
 heck
 ----------------------------------------------------------------------

 -----------------------------------
 CID_65282913_JID_8378_Energie_anion
 -----------------------------------
 Structure from the checkpoint file:  "JID_8378.chk"
 Charge = -1 Multiplicity = 2

                         Standard orientation:
 ---------------------------------------------------------------------
 Center     Atomic      Atomic             Coordinates (Angstroms)
 Number     Number       Type             X           Y           Z
 ---------------------------------------------------------------------
      1          6           0        3.797988   -2.016014   -0.140447
      2          6           0        2.673897   -0.972129    0.008687
      3          6           0        3.340934    0.349855    0.463572
      4          6           0        2.448041    1.577453    0.679823
      5          6           0        1.564941    1.951396   -0.516398
      6          7           0        0.441336    1.028739   -0.668456
      7          6           0        0.608170   -0.197484   -1.447444
      8          6           0        2.015138   -0.805479   -1.385001
      9          6           0       -0.686675    1.314407    0.043072
     10          8           0       -0.788642    2.288206    0.785676
     11          6           0       -1.870540    0.388587   -0.125887
     12          6           0       -2.373430   -0.316391    0.983493
     13          6           0       -3.538293   -1.065540    0.822769
     14          6           0       -4.160135   -1.079779   -0.424103
     15          6           0       -3.583265   -0.359535   -1.467809
     16          7           0       -2.458992    0.352265   -1.324671
     17          8           0       -1.670531   -0.260979    2.147870
     18          6           0        1.669095   -1.485265    1.054015
     19          1           0        4.349955   -2.136088    0.799142
     20          1           0        4.515452   -1.717776   -0.914840
     21          1           0        3.390752   -2.995260   -0.419030
     22          1           0        3.887259    0.153090    1.396162
     23          1           0        4.105308    0.605239   -0.285508
     24          1           0        3.095158    2.432478    0.916479
     25          1           0        1.790233    1.441777    1.545158
     26          1           0        2.139520    1.961060   -1.449386
     27          1           0        1.142485    2.945898   -0.365837
     28          1           0        0.345960   -0.015018   -2.498405
     29          1           0       -0.110503   -0.927616   -1.072916
     30          1           0        2.700730   -0.235054   -2.024552
     31          1           0        1.928107   -1.793767   -1.856540
     32          1           0       -3.948695   -1.627559    1.659536
     33          1           0       -5.071262   -1.648537   -0.581595
     34          1           0       -4.033676   -0.353798   -2.457473
     35          1           0       -2.122211   -0.793747    2.821000
     36          1           0        1.212830   -2.426972    0.723394
     37          1           0        2.179993   -1.683004    2.004007
     38          1           0        0.864387   -0.774683    1.254673
 ---------------------------------------------------------------------

 SCF Done:  E(UB3LYP) =  -805.789542104     A.U. after   33 cycles
 SCF Done:  E(UB3LYP) =  -805.789543079     a.u. after    2 cycles

 The electronic state is 2-A.
 Alpha  occ. eigenvalues --  -19.04914 -18.97064 -14.23174 -14.19051 -10.15316
 Alpha  occ. eigenvalues --  -10.13177 -10.10270 -10.09953 -10.09055 -10.08924
 Alpha  occ. eigenvalues --  -10.08844 -10.07527 -10.07139 -10.06885 -10.06836
 Alpha  occ. eigenvalues --  -10.06818 -10.06666 -10.05607  -0.96164  -0.92377
 Alpha  occ. eigenvalues --   -0.83307  -0.82573  -0.73538  -0.68890  -0.68361
 Alpha  occ. eigenvalues --   -0.65465  -0.63496  -0.59476  -0.59054  -0.54509
 Alpha  occ. eigenvalues --   -0.54139  -0.53163  -0.50563  -0.44528  -0.43917
 Alpha  occ. eigenvalues --   -0.43559  -0.41970  -0.39280  -0.38528  -0.37354
 Alpha  occ. eigenvalues --   -0.36521  -0.35562  -0.33806  -0.33321  -0.32706
 Alpha  occ. eigenvalues --   -0.32341  -0.31461  -0.31125  -0.29828  -0.29720
 Alpha  occ. eigenvalues --   -0.28948  -0.28222  -0.27496  -0.27213  -0.26467
 Alpha  occ. eigenvalues --   -0.25769  -0.25558  -0.24256  -0.24177  -0.22395
 Alpha  occ. eigenvalues --   -0.22057  -0.21874  -0.17673  -0.16079  -0.13800
 Alpha  occ. eigenvalues --   -0.13347  -0.12268   0.04065
 Alpha virt. eigenvalues --    0.05881   0.06367   0.07482   0.07542   0.08087
 Alpha virt. eigenvalues --    0.08730   0.09482   0.09669   0.10032   0.10217
 Alpha virt. eigenvalues --    0.10595   0.11050   0.12258   0.12358   0.12741

  Beta  occ. eigenvalues --  -19.04890 -18.97019 -14.23175 -14.18846 -10.15290
  Beta  occ. eigenvalues --  -10.13218 -10.10267 -10.09946 -10.09056 -10.08882
  Beta  occ. eigenvalues --  -10.08793 -10.07515 -10.07127 -10.06878 -10.06802
  Beta  occ. eigenvalues --  -10.06687 -10.06553 -10.05592  -0.96113  -0.92294
  Beta  occ. eigenvalues --   -0.83209  -0.82339  -0.73524  -0.68685  -0.68242
  Beta  occ. eigenvalues --   -0.65292  -0.63460  -0.59433  -0.59022  -0.54397
  Beta  occ. eigenvalues --   -0.53958  -0.53083  -0.50464  -0.44450  -0.43835
  Beta  occ. eigenvalues --   -0.43469  -0.41908  -0.39175  -0.38487  -0.37313
  Beta  occ. eigenvalues --   -0.36492  -0.35476  -0.33774  -0.33261  -0.32665
  Beta  occ. eigenvalues --   -0.32235  -0.31378  -0.30975  -0.29778  -0.29610
  Beta  occ. eigenvalues --   -0.28895  -0.28190  -0.27453  -0.27165  -0.26374
  Beta  occ. eigenvalues --   -0.25682  -0.25293  -0.24223  -0.24025  -0.22373
  Beta  occ. eigenvalues --   -0.22040  -0.21847  -0.16890  -0.15694  -0.13658
  Beta  occ. eigenvalues --   -0.13202  -0.11910
  Beta virt. eigenvalues --    0.06037   0.07148   0.07556   0.07736   0.08117
  Beta virt. eigenvalues --    0.08418   0.08961   0.09638   0.09771   0.10170
  Beta virt. eigenvalues --    0.10207   0.10780   0.11208   0.12332   0.12638

 Mulliken charges and spin densities:
               1          2
     1  C    0.264398  -0.713633
     2  C   -0.731945   1.538381
     3  C    0.260549  -0.778964
     4  C   -0.622881   0.383850
     5  C   -0.240142  -0.203410
     6  N    0.246196  -0.001344
     7  C   -0.643605   0.259237
     8  C    0.360803  -0.934206
     9  C   -0.325247  -0.626722
    10  O   -0.254220   0.009903
    11  C    0.966148  -0.860973
    12  C   -0.052356   0.413202
    13  C   -0.293944  -0.007557
    14  C    0.478010  -0.449751
    15  C   -0.637556   0.481019
    16  N    0.024743   0.145146
    17  O   -0.197838   0.025734
    18  C    0.052895  -0.724834
    19  H    0.041895   0.091330
    20  H   -0.117637   0.254321
    21  H    0.060495   0.075403
    22  H    0.057469   0.083194
    23  H   -0.010597   0.152128
    24  H   -0.049432   0.217053
    25  H    0.188186   0.028562
    26  H   -0.022828   0.148693
    27  H    0.184428   0.023893
    28  H    0.092492   0.128244
    29  H    0.230197  -0.075179
    30  H    0.102064   0.065683
    31  H   -0.034777   0.206986
    32  H   -0.781863   0.932641
    33  H    0.020317   0.125979
    34  H    0.090793   0.070820
    35  H   -0.166686   0.440635
    36  H   -0.126878   0.292296
    37  H   -0.017334   0.161083
    38  H    0.605689  -0.378843
 Sum of Mulliken charges =  -1.00000   1.00000

 Dipole moment (field-independent basis, Debye):
    X=              3.7294    Y=              0.3323    Z=             -2.9119  Tot=              4.7432
 Quadrupole moment (field-independent basis, Debye-Ang):
   XX=           -171.5598   YY=           -149.2436   ZZ=           -143.0884
   XY=             -0.1263   XZ=              9.8452   YZ=              4.2314

 Summary of Natural Population Analysis:

                                       Natural Population
                Natural  -----------------------------------------------
    Atom  No    Charge         Core      Valence    Rydberg      Total
 -----------------------------------------------------------------------
      C    1   -0.27909      0.99963     2.27342    0.00603     3.27909
      C    2   -0.04671      0.99957     2.03622    0.01092     3.04671
      C    3   -0.18615      0.99959     2.17650    0.01007     3.18615
      C    4   -0.19738      0.99962     2.18944    0.00833     3.19738
      C    5   -0.08933      0.99961     2.07882    0.01090     3.08933
      N    6   -0.25360      0.99963     2.74455    0.00942     3.75360
      C    7   -0.08185      0.99960     2.07149    0.01075     3.08185
      C    8   -0.19458      0.99958     2.18545    0.00955     3.19458
      C    9    0.34459      0.99960     1.63290    0.02291     2.65541
      O   10   -0.31652      0.99988     3.31194    0.00470     4.31652
      C   11    0.05821      0.99946     1.92638    0.01596     2.94179
      C   12    0.14540      0.99934     1.84143    0.01383     2.85460
      C   13   -0.10121      0.99952     2.09111    0.01057     3.10121
      C   14   -0.09893      0.99957     2.08913    0.01023     3.09893
      C   15   -0.00064      0.99959     1.98725    0.01380     3.00064
      N   16   -0.20298      0.99968     2.69320    0.01010     3.70298
      O   17   -0.33496      0.99987     3.32769    0.00739     4.33496
      C   18   -0.29111      0.99962     2.28370    0.00779     3.29111
      H   19    0.09783      0.00000     0.40128    0.00089     0.40217
      H   20    0.09797      0.00000     0.40110    0.00094     0.40203
      H   21    0.09848      0.00000     0.40064    0.00088     0.40152
      H   22    0.09812      0.00000     0.40098    0.00089     0.40188
      H   23    0.09350      0.00000     0.40535    0.00114     0.40650
      H   24    0.09651      0.00000     0.40257    0.00091     0.40349
      H   25    0.10704      0.00000     0.39175    0.00121     0.39296
      H   26    0.09126      0.00000     0.40778    0.00096     0.40874
      H   27    0.11275      0.00000     0.38618    0.00108     0.38725
      H   28    0.09686      0.00000     0.40207    0.00107     0.40314
      H   29    0.10699      0.00000     0.39153    0.00148     0.39301
      H   30    0.09666      0.00000     0.40208    0.00126     0.40334
      H   31    0.10301      0.00000     0.39608    0.00090     0.39699
      H   32    0.10107      0.00000     0.39648    0.00245     0.39893
      H   33    0.09831      0.00000     0.40083    0.00086     0.40169
      H   34    0.08569      0.00000     0.41331    0.00099     0.41431
      H   35    0.23656      0.00000     0.25837    0.00507     0.26344
      H   36    0.09967      0.00000     0.39944    0.00090     0.40033
      H   37    0.09843      0.00000     0.40074    0.00082     0.40157
      H   38    0.11011      0.00000     0.38812    0.00178     0.38989
 =======================================================================
   * Total *   -0.00000     17.99295    48.78731    0.21974    67.00000

 Normal termination of Gaussian 16 at Fri Dec 11 22:25:42 2020.
