 Gaussian 16, Revision A.03,

 -----------------------------------------------------------
 # opt freq B3LYP/6-31G(d) empiricaldispersion=gd3bj scf=xqc
 -----------------------------------------------------------

 -------------------------------
 CID_60712996_JID_10992_neutraal
 -------------------------------
 Symbolic Z-matrix:
 Charge =  0 Multiplicity = 1

 SCF Done:  E(RB3LYP) =  -1293.68175417     A.U. after   15 cycles
 SCF Done:  E(RB3LYP) =  -1293.69013355     A.U. after   12 cycles
 SCF Done:  E(RB3LYP) =  -1293.69233758     A.U. after   13 cycles
 SCF Done:  E(RB3LYP) =  -1293.69354255     A.U. after   13 cycles
 SCF Done:  E(RB3LYP) =  -1293.69420562     A.U. after   12 cycles
 SCF Done:  E(RB3LYP) =  -1293.69455699     A.U. after   12 cycles
 SCF Done:  E(RB3LYP) =  -1293.69481172     A.U. after   12 cycles
 SCF Done:  E(RB3LYP) =  -1293.69498538     A.U. after   12 cycles
 SCF Done:  E(RB3LYP) =  -1293.69507492     A.U. after   12 cycles
 SCF Done:  E(RB3LYP) =  -1293.69509417     A.U. after   10 cycles
 SCF Done:  E(RB3LYP) =  -1293.69515652     A.U. after    8 cycles
 SCF Done:  E(RB3LYP) =  -1293.69515749     A.U. after    8 cycles
 SCF Done:  E(RB3LYP) =  -1293.69515837     A.U. after    8 cycles
 SCF Done:  E(RB3LYP) =  -1293.69515891     A.U. after    8 cycles
 SCF Done:  E(RB3LYP) =  -1293.69515901     A.U. after    7 cycles
 Optimization completed.
    -- Stationary point found.
 Normal termination of Gaussian 16 at Sat Dec 12 16:32:04 2020.

 --------------------------------------------------------------------
 #N Geom=AllCheck Guess=TCheck SCRF=Check GenChk RB3LYP/6-31G(d) Freq
 --------------------------------------------------------------------

 Structure from the checkpoint file:  "JID_10992.chk"
 -------------------------------
 CID_60712996_JID_10992_neutraal
 -------------------------------
 Charge =  0 Multiplicity = 1

 SCF Done:  E(RB3LYP) =  -1293.69515901     A.U. after    1 cycles

  Exact polarizability: 294.582  -2.712 161.385  -2.803   4.888 107.883
 Approx polarizability: 357.650  -6.485 297.750 -16.489  15.009 166.496

                      1                      2                      3
                      A                      A                      A
 Frequencies --     16.1774                22.2841                38.1310
 Red. masses --      5.2743                 4.4600                 4.2720
 Frc consts  --      0.0008                 0.0013                 0.0037
 IR Inten    --      0.7005                 2.6550                 1.3772

                      4                      5                      6
                      A                      A                      A
 Frequencies --     49.8654                61.0477                69.0079
 Red. masses --      4.0310                 4.3591                 3.2469
 Frc consts  --      0.0059                 0.0096                 0.0091
 IR Inten    --      2.4410                 0.3935                 1.0272

                      7                      8                      9
                      A                      A                      A
 Frequencies --     90.8618               103.8665               134.0265
 Red. masses --      2.3750                 1.3044                 7.2764
 Frc consts  --      0.0116                 0.0083                 0.0770
 IR Inten    --      1.1075                 2.6510                 6.7967

                     10                     11                     12
                      A                      A                      A
 Frequencies --    167.7359               181.6598               188.5057
 Red. masses --      3.6947                 6.2132                 2.6024
 Frc consts  --      0.0612                 0.1208                 0.0545
 IR Inten    --      5.9168                 0.8486                 4.8572

                     13                     14                     15
                      A                      A                      A
 Frequencies --    204.0640               224.3110               230.6683
 Red. masses --      1.7687                 1.4469                 4.8172
 Frc consts  --      0.0434                 0.0429                 0.1510
 IR Inten    --      1.2514                 1.4591                 2.0197

                     16                     17                     18
                      A                      A                      A
 Frequencies --    251.2303               293.0804               318.6639
 Red. masses --      1.4304                 3.9659                 3.8529
 Frc consts  --      0.0532                 0.2007                 0.2305
 IR Inten    --      1.7487                15.6139                 6.8044

                     19                     20                     21
                      A                      A                      A
 Frequencies --    328.3122               356.2068               359.6835
 Red. masses --      3.8505                 3.1965                 5.5511
 Frc consts  --      0.2445                 0.2390                 0.4231
 IR Inten    --      3.1714                 1.8350                 0.6395

                     22                     23                     24
                      A                      A                      A
 Frequencies --    379.2416               392.0434               408.6762
 Red. masses --      4.7008                 3.6816                 1.3716
 Frc consts  --      0.3983                 0.3334                 0.1350
 IR Inten    --      2.2559                 3.7753                82.9119

                     25                     26                     27
                      A                      A                      A
 Frequencies --    423.3535               483.4452               489.8824
 Red. masses --      2.7641                 5.2149                 4.6866
 Frc consts  --      0.2919                 0.7181                 0.6627
 IR Inten    --      8.4627                 4.9852                 4.7515

                     28                     29                     30
                      A                      A                      A
 Frequencies --    522.6829               533.9457               569.6406
 Red. masses --      3.5616                 2.9716                 7.7678
 Frc consts  --      0.5733                 0.4992                 1.4851
 IR Inten    --     15.4631                20.0122                64.3681

                     31                     32                     33
                      A                      A                      A
 Frequencies --    632.2126               634.2320               650.4398
 Red. masses --      6.3518                 5.6612                 6.8369
 Frc consts  --      1.4958                 1.3417                 1.7042
 IR Inten    --      3.9702                19.6186                 1.6487

                     34                     35                     36
                      A                      A                      A
 Frequencies --    664.3514               675.3186               714.2270
 Red. masses --      3.7564                 5.0845                 3.8741
 Frc consts  --      0.9768                 1.3662                 1.1644
 IR Inten    --      6.3758                98.4915                22.3092

                     37                     38                     39
                      A                      A                      A
 Frequencies --    731.1595               781.3433               803.4595
 Red. masses --      6.4129                 4.7116                 1.2404
 Frc consts  --      2.0199                 1.6947                 0.4718
 IR Inten    --    167.7786                 3.3051                17.5966

                     40                     41                     42
                      A                      A                      A
 Frequencies --    813.1286               832.6949               878.1472
 Red. masses --      1.3458                 1.6562                 4.7274
 Frc consts  --      0.5243                 0.6766                 2.1479
 IR Inten    --      9.5463                37.0360                 6.2042

                     43                     44                     45
                      A                      A                      A
 Frequencies --    940.8606               943.9464               949.0236
 Red. masses --      3.2876                 1.3054                 4.0468
 Frc consts  --      1.7147                 0.6853                 2.1474
 IR Inten    --    173.7292                 2.5845                16.0390

                     46                     47                     48
                      A                      A                      A
 Frequencies --    969.8490              1021.1262              1024.8869
 Red. masses --      1.2719                 4.1218                 3.4971
 Frc consts  --      0.7049                 2.5322                 2.1642
 IR Inten    --      0.6958                 0.6669                 9.8771

                     49                     50                     51
                      A                      A                      A
 Frequencies --   1036.9577              1041.3792              1051.2509
 Red. masses --      2.0359                 1.7415                 5.9197
 Frc consts  --      1.2898                 1.1127                 3.8545
 IR Inten    --     10.0333                 1.2267                15.3129

                     52                     53                     54
                      A                      A                      A
 Frequencies --   1076.2518              1081.4664              1092.8602
 Red. masses --      1.5487                 1.5090                 5.2094
 Frc consts  --      1.0569                 1.0398                 3.6658
 IR Inten    --     13.7554                 3.9122                75.3400

                     55                     56                     57
                      A                      A                      A
 Frequencies --   1130.8216              1132.3757              1145.5719
 Red. masses --      2.0262                 1.4047                 3.5216
 Frc consts  --      1.5266                 1.0612                 2.7229
 IR Inten    --      5.3994                11.6333               307.1281

                     58                     59                     60
                      A                      A                      A
 Frequencies --   1155.3996              1184.7568              1186.9829
 Red. masses --      1.3810                 2.2417                 1.4016
 Frc consts  --      1.0862                 1.8539                 1.1635
 IR Inten    --     11.9484                12.5207                 7.1625

                     61                     62                     63
                      A                      A                      A
 Frequencies --   1221.1439              1224.1517              1260.1405
 Red. masses --      2.7776                 1.3872                 1.0771
 Frc consts  --      2.4404                 1.2248                 1.0078
 IR Inten    --     70.4241                 3.0966                 0.4985

                     64                     65                     66
                      A                      A                      A
 Frequencies --   1281.3222              1282.5461              1306.5521
 Red. masses --      2.0140                 2.2830                 8.4379
 Frc consts  --      1.9481                 2.2126                 8.4867
 IR Inten    --     25.4709                32.7479               145.6605

                     67                     68                     69
                      A                      A                      A
 Frequencies --   1318.1483              1346.3837              1382.0105
 Red. masses --      2.5831                 1.5477                 2.1570
 Frc consts  --      2.6443                 1.6530                 2.4273
 IR Inten    --     14.1024                 3.4141                21.6827

                     70                     71                     72
                      A                      A                      A
 Frequencies --   1387.7698              1442.2239              1458.5877
 Red. masses --      3.4088                 1.2570                 1.1495
 Frc consts  --      3.8680                 1.5404                 1.4409
 IR Inten    --    114.2823                 1.9681                 1.6872

                     73                     74                     75
                      A                      A                      A
 Frequencies --   1461.5697              1486.8135              1487.0929
 Red. masses --      2.9141                 1.3959                 2.0348
 Frc consts  --      3.6677                 1.8181                 2.6513
 IR Inten    --     72.4297                 7.9214                10.8556

                     76                     77                     78
                      A                      A                      A
 Frequencies --   1503.1140              1513.7656              1516.9993
 Red. masses --      1.0419                 1.0474                 1.2850
 Frc consts  --      1.3870                 1.4141                 1.7423
 IR Inten    --      7.8566                10.7416                25.4436

                     79                     80                     81
                      A                      A                      A
 Frequencies --   1525.8346              1528.3040              1531.6261
 Red. masses --      1.0484                 1.0592                 1.6441
 Frc consts  --      1.4381                 1.4576                 2.2723
 IR Inten    --      3.9045                16.4475                34.6598

                     82                     83                     84
                      A                      A                      A
 Frequencies --   1540.0257              1543.3339              1556.5021
 Red. masses --      1.9903                 1.0635                 1.8252
 Frc consts  --      2.7811                 1.4925                 2.6053
 IR Inten    --      4.0380                 9.2515                17.0964

                     85                     86                     87
                      A                      A                      A
 Frequencies --   1576.2571              1631.2676              1662.2311
 Red. masses --      2.9810                 4.3604                 6.1080
 Frc consts  --      4.3638                 6.8365                 9.9433
 IR Inten    --    323.6424                39.1760               311.9776

                     88                     89                     90
                      A                      A                      A
 Frequencies --   1668.8485              2983.4107              3017.5043
 Red. masses --      5.9371                 1.0691                 1.0913
 Frc consts  --      9.7423                 5.6064                 5.8543
 IR Inten    --    162.5207                40.5285                30.0197

                     91                     92                     93
                      A                      A                      A
 Frequencies --   3019.3932              3032.9870              3061.9141
 Red. masses --      1.0496                 1.0430                 1.0371
 Frc consts  --      5.6378                 5.6532                 5.7285
 IR Inten    --     63.2089                53.8900                14.9564

                     94                     95                     96
                      A                      A                      A
 Frequencies --   3107.7523              3111.4649              3119.3575
 Red. masses --      1.0904                 1.0942                 1.1016
 Frc consts  --      6.2046                 6.2414                 6.3152
 IR Inten    --     22.9515                23.4241                 7.0523

                     97                     98                     99
                      A                      A                      A
 Frequencies --   3149.4232              3155.9185              3183.1463
 Red. masses --      1.1023                 1.1015                 1.0987
 Frc consts  --      6.4419                 6.4637                 6.5591
 IR Inten    --     17.4344                 7.2874                 2.7118

                    100                    101                    102
                      A                      A                      A
 Frequencies --   3188.0476              3213.1867              3228.2198
 Red. masses --      1.0895                 1.0870                 1.0940
 Frc consts  --      6.5245                 6.6124                 6.7170
 IR Inten    --     13.0219                11.2115                 6.3013

                    103                    104                    105
                      A                      A                      A
 Frequencies --   3230.3968              3286.9321              3607.8508
 Red. masses --      1.0927                 1.0986                 1.0771
 Frc consts  --      6.7182                 6.9932                 8.2607
 IR Inten    --      2.0811                 0.7938               133.1557

 - Thermochemistry -
 -------------------
 Temperature   298.150 Kelvin.  Pressure   1.00000 Atm.
 Atom     1 has atomic number  6 and mass  12.00000

 Molecular mass:   295.09906 amu.
 Principal axes and moments of inertia in atomic units:
                           1         2         3
     Eigenvalues --  1433.46767********************
           X            0.99997   0.00149   0.00779
           Y           -0.00158   0.99993   0.01185
           Z           -0.00777  -0.01187   0.99990
 This molecule is an asymmetric top.
 Rotational symmetry number  1.
 Warning -- assumption of classical behavior for rotation
           may cause significant error
 Rotational temperatures (Kelvin)      0.06042     0.00437     0.00430
 Rotational constants (GHZ):           1.25900     0.09095     0.08954
 Zero-point vibrational energy     778830.3 (Joules/Mol)
                                  186.14491 (Kcal/Mol)
 Warning -- explicit consideration of  30 degrees of freedom as
           vibrations may cause significant error
 Vibrational temperatures:     23.28    32.06    54.86    71.75    87.83
          (Kelvin)             99.29   130.73   149.44   192.83   241.33
                              261.37   271.22   293.60   322.73   331.88
                              361.46   421.68   458.49   472.37   512.50
                              517.50   545.64   564.06   587.99   609.11
                              695.57   704.83   752.02   768.23   819.59
                              909.61   912.52   935.84   955.85   971.63
                             1027.61  1051.98  1124.18  1156.00  1169.91
                             1198.06  1263.46  1353.69  1358.13  1365.43
                             1395.40  1469.17  1474.58  1491.95  1498.31
                             1512.52  1548.49  1555.99  1572.38  1627.00
                             1629.24  1648.22  1662.36  1704.60  1707.80
                             1756.95  1761.28  1813.06  1843.54  1845.30
                             1879.84  1896.52  1937.15  1988.40  1996.69
                             2075.04  2098.58  2102.87  2139.19  2139.59
                             2162.65  2177.97  2182.62  2195.34  2198.89
                             2203.67  2215.75  2220.51  2239.46  2267.88
                             2347.03  2391.58  2401.10  4292.46  4341.52
                             4344.23  4363.79  4405.41  4471.36  4476.70
                             4488.06  4531.32  4540.66  4579.84  4586.89
                             4623.06  4644.69  4647.82  4729.16  5190.89

 Zero-point correction=                           0.296641 (Hartree/Particle)
 Thermal correction to Energy=                    0.316770
 Thermal correction to Enthalpy=                  0.317714
 Thermal correction to Gibbs Free Energy=         0.245083
 Sum of electronic and zero-point Energies=          -1293.398518
 Sum of electronic and thermal Energies=             -1293.378389
 Sum of electronic and thermal Enthalpies=           -1293.377445
 Sum of electronic and thermal Free Energies=        -1293.450076

                     E (Thermal)             CV                S
                      KCal/Mol        Cal/Mol-Kelvin    Cal/Mol-Kelvin
 Total                  198.776             74.158            152.865
 Electronic               0.000              0.000              0.000
 Translational            0.889              2.981             42.944
 Rotational               0.889              2.981             34.704
 Vibrational            196.998             68.196             75.217
 Vibration     1          0.593              1.986              7.055
 Vibration     2          0.593              1.985              6.419
 Vibration     3          0.594              1.982              5.354
 Vibration     4          0.595              1.978              4.823
 Vibration     5          0.597              1.973              4.423
 Vibration     6          0.598              1.969              4.181
 Vibration     7          0.602              1.956              3.641
 Vibration     8          0.605              1.946              3.380
 Vibration     9          0.613              1.919              2.887
 Vibration    10          0.624              1.882              2.461
 Vibration    11          0.630              1.865              2.311
 Vibration    12          0.633              1.856              2.242
 Vibration    13          0.640              1.834              2.096
 Vibration    14          0.649              1.804              1.924
 Vibration    15          0.652              1.794              1.874
 Vibration    16          0.663              1.761              1.722
 Vibration    17          0.688              1.687              1.456
 Vibration    18          0.705              1.638              1.317
 Vibration    19          0.712              1.619              1.268
 Vibration    20          0.732              1.563              1.139
 Vibration    21          0.734              1.555              1.123
 Vibration    22          0.749              1.514              1.042
 Vibration    23          0.759              1.487              0.992
 Vibration    24          0.773              1.451              0.931
 Vibration    25          0.786              1.419              0.881
 Vibration    26          0.840              1.287              0.701
 Vibration    27          0.846              1.272              0.684
 Vibration    28          0.878              1.200              0.604
 Vibration    29          0.889              1.175              0.578
 Vibration    30          0.926              1.097              0.505

                           ! Non-Optimized Parameters !
 Normal termination of Gaussian 16 at Sat Dec 12 16:46:51 2020.

 ----------------------------------------------------------------------
 # B3LYP/6-311++G(d,p) empiricaldispersion=gd3bj scf=xqc pop=npa geom=c
 heck
 ----------------------------------------------------------------------

 ---------------------------------------
 CID_60712996_JID_10992_Energie_neutraal
 ---------------------------------------
 Structure from the checkpoint file:  "JID_10992.chk"
 Charge =  0 Multiplicity = 1

 SCF Done:  E(RB3LYP) =  -1293.96853629     A.U. after   17 cycles
 Normal termination of Gaussian 16 at Sat Dec 12 16:53:40 2020.

 ----------------------------------------------------------------------
 # B3LYP/6-311++G(d,p) empiricaldispersion=gd3bj scf=xqc pop=npa geom=c
 heck
 ----------------------------------------------------------------------

 -------------------------------------
 CID_60712996_JID_10992_Energie_kation
 -------------------------------------
 Structure from the checkpoint file:  "JID_10992.chk"
 Charge =  1 Multiplicity = 2

 SCF Done:  E(UB3LYP) =  -1293.68819527     A.U. after   26 cycles
 Normal termination of Gaussian 16 at Sat Dec 12 17:07:54 2020.
 Gaussian 16:  ES64L-G16RevA.03 25-Dec-2016

 ----------------------------------------------------------------------
 # B3LYP/6-311++G(d,p) empiricaldispersion=gd3bj scf=xqc pop=npa geom=c
 heck
 ----------------------------------------------------------------------

 ------------------------------------
 CID_60712996_JID_10992_Energie_anion
 ------------------------------------
 Structure from the checkpoint file:  "JID_10992.chk"
 Charge = -1 Multiplicity = 2

                         Standard orientation:
 ---------------------------------------------------------------------
 Center     Atomic      Atomic             Coordinates (Angstroms)
 Number     Number       Type             X           Y           Z
 ---------------------------------------------------------------------
      1          6           0        7.910539    0.381549   -0.063123
      2          6           0        6.428881    0.248357   -0.056838
      3          6           0        5.401551    1.140842    0.020542
      4          6           0        4.232331    0.328250   -0.027843
      5          7           0        4.533215   -0.945731   -0.125949
      6          8           0        5.928585   -1.005237   -0.145828
      7          6           0        2.797258    0.762856    0.035326
      8          7           0        1.912931   -0.357848   -0.176027
      9          6           0        0.556386   -0.291495    0.010958
     10          6           0       -0.208603   -1.478722   -0.009522
     11          6           0       -1.582664   -1.438316    0.158217
     12          6           0       -2.222237   -0.209290    0.347355
     13          6           0       -1.484657    0.975493    0.375939
     14          6           0       -0.107795    0.939798    0.207934
     15         16           0       -3.977307   -0.152536    0.592161
     16          8           0       -4.472673   -1.538260    0.638611
     17          8           0       -4.295127    0.778636    1.680882
     18          7           0       -4.483047    0.628868   -0.841630
     19          6           0       -4.343848   -0.216807   -2.029993
     20          6           0       -5.810713    1.243960   -0.721241
     21          1           0        8.354406   -0.160887    0.778945
     22          1           0        8.335420   -0.031220   -0.984756
     23          1           0        8.193422    1.434033    0.011324
     24          1           0        5.463979    2.215811    0.099397
     25          1           0        2.615256    1.240900    1.012704
     26          1           0        2.628413    1.541711   -0.723557
     27          1           0        2.352894   -1.268174   -0.168087
     28          1           0        0.294278   -2.431163   -0.155125
     29          1           0       -2.172468   -2.348283    0.153134
     30          1           0       -1.992734    1.920846    0.533094
     31          1           0        0.454126    1.866699    0.228268
     32          1           0       -5.052590   -1.056589   -2.036287
     33          1           0       -4.516732    0.409740   -2.910095
     34          1           0       -3.325736   -0.609713   -2.084049
     35          1           0       -6.621113    0.500024   -0.697836
     36          1           0       -5.846347    1.844949    0.187069
     37          1           0       -5.954144    1.894905   -1.589065
 ---------------------------------------------------------------------

 SCF Done:  E(UB3LYP) =  -1293.96651896     A.U. after   33 cycles
 SCF Done:  E(UB3LYP) =  -1293.96651896     a.u. after    1 cycles

 The electronic state is 2-A.
 Alpha  occ. eigenvalues --  -88.96715 -19.12746 -19.02520 -19.02416 -14.27899
 Alpha  occ. eigenvalues --  -14.26147 -14.24839 -10.16663 -10.14461 -10.14133
 Alpha  occ. eigenvalues --  -10.13658 -10.12475 -10.12343 -10.10421 -10.10216
 Alpha  occ. eigenvalues --  -10.10093 -10.09824 -10.09642 -10.09121 -10.09089
 Alpha  occ. eigenvalues --   -8.02923  -5.99203  -5.99172  -5.99005  -1.06450
 Alpha  occ. eigenvalues --   -1.02532  -0.91544  -0.87193  -0.85352  -0.80179
 Alpha  occ. eigenvalues --   -0.77185  -0.73212  -0.68836  -0.67326  -0.64736
 Alpha  occ. eigenvalues --   -0.64338  -0.63809  -0.60658  -0.55205  -0.53731
 Alpha  occ. eigenvalues --   -0.53158  -0.49455  -0.48053  -0.46321  -0.45076
 Alpha  occ. eigenvalues --   -0.42605  -0.41422  -0.41126  -0.40668  -0.39601
 Alpha  occ. eigenvalues --   -0.38161  -0.37996  -0.37138  -0.36563  -0.35554
 Alpha  occ. eigenvalues --   -0.34755  -0.34458  -0.33926  -0.33562  -0.33350
 Alpha  occ. eigenvalues --   -0.33067  -0.32121  -0.30852  -0.30716  -0.30633
 Alpha  occ. eigenvalues --   -0.29986  -0.26919  -0.25577  -0.24105  -0.23476
 Alpha  occ. eigenvalues --   -0.23419  -0.22307  -0.21610  -0.21099  -0.18164
 Alpha  occ. eigenvalues --   -0.18136  -0.17356  -0.12860   0.03204
 Alpha virt. eigenvalues --    0.04437   0.05533   0.05856   0.06100   0.06799
 Alpha virt. eigenvalues --    0.07122   0.07703   0.07974   0.08379   0.08698
 Alpha virt. eigenvalues --    0.08927   0.09894   0.10286   0.10608   0.10945

  Beta  occ. eigenvalues --  -88.96708 -19.12733 -19.02510 -19.02400 -14.27896
  Beta  occ. eigenvalues --  -14.26137 -14.24820 -10.16648 -10.14443 -10.14131
  Beta  occ. eigenvalues --  -10.13529 -10.12468 -10.12322 -10.10361 -10.10202
  Beta  occ. eigenvalues --  -10.10036 -10.09725 -10.09612 -10.09126 -10.09125
  Beta  occ. eigenvalues --   -8.02915  -5.99188  -5.99155  -5.99001  -1.06430
  Beta  occ. eigenvalues --   -1.02481  -0.91512  -0.87109  -0.85317  -0.80140
  Beta  occ. eigenvalues --   -0.77084  -0.73168  -0.68699  -0.67240  -0.64695
  Beta  occ. eigenvalues --   -0.64272  -0.63757  -0.60590  -0.55079  -0.53657
  Beta  occ. eigenvalues --   -0.53108  -0.49402  -0.48010  -0.46263  -0.45016
  Beta  occ. eigenvalues --   -0.42543  -0.41367  -0.41069  -0.40618  -0.39577
  Beta  occ. eigenvalues --   -0.38120  -0.37927  -0.37079  -0.36514  -0.35510
  Beta  occ. eigenvalues --   -0.34728  -0.34419  -0.33862  -0.33505  -0.33288
  Beta  occ. eigenvalues --   -0.33042  -0.32068  -0.30783  -0.30659  -0.30601
  Beta  occ. eigenvalues --   -0.29751  -0.26874  -0.25541  -0.23861  -0.23463
  Beta  occ. eigenvalues --   -0.23355  -0.22244  -0.21559  -0.20989  -0.18086
  Beta  occ. eigenvalues --   -0.17941  -0.17295  -0.12582
  Beta virt. eigenvalues --    0.05037   0.05740   0.05979   0.06264   0.06673
  Beta virt. eigenvalues --    0.07003   0.07143   0.07756   0.08367   0.08692
  Beta virt. eigenvalues --    0.08851   0.09255   0.10169   0.10542   0.10733

 Mulliken charges and spin densities:
               1          2
     1  C    2.095814  -2.394834
     2  C   -0.462974   0.314295
     3  C   -2.256041   2.228140
     4  C    1.634848  -1.969814
     5  N   -0.601053   0.179582
     6  O    0.283953  -0.046389
     7  C    0.758514  -1.027089
     8  N   -0.018974   0.039584
     9  C   -0.442483  -0.029461
    10  C   -0.682242   0.188716
    11  C   -0.516969   0.233703
    12  C   -0.126471  -0.011266
    13  C    0.038873  -0.002542
    14  C    0.395555  -0.015958
    15  S    0.487601  -0.282557
    16  O   -0.120995   0.001556
    17  O   -0.233093  -0.006460
    18  N   -0.128737   0.096947
    19  C   -0.265798  -0.174705
    20  C   -0.062377  -0.222978
    21  H   -0.322209   0.494297
    22  H   -0.183238   0.348496
    23  H   -0.557686   0.745731
    24  H   -1.006283   1.210113
    25  H    0.027634   0.164715
    26  H    0.075699   0.102761
    27  H    0.321974   0.017965
    28  H    0.122431   0.011646
    29  H    0.201101   0.027444
    30  H    0.143818   0.074160
    31  H   -0.023988   0.200814
    32  H    0.152860   0.037130
    33  H   -0.003776   0.157355
    34  H    0.099474   0.036185
    35  H    0.074238   0.061945
    36  H    0.116934   0.051029
    37  H   -0.015934   0.159745
 Sum of Mulliken charges =  -1.00000   1.00000

 Dipole moment (field-independent basis, Debye):
    X=             -8.4267    Y=             -2.6930    Z=             -2.8465  Tot=              9.2933
 Quadrupole moment (field-independent basis, Debye-Ang):
   XX=           -314.1199   YY=           -161.3032   ZZ=           -154.8820
   XY=            -23.0549   XZ=              7.8344   YZ=              0.1988

 Summary of Natural Population Analysis:

                                       Natural Population
                Natural  -----------------------------------------------
    Atom  No    Charge         Core      Valence    Rydberg      Total
 -----------------------------------------------------------------------
      C    1   -0.31039      0.99962     2.30447    0.00630     3.31039
      C    2    0.18593      0.99951     1.79996    0.01459     2.81407
      C    3   -0.16954      0.99944     2.16104    0.00906     3.16954
      C    4    0.08760      0.99960     1.89839    0.01441     2.91240
      N    5   -0.10190      0.99964     2.58948    0.01278     3.60190
      O    6   -0.16689      0.99985     3.15818    0.00886     4.16689
      C    7   -0.09945      0.99958     2.08869    0.01118     3.09945
      N    8   -0.30304      0.99966     2.79386    0.00952     3.80304
      C    9    0.11815      0.99954     1.87032    0.01199     2.88185
      C   10   -0.12771      0.99954     2.11989    0.00828     3.12771
      C   11   -0.08300      0.99951     2.07406    0.00943     3.08300
      C   12   -0.16865      0.99937     2.15221    0.01707     3.16865
      C   13   -0.06556      0.99954     2.05148    0.01454     3.06556
      C   14   -0.12330      0.99954     2.11930    0.00446     3.12330
      S   15    1.10746      4.99913     1.79385    0.09956     6.89254
      O   16   -0.47042      0.99991     3.46507    0.00544     4.47042
      O   17   -0.46442      0.99991     3.45908    0.00543     4.46442
      N   18   -0.36354      0.99976     2.85024    0.01354     3.86354
      C   19   -0.18423      0.99964     2.17641    0.00819     3.18423
      C   20   -0.18333      0.99964     2.17595    0.00774     3.18333
      H   21    0.11402      0.00000     0.38428    0.00169     0.38598
      H   22    0.11159      0.00000     0.38727    0.00113     0.38841
      H   23    0.11646      0.00000     0.38062    0.00292     0.38354
      H   24    0.12002      0.00000     0.37745    0.00253     0.37998
      H   25    0.10393      0.00000     0.39463    0.00144     0.39607
      H   26    0.10235      0.00000     0.39615    0.00150     0.39765
      H   27    0.20031      0.00000     0.29702    0.00267     0.29969
      H   28    0.10058      0.00000     0.39853    0.00089     0.39942
      H   29    0.11442      0.00000     0.38456    0.00102     0.38558
      H   30    0.10998      0.00000     0.38886    0.00116     0.39002
      H   31    0.10106      0.00000     0.39734    0.00160     0.39894
      H   32    0.09192      0.00000     0.40660    0.00148     0.40808
      H   33    0.09717      0.00000     0.40165    0.00118     0.40283
      H   34    0.10665      0.00000     0.39233    0.00102     0.39335
      H   35    0.08685      0.00000     0.41149    0.00166     0.41315
      H   36    0.11209      0.00000     0.38669    0.00122     0.38791
      H   37    0.09687      0.00000     0.40191    0.00122     0.40313
 =======================================================================
   * Total *    0.00006     23.99194    53.68930    0.31871    77.99994

 Normal termination of Gaussian 16 at Sat Dec 12 17:26:37 2020.
