 Gaussian 16, Revision A.03,

 -----------------------------------------------------------
 # opt freq B3LYP/6-31G(d) empiricaldispersion=gd3bj scf=xqc
 -----------------------------------------------------------

 ------------------------------
 CID_133675108_JID_513_neutraal
 ------------------------------
 Symbolic Z-matrix:
 Charge =  0 Multiplicity = 1

 SCF Done:  E(RB3LYP) =  -495.808531961     A.U. after   15 cycles
 SCF Done:  E(RB3LYP) =  -495.811144717     A.U. after   13 cycles
 SCF Done:  E(RB3LYP) =  -495.811463515     A.U. after   12 cycles
 SCF Done:  E(RB3LYP) =  -495.811655645     A.U. after   11 cycles
 SCF Done:  E(RB3LYP) =  -495.811731459     A.U. after   11 cycles
 SCF Done:  E(RB3LYP) =  -495.811787170     A.U. after   10 cycles
 SCF Done:  E(RB3LYP) =  -495.811821140     A.U. after   10 cycles
 SCF Done:  E(RB3LYP) =  -495.811845190     A.U. after   10 cycles
 SCF Done:  E(RB3LYP) =  -495.811847758     A.U. after    8 cycles
 SCF Done:  E(RB3LYP) =  -495.811848244     A.U. after    8 cycles
 SCF Done:  E(RB3LYP) =  -495.811848412     A.U. after    7 cycles
 SCF Done:  E(RB3LYP) =  -495.811848495     A.U. after    7 cycles
 Optimization completed.
    -- Stationary point found.
 Normal termination of Gaussian 16 at Tue Dec  8 12:17:41 2020.

 --------------------------------------------------------------------
 #N Geom=AllCheck Guess=TCheck SCRF=Check GenChk RB3LYP/6-31G(d) Freq
 --------------------------------------------------------------------

 Structure from the checkpoint file:  "JID_513.chk"
 ------------------------------
 CID_133675108_JID_513_neutraal
 ------------------------------
 Charge =  0 Multiplicity = 1

 SCF Done:  E(RB3LYP) =  -495.811848495     A.U. after    1 cycles

  Exact polarizability: 123.385  -3.993  78.992   5.141   2.851  63.515
 Approx polarizability: 173.542  -4.161 109.204  14.722   5.565  91.338

                      1                      2                      3
                      A                      A                      A
 Frequencies --     41.3907                60.4948                92.0253
 Red. masses --      3.7511                 3.5094                 3.3532
 Frc consts  --      0.0038                 0.0076                 0.0167
 IR Inten    --      1.1553                 1.2962                 1.4636

                      4                      5                      6
                      A                      A                      A
 Frequencies --    106.8906               117.6005               124.9103
 Red. masses --      2.6930                 1.0884                 2.2306
 Frc consts  --      0.0181                 0.0089                 0.0205
 IR Inten    --      3.3314                 0.3541                 1.2797

                      7                      8                      9
                      A                      A                      A
 Frequencies --    158.5523               177.6387               263.9092
 Red. masses --      1.3546                 1.3083                 2.9352
 Frc consts  --      0.0201                 0.0243                 0.1204
 IR Inten    --      2.6270                 0.5138                15.0092

                     10                     11                     12
                      A                      A                      A
 Frequencies --    281.0299               332.4601               372.0216
 Red. masses --      3.0358                 4.1184                 3.4516
 Frc consts  --      0.1413                 0.2682                 0.2815
 IR Inten    --      6.2617                 0.7981                 4.9072

                     13                     14                     15
                      A                      A                      A
 Frequencies --    436.5302               494.6660               518.0638
 Red. masses --      2.4013                 2.5772                 2.5493
 Frc consts  --      0.2696                 0.3715                 0.4031
 IR Inten    --      0.4435                14.4170                12.6119

                     16                     17                     18
                      A                      A                      A
 Frequencies --    557.6733               601.8333               605.9271
 Red. masses --      1.8046                 4.9029                 2.0642
 Frc consts  --      0.3307                 1.0463                 0.4465
 IR Inten    --     17.7213                36.2637                51.6351

                     19                     20                     21
                      A                      A                      A
 Frequencies --    660.8034               832.7828               863.6721
 Red. masses --      3.2667                 3.6639                 3.6675
 Frc consts  --      0.8404                 1.4971                 1.6118
 IR Inten    --     13.2266                 8.6973                13.1764

                     22                     23                     24
                      A                      A                      A
 Frequencies --    939.4734               989.8578              1031.9135
 Red. masses --      2.9551                 1.6971                 1.5465
 Frc consts  --      1.5367                 0.9797                 0.9703
 IR Inten    --     16.2624                12.9104                32.9350

                     25                     26                     27
                      A                      A                      A
 Frequencies --   1054.2447              1069.4012              1082.9729
 Red. masses --      1.7568                 1.7237                 1.9530
 Frc consts  --      1.1504                 1.1614                 1.3496
 IR Inten    --     10.6350                 5.7097                11.6906

                     28                     29                     30
                      A                      A                      A
 Frequencies --   1138.6137              1181.3193              1193.3144
 Red. masses --      3.8531                 2.6741                 1.3713
 Frc consts  --      2.9431                 2.1987                 1.1505
 IR Inten    --    141.1781                72.4595                11.8712

                     31                     32                     33
                      A                      A                      A
 Frequencies --   1230.0447              1276.7817              1316.4836
 Red. masses --      1.6901                 3.8360                 1.2332
 Frc consts  --      1.5066                 3.6844                 1.2592
 IR Inten    --     25.6603               129.3809                24.5050

                     34                     35                     36
                      A                      A                      A
 Frequencies --   1358.2714              1400.9830              1427.3099
 Red. masses --      2.1777                 1.3220                 1.4202
 Frc consts  --      2.3671                 1.5288                 1.7047
 IR Inten    --    189.1015                19.3664                38.6114

                     37                     38                     39
                      A                      A                      A
 Frequencies --   1430.8217              1480.4147              1494.4791
 Red. masses --      1.2948                 1.3860                 1.0811
 Frc consts  --      1.5617                 1.7897                 1.4226
 IR Inten    --     48.4304                86.1025                 7.2316

                     40                     41                     42
                      A                      A                      A
 Frequencies --   1499.1670              1503.3413              1509.8604
 Red. masses --      1.1304                 1.0475                 1.1163
 Frc consts  --      1.4968                 1.3948                 1.4994
 IR Inten    --      3.9031                 9.7616                 3.0839

                     43                     44                     45
                      A                      A                      A
 Frequencies --   1515.7060              1519.2820              1535.4071
 Red. masses --      1.0515                 1.1441                 1.1376
 Frc consts  --      1.4233                 1.5560                 1.5801
 IR Inten    --      4.0247                 7.6273                 5.5544

                     46                     47                     48
                      A                      A                      A
 Frequencies --   1539.0742              1714.4492              1810.0940
 Red. masses --      1.0880                 9.1032                 8.3945
 Frc consts  --      1.5184                15.7649                16.2050
 IR Inten    --      9.9026                25.0654               391.2113

                     49                     50                     51
                      A                      A                      A
 Frequencies --   3004.8569              3029.0961              3033.2036
 Red. masses --      1.0365                 1.0575                 1.0427
 Frc consts  --      5.5138                 5.7167                 5.6521
 IR Inten    --     45.1670                43.6946                 3.5913

                     52                     53                     54
                      A                      A                      A
 Frequencies --   3054.2194              3076.6504              3082.6035
 Red. masses --      1.1044                 1.0362                 1.1046
 Frc consts  --      6.0698                 5.7789                 6.1843
 IR Inten    --     55.1761                 1.9841                14.7794

                     55                     56                     57
                      A                      A                      A
 Frequencies --   3083.0873              3139.7080              3144.8331
 Red. masses --      1.1010                 1.1001                 1.0982
 Frc consts  --      6.1663                 6.3892                 6.3991
 IR Inten    --     24.5597                 6.3204                33.2923

                     58                     59                     60
                      A                      A                      A
 Frequencies --   3158.1514              3183.3276              3526.3314
 Red. masses --      1.0964                 1.1043                 1.0752
 Frc consts  --      6.4432                 6.5933                 7.8773
 IR Inten    --      3.4608                11.8723                 4.6350

 - Thermochemistry -
 -------------------
 Temperature   298.150 Kelvin.  Pressure   1.00000 Atm.
 Atom     1 has atomic number  6 and mass  12.00000

 Molecular mass:   144.08988 amu.
 Principal axes and moments of inertia in atomic units:
                           1         2         3
     Eigenvalues --   658.090973044.742243342.14503
           X            0.99985  -0.01213  -0.01198
           Y            0.01212   0.99993  -0.00106
           Z            0.01200   0.00092   0.99993
 This molecule is an asymmetric top.
 Rotational symmetry number  1.
 Warning -- assumption of classical behavior for rotation
           may cause significant error
 Rotational temperatures (Kelvin)      0.13161     0.02845     0.02592
 Rotational constants (GHZ):           2.74239     0.59274     0.53999
 Zero-point vibrational energy     487239.2 (Joules/Mol)
                                  116.45295 (Kcal/Mol)
 Warning -- explicit consideration of  18 degrees of freedom as
           vibrations may cause significant error
 Vibrational temperatures:     59.55    87.04   132.40   153.79   169.20
          (Kelvin)            179.72   228.12   255.58   379.71   404.34
                              478.34   535.26   628.07   711.71   745.38
                              802.37   865.90   871.79   950.75  1198.19
                             1242.63  1351.69  1424.18  1484.69  1516.82
                             1538.63  1558.16  1638.21  1699.66  1716.91
                             1769.76  1837.00  1894.13  1954.25  2015.70
                             2053.58  2058.63  2129.99  2150.22  2156.97
                             2162.97  2172.35  2180.76  2185.91  2209.11
                             2214.38  2466.71  2604.32  4323.32  4358.19
                             4364.10  4394.34  4426.61  4435.18  4435.87
                             4517.34  4524.71  4543.88  4580.10  5073.60

 Zero-point correction=                           0.185580 (Hartree/Particle)
 Thermal correction to Energy=                    0.197642
 Thermal correction to Enthalpy=                  0.198586
 Thermal correction to Gibbs Free Energy=         0.146611
 Sum of electronic and zero-point Energies=           -495.626269
 Sum of electronic and thermal Energies=              -495.614206
 Sum of electronic and thermal Enthalpies=            -495.613262
 Sum of electronic and thermal Free Energies=         -495.665237

                     E (Thermal)             CV                S
                      KCal/Mol        Cal/Mol-Kelvin    Cal/Mol-Kelvin
 Total                  124.022             41.511            109.391
 Electronic               0.000              0.000              0.000
 Translational            0.889              2.981             40.807
 Rotational               0.889              2.981             30.283
 Vibrational            122.245             35.550             38.301
 Vibration     1          0.594              1.981              5.191
 Vibration     2          0.597              1.973              4.441
 Vibration     3          0.602              1.955              3.617
 Vibration     4          0.606              1.944              3.325
 Vibration     5          0.608              1.935              3.139
 Vibration     6          0.610              1.928              3.023
 Vibration     7          0.621              1.893              2.567
 Vibration     8          0.628              1.870              2.353
 Vibration     9          0.670              1.739              1.636
 Vibration    10          0.681              1.709              1.527
 Vibration    11          0.714              1.611              1.248
 Vibration    12          0.744              1.530              1.071
 Vibration    13          0.797              1.391              0.838
 Vibration    14          0.850              1.262              0.672
 Vibration    15          0.873              1.210              0.614
 Vibration    16          0.913              1.123              0.528
 Vibration    17          0.960              1.028              0.447
 Vibration    18          0.965              1.019              0.440

                           ! Non-Optimized Parameters !
 Normal termination of Gaussian 16 at Tue Dec  8 12:22:26 2020.

 ----------------------------------------------------------------------
 # B3LYP/6-311++G(d,p) empiricaldispersion=gd3bj scf=xqc pop=npa geom=c
 heck
 ----------------------------------------------------------------------

 --------------------------------------
 CID_133675108_JID_513_Energie_neutraal
 --------------------------------------
 Structure from the checkpoint file:  "JID_513.chk"
 Charge =  0 Multiplicity = 1

 SCF Done:  E(RB3LYP) =  -495.963460634     A.U. after   14 cycles
 Normal termination of Gaussian 16 at Tue Dec  8 12:25:01 2020.

 ----------------------------------------------------------------------
 # B3LYP/6-311++G(d,p) empiricaldispersion=gd3bj scf=xqc pop=npa geom=c
 heck
 ----------------------------------------------------------------------

 ------------------------------------
 CID_133675108_JID_513_Energie_kation
 ------------------------------------
 Structure from the checkpoint file:  "JID_513.chk"
 Charge =  1 Multiplicity = 2

 SCF Done:  E(UB3LYP) =  -495.637578315     A.U. after   24 cycles
 Normal termination of Gaussian 16 at Tue Dec  8 12:29:04 2020.
 Gaussian 16:  ES64L-G16RevA.03 25-Dec-2016

 ----------------------------------------------------------------------
 # B3LYP/6-311++G(d,p) empiricaldispersion=gd3bj scf=xqc pop=npa geom=c
 heck
 ----------------------------------------------------------------------

 -----------------------------------
 CID_133675108_JID_513_Energie_anion
 -----------------------------------
 Structure from the checkpoint file:  "JID_513.chk"
 Charge = -1 Multiplicity = 2

                         Standard orientation:
 ---------------------------------------------------------------------
 Center     Atomic      Atomic             Coordinates (Angstroms)
 Number     Number       Type             X           Y           Z
 ---------------------------------------------------------------------
      1          6           0       -1.056098    1.899864    0.050716
      2          6           0       -0.831237    0.482498   -0.410235
      3          7           0        0.291386   -0.143523   -0.383681
      4          7           0        1.391072    0.521332    0.062089
      5          6           0        2.637551   -0.078095    0.139364
      6          8           0        3.590216    0.571918    0.538262
      7          6           0        2.706866   -1.526660   -0.287697
      8          6           0       -2.015167   -0.279462   -0.958695
      9          8           0       -3.133169   -0.256903   -0.085291
     10          6           0       -2.922484   -1.010421    1.095556
     11          1           0       -0.672827    2.057445    1.067519
     12          1           0       -2.124806    2.121984    0.060763
     13          1           0       -0.555021    2.622919   -0.607676
     14          1           0        1.355070    1.498082    0.343766
     15          1           0        2.046052   -2.144268    0.328200
     16          1           0        2.374331   -1.642434   -1.323559
     17          1           0        3.739389   -1.861116   -0.182924
     18          1           0       -2.368400    0.193610   -1.883390
     19          1           0       -1.699528   -1.307253   -1.188056
     20          1           0       -2.701535   -2.063659    0.864058
     21          1           0       -2.095381   -0.610812    1.700466
     22          1           0       -3.847518   -0.955616    1.674161
 ---------------------------------------------------------------------

 SCF Done:  E(UB3LYP) =  -495.951610269     A.U. after   32 cycles

 The electronic state is 2-A.
 Alpha  occ. eigenvalues --  -19.02382 -18.99188 -14.26550 -14.23900 -10.17489
 Alpha  occ. eigenvalues --  -10.11330 -10.10561 -10.10490 -10.07308 -10.06552
 Alpha  occ. eigenvalues --   -0.95103  -0.93534  -0.90008  -0.74572  -0.64594
 Alpha  occ. eigenvalues --   -0.63439  -0.61330  -0.55477  -0.48691  -0.48487
 Alpha  occ. eigenvalues --   -0.40392  -0.38473  -0.38252  -0.36878  -0.35754
 Alpha  occ. eigenvalues --   -0.34502  -0.32349  -0.31943  -0.31140  -0.30043
 Alpha  occ. eigenvalues --   -0.28525  -0.27897  -0.27089  -0.24520  -0.22300
 Alpha  occ. eigenvalues --   -0.18658  -0.16533  -0.15989  -0.13529   0.04650
 Alpha virt. eigenvalues --    0.07111   0.07696   0.07853   0.08959   0.09870
 Alpha virt. eigenvalues --    0.10714   0.11034   0.11113   0.11695   0.12726
 Alpha virt. eigenvalues --    0.13579   0.13806   0.14305   0.15395   0.15630

  Beta  occ. eigenvalues --  -19.02370 -18.99145 -14.26557 -14.23821 -10.17446
  Beta  occ. eigenvalues --  -10.11314 -10.10514 -10.10421 -10.07293 -10.06490
  Beta  occ. eigenvalues --   -0.95026  -0.93510  -0.89919  -0.74475  -0.64511
  Beta  occ. eigenvalues --   -0.63362  -0.61235  -0.55359  -0.48636  -0.48403
  Beta  occ. eigenvalues --   -0.40275  -0.38385  -0.38156  -0.36808  -0.35623
  Beta  occ. eigenvalues --   -0.34423  -0.32253  -0.31850  -0.31083  -0.30014
  Beta  occ. eigenvalues --   -0.28432  -0.27831  -0.27025  -0.24255  -0.22259
  Beta  occ. eigenvalues --   -0.18554  -0.16484  -0.15939  -0.13289
  Beta virt. eigenvalues --    0.07046   0.07872   0.08191   0.08703   0.09668
  Beta virt. eigenvalues --    0.10421   0.11296   0.11591   0.11754   0.12071
  Beta virt. eigenvalues --    0.12874   0.13937   0.14055   0.14477   0.15515

 Mulliken charges and spin densities:
               1          2
     1  C    2.060089  -2.680561
     2  C   -2.471739   2.499075
     3  N    0.127805  -0.066148
     4  N   -0.299289   0.243614
     5  C   -0.304382   0.399236
     6  O   -0.337071   0.022739
     7  C    0.349032  -0.763351
     8  C    1.607207  -2.093102
     9  O   -0.195008   0.089220
    10  C    0.766958  -1.073946
    11  H   -0.172334   0.324526
    12  H   -0.275998   0.476223
    13  H   -0.761820   0.951732
    14  H    0.074601   0.236025
    15  H    0.039980   0.125888
    16  H   -0.175457   0.350258
    17  H    0.073766   0.076986
    18  H   -0.435383   0.619921
    19  H    0.030441   0.134354
    20  H   -0.195291   0.310635
    21  H   -0.205233   0.362447
    22  H   -0.300874   0.454229
 Sum of Mulliken charges =  -1.00000   1.00000

 Dipole moment (field-independent basis, Debye):
    X=              1.9670    Y=             -3.2592    Z=              0.6271  Tot=              3.8581
 Quadrupole moment (field-independent basis, Debye-Ang):
   XX=           -127.0312   YY=            -99.4890   ZZ=            -90.5813
   XY=             -2.9967   XZ=             -1.7493   YZ=              1.4704

 Summary of Natural Population Analysis:

                                       Natural Population
                Natural  -----------------------------------------------
    Atom  No    Charge         Core      Valence    Rydberg      Total
 -----------------------------------------------------------------------
      C    1   -0.33216      0.99963     2.32553    0.00700     3.33216
      C    2    0.11863      0.99961     1.86662    0.01514     2.88137
      N    3   -0.13793      0.99960     2.62384    0.01448     3.63793
      N    4   -0.22718      0.99966     2.71566    0.01186     3.72718
      C    5    0.34863      0.99971     1.63046    0.02120     2.65137
      O    6   -0.31567      0.99987     3.30951    0.00628     4.31567
      C    7   -0.33289      0.99963     2.32891    0.00435     3.33289
      C    8   -0.02412      0.99953     2.01062    0.01397     3.02412
      O    9   -0.29718      0.99989     3.28648    0.01081     4.29718
      C   10   -0.09640      0.99961     2.08816    0.00862     3.09640
      H   11    0.10579      0.00000     0.39268    0.00154     0.39421
      H   12    0.11681      0.00000     0.38133    0.00186     0.38319
      H   13    0.11597      0.00000     0.37831    0.00572     0.38403
      H   14    0.18907      0.00000     0.30779    0.00315     0.31093
      H   15    0.11326      0.00000     0.38550    0.00125     0.38674
      H   16    0.11574      0.00000     0.38266    0.00160     0.38426
      H   17    0.10551      0.00000     0.39340    0.00109     0.39449
      H   18    0.09756      0.00000     0.39982    0.00261     0.40244
      H   19    0.08841      0.00000     0.40963    0.00196     0.41159
      H   20    0.07754      0.00000     0.42049    0.00196     0.42246
      H   21    0.08123      0.00000     0.41680    0.00197     0.41877
      H   22    0.08938      0.00000     0.40893    0.00170     0.41062
 =======================================================================
   * Total *    0.00000      9.99675    28.86314    0.14012    39.00000

 Normal termination of Gaussian 16 at Tue Dec  8 12:40:05 2020.
