 Gaussian 16, Revision A.03,

 -----------------------------------------------------------
 # opt freq B3LYP/6-31G(d) empiricaldispersion=gd3bj scf=xqc
 -----------------------------------------------------------

 -------------------------------
 CID_114602021_JID_6040_neutraal
 -------------------------------
 Symbolic Z-matrix:
 Charge =  0 Multiplicity = 1

 SCF Done:  E(RB3LYP) =  -657.660441949     A.U. after   15 cycles
 SCF Done:  E(RB3LYP) =  -657.669355898     A.U. after   12 cycles
 SCF Done:  E(RB3LYP) =  -657.669777544     A.U. after   12 cycles
 SCF Done:  E(RB3LYP) =  -657.669344648     A.U. after   13 cycles
 SCF Done:  E(RB3LYP) =  -657.670081782     A.U. after   12 cycles
 SCF Done:  E(RB3LYP) =  -657.670219896     A.U. after   12 cycles
 SCF Done:  E(RB3LYP) =  -657.670293671     A.U. after   13 cycles
 SCF Done:  E(RB3LYP) =  -657.670304041     A.U. after   10 cycles
 SCF Done:  E(RB3LYP) =  -657.670304059     A.U. after    9 cycles
 SCF Done:  E(RB3LYP) =  -657.670307949     A.U. after   10 cycles
 SCF Done:  E(RB3LYP) =  -657.670308245     A.U. after    8 cycles
 SCF Done:  E(RB3LYP) =  -657.670308425     A.U. after    7 cycles
 SCF Done:  E(RB3LYP) =  -657.670308454     A.U. after    8 cycles
 Optimization completed.
    -- Stationary point found.
 Normal termination of Gaussian 16 at Thu Dec 10 21:09:29 2020.

 --------------------------------------------------------------------
 #N Geom=AllCheck Guess=TCheck SCRF=Check GenChk RB3LYP/6-31G(d) Freq
 --------------------------------------------------------------------

 Structure from the checkpoint file:  "JID_6040.chk"
 -------------------------------
 CID_114602021_JID_6040_neutraal
 -------------------------------
 Charge =  0 Multiplicity = 1

 SCF Done:  E(RB3LYP) =  -657.670308454     A.U. after    1 cycles

  Exact polarizability: 202.622   2.534 153.694   5.555   2.742 102.177
 Approx polarizability: 261.593   7.228 268.042   9.527   8.887 150.176

                      1                      2                      3
                      A                      A                      A
 Frequencies --     19.7432                26.8548                50.3429
 Red. masses --      4.9068                 2.6435                 3.5263
 Frc consts  --      0.0011                 0.0011                 0.0053
 IR Inten    --      0.6942                 0.1433                 0.9676

                      4                      5                      6
                      A                      A                      A
 Frequencies --     64.3940               102.3639               106.8932
 Red. masses --      3.0142                 3.3325                 3.6423
 Frc consts  --      0.0074                 0.0206                 0.0245
 IR Inten    --      0.1674                 0.1481                 1.0126

                      7                      8                      9
                      A                      A                      A
 Frequencies --    140.4356               174.4316               199.2803
 Red. masses --      4.5134                 3.1015                 2.5122
 Frc consts  --      0.0524                 0.0556                 0.0588
 IR Inten    --      2.2514                 0.5568                 0.1929

                     10                     11                     12
                      A                      A                      A
 Frequencies --    233.9378               277.9647               330.0365
 Red. masses --      3.9628                 3.4566                 3.4126
 Frc consts  --      0.1278                 0.1574                 0.2190
 IR Inten    --      3.3477                 0.6346                 0.1800

                     13                     14                     15
                      A                      A                      A
 Frequencies --    330.6609               404.1081               432.0527
 Red. masses --      3.1389                 2.6489                 3.1919
 Frc consts  --      0.2022                 0.2549                 0.3511
 IR Inten    --      1.6619                 1.2541                 0.8437

                     16                     17                     18
                      A                      A                      A
 Frequencies --    438.8258               457.3212               503.2266
 Red. masses --      4.8000                 3.1659                 3.5102
 Frc consts  --      0.5446                 0.3901                 0.5237
 IR Inten    --      1.1231                 0.1351                 1.1161

                     19                     20                     21
                      A                      A                      A
 Frequencies --    575.1433               612.5073               659.8810
 Red. masses --      2.9655                 3.6573                 3.4426
 Frc consts  --      0.5780                 0.8084                 0.8832
 IR Inten    --      9.7253                23.7110                 9.5939

                     22                     23                     24
                      A                      A                      A
 Frequencies --    695.1309               717.0509               749.6054
 Red. masses --      3.8040                 1.9913                 2.3600
 Frc consts  --      1.0830                 0.6032                 0.7813
 IR Inten    --      1.8145                19.1003                 9.5022

                     25                     26                     27
                      A                      A                      A
 Frequencies --    780.4271               795.9662               802.9317
 Red. masses --      1.1772                 1.7053                 1.2595
 Frc consts  --      0.4225                 0.6365                 0.4784
 IR Inten    --      5.4931                 7.9386                 3.8219

                     28                     29                     30
                      A                      A                      A
 Frequencies --    810.4740               831.0841               849.9872
 Red. masses --      2.0017                 1.5089                 2.0658
 Frc consts  --      0.7747                 0.6141                 0.8793
 IR Inten    --     10.4601                 3.5512                17.5884

                     31                     32                     33
                      A                      A                      A
 Frequencies --    899.4227               919.6343               924.4409
 Red. masses --      2.2778                 1.5752                 1.4656
 Frc consts  --      1.0856                 0.7849                 0.7379
 IR Inten    --      0.5515                 0.7958                 2.2445

                     34                     35                     36
                      A                      A                      A
 Frequencies --    938.8682               944.7845               953.1569
 Red. masses --      2.6189                 2.2280                 1.7093
 Frc consts  --      1.3601                 1.1718                 0.9150
 IR Inten    --      5.9503                 2.1616                 8.9427

                     37                     38                     39
                      A                      A                      A
 Frequencies --    966.2253               971.7600               981.5388
 Red. masses --      1.6860                 1.6052                 1.3082
 Frc consts  --      0.9274                 0.8931                 0.7426
 IR Inten    --      0.9394                 0.2100                 0.0582

                     40                     41                     42
                      A                      A                      A
 Frequencies --   1003.2829              1022.5324              1027.6471
 Red. masses --      2.3196                 6.1715                 3.0487
 Frc consts  --      1.3756                 3.8018                 1.8969
 IR Inten    --      5.3964                 0.5577                 2.6490

                     43                     44                     45
                      A                      A                      A
 Frequencies --   1048.6084              1066.6886              1079.5943
 Red. masses --      2.0450                 1.4065                 1.8352
 Frc consts  --      1.3249                 0.9429                 1.2603
 IR Inten    --      2.4924                 6.9427                 1.7483

                     46                     47                     48
                      A                      A                      A
 Frequencies --   1084.6304              1126.3639              1141.2828
 Red. masses --      1.4931                 1.7247                 2.1234
 Frc consts  --      1.0349                 1.2892                 1.6296
 IR Inten    --      9.5933                 2.0799                 1.3037

                     49                     50                     51
                      A                      A                      A
 Frequencies --   1146.2007              1154.9089              1209.1128
 Red. masses --      1.3772                 1.2302                 1.2006
 Frc consts  --      1.0660                 0.9668                 1.0341
 IR Inten    --      8.3418                 2.0165                28.7829

                     52                     53                     54
                      A                      A                      A
 Frequencies --   1210.1534              1213.0900              1214.5917
 Red. masses --      1.3840                 1.6307                 1.4100
 Frc consts  --      1.1942                 1.4139                 1.2256
 IR Inten    --      2.1260                25.6263                20.8461

                     55                     56                     57
                      A                      A                      A
 Frequencies --   1237.6873              1251.0363              1263.2907
 Red. masses --      1.7814                 1.4203                 1.6063
 Frc consts  --      1.6078                 1.3097                 1.5104
 IR Inten    --      1.2508                18.0996                14.6150

                     58                     59                     60
                      A                      A                      A
 Frequencies --   1268.3532              1271.3620              1292.8820
 Red. masses --      1.1651                 1.3275                 1.4770
 Frc consts  --      1.1043                 1.2642                 1.4546
 IR Inten    --      0.4240                 0.3760                 7.6304

                     61                     62                     63
                      A                      A                      A
 Frequencies --   1298.0658              1307.8677              1327.7942
 Red. masses --      1.4077                 1.5712                 1.8108
 Frc consts  --      1.3975                 1.5835                 1.8810
 IR Inten    --      6.7169                50.1506                49.6453

                     64                     65                     66
                      A                      A                      A
 Frequencies --   1331.3753              1370.7213              1381.7712
 Red. masses --      1.6515                 3.9472                 1.8295
 Frc consts  --      1.7248                 4.3696                 2.0580
 IR Inten    --     58.2124                 7.4475                 5.6152

                     67                     68                     69
                      A                      A                      A
 Frequencies --   1417.9014              1470.5517              1496.9770
 Red. masses --      1.6197                 3.1495                 1.0882
 Frc consts  --      1.9186                 4.0128                 1.4367
 IR Inten    --      8.4229                23.8417                 1.2639

                     70                     71                     72
                      A                      A                      A
 Frequencies --   1511.3890              1514.2030              1516.7371
 Red. masses --      1.0907                 1.1910                 1.0842
 Frc consts  --      1.4679                 1.6089                 1.4695
 IR Inten    --      0.1123                18.0381                 2.0146

                     73                     74                     75
                      A                      A                      A
 Frequencies --   1534.0630              1538.9188              1542.8826
 Red. masses --      2.0363                 1.4247                 1.1435
 Frc consts  --      2.8234                 1.9880                 1.6038
 IR Inten    --      5.9759                 2.7061                 1.1352

                     76                     77                     78
                      A                      A                      A
 Frequencies --   1641.2851              1658.7343              1766.2966
 Red. masses --      5.2785                 5.9346                11.3836
 Frc consts  --      8.3778                 9.6204                20.9246
 IR Inten    --      6.3826                24.5948               144.4191

                     79                     80                     81
                      A                      A                      A
 Frequencies --   3031.4710              3066.5422              3071.7538
 Red. masses --      1.0838                 1.0573                 1.0571
 Frc consts  --      5.8680                 5.8580                 5.8770
 IR Inten    --     16.1665                40.6590                33.9987

                     82                     83                     84
                      A                      A                      A
 Frequencies --   3073.0106              3075.3526              3113.0402
 Red. masses --      1.0586                 1.0637                 1.1070
 Frc consts  --      5.8897                 5.9273                 6.3206
 IR Inten    --     15.6497                25.0845                22.7260

                     85                     86                     87
                      A                      A                      A
 Frequencies --   3117.2555              3121.3069              3134.4490
 Red. masses --      1.1044                 1.1087                 1.1082
 Frc consts  --      6.3229                 6.3638                 6.4152
 IR Inten    --     13.5864                19.6323                67.8080

                     88                     89                     90
                      A                      A                      A
 Frequencies --   3144.1722              3153.4175              3167.5437
 Red. masses --      1.0530                 1.0564                 1.0900
 Frc consts  --      6.1331                 6.1895                 6.4433
 IR Inten    --     23.7262                11.1259                 8.4805

                     91                     92                     93
                      A                      A                      A
 Frequencies --   3183.3111              3200.0718              3219.1374
 Red. masses --      1.0866                 1.0927                 1.1165
 Frc consts  --      6.4875                 6.5928                 6.8171
 IR Inten    --      5.9233                22.4633                 2.9583

                     94                     95                     96
                      A                      A                      A
 Frequencies --   3219.4971              3224.6058              3235.5158
 Red. masses --      1.0912                 1.0931                 1.1149
 Frc consts  --      6.6641                 6.6968                 6.8767
 IR Inten    --      4.3094                15.9114                24.1062

 - Thermochemistry -
 -------------------
 Temperature   298.150 Kelvin.  Pressure   1.00000 Atm.
 Atom     1 has atomic number  6 and mass  12.00000

 Molecular mass:   214.13577 amu.
 Principal axes and moments of inertia in atomic units:
                           1         2         3
     Eigenvalues --  1656.288917194.572937761.09434
           X            0.99996  -0.00851  -0.00014
           Y            0.00851   0.99977  -0.01980
           Z            0.00031   0.01980   0.99980
 This molecule is an asymmetric top.
 Rotational symmetry number  1.
 Warning -- assumption of classical behavior for rotation
           may cause significant error
 Rotational temperatures (Kelvin)      0.05229     0.01204     0.01116
 Rotational constants (GHZ):           1.08963     0.25085     0.23254
 Zero-point vibrational energy     772699.0 (Joules/Mol)
                                  184.67949 (Kcal/Mol)
 Warning -- explicit consideration of  20 degrees of freedom as
           vibrations may cause significant error
 Vibrational temperatures:     28.41    38.64    72.43    92.65   147.28
          (Kelvin)            153.80   202.06   250.97   286.72   336.58
                              399.93   474.85   475.75   581.42   621.63
                              631.37   657.98   724.03   827.50   881.26
                              949.42  1000.14  1031.68  1078.51  1122.86
                             1145.22  1155.24  1166.09  1195.74  1222.94
                             1294.07  1323.15  1330.06  1350.82  1359.33
                             1371.38  1390.18  1398.15  1412.22  1443.50
                             1471.20  1478.55  1508.71  1534.73  1553.30
                             1560.54  1620.59  1642.05  1649.13  1661.66
                             1739.64  1741.14  1745.37  1747.53  1780.76
                             1799.96  1817.59  1824.88  1829.21  1860.17
                             1867.63  1881.73  1910.40  1915.55  1972.16
                             1988.06  2040.04  2115.80  2153.82  2174.55
                             2178.60  2182.25  2207.17  2214.16  2219.86
                             2361.44  2386.55  2541.31  4361.61  4412.07
                             4419.57  4421.38  4424.75  4478.97  4485.04
                             4490.86  4509.77  4523.76  4537.06  4557.39
                             4580.07  4604.19  4631.62  4632.14  4639.49
                             4655.19

 Zero-point correction=                           0.294306 (Hartree/Particle)
 Thermal correction to Energy=                    0.309087
 Thermal correction to Enthalpy=                  0.310031
 Thermal correction to Gibbs Free Energy=         0.249936
 Sum of electronic and zero-point Energies=           -657.376003
 Sum of electronic and thermal Energies=              -657.361221
 Sum of electronic and thermal Enthalpies=            -657.360277
 Sum of electronic and thermal Free Energies=         -657.420372

                     E (Thermal)             CV                S
                      KCal/Mol        Cal/Mol-Kelvin    Cal/Mol-Kelvin
 Total                  193.955             56.773            126.480
 Electronic               0.000              0.000              0.000
 Translational            0.889              2.981             41.988
 Rotational               0.889              2.981             32.892
 Vibrational            192.178             50.811             51.601
 Vibration     1          0.593              1.986              6.660
 Vibration     2          0.593              1.984              6.049
 Vibration     3          0.595              1.977              4.804
 Vibration     4          0.597              1.971              4.318
 Vibration     5          0.604              1.947              3.409
 Vibration     6          0.606              1.944              3.325
 Vibration     7          0.615              1.913              2.798
 Vibration     8          0.627              1.874              2.387
 Vibration     9          0.637              1.841              2.140
 Vibration    10          0.654              1.789              1.849
 Vibration    11          0.679              1.714              1.546
 Vibration    12          0.713              1.616              1.260
 Vibration    13          0.713              1.614              1.257
 Vibration    14          0.769              1.461              0.948
 Vibration    15          0.793              1.400              0.852
 Vibration    16          0.799              1.386              0.830
 Vibration    17          0.815              1.345              0.774
 Vibration    18          0.859              1.243              0.650
 Vibration    19          0.932              1.085              0.494
 Vibration    20          0.972              1.005              0.429

 Optimization completed.
    -- Stationary point found.
 Normal termination of Gaussian 16 at Thu Dec 10 21:20:30 2020.

 ----------------------------------------------------------------------
 # B3LYP/6-311++G(d,p) empiricaldispersion=gd3bj scf=xqc pop=npa geom=c
 heck
 ----------------------------------------------------------------------

 ---------------------------------------
 CID_114602021_JID_6040_Energie_neutraal
 ---------------------------------------
 Structure from the checkpoint file:  "JID_6040.chk"
 Charge =  0 Multiplicity = 1

 SCF Done:  E(RB3LYP) =  -657.843474197     A.U. after   14 cycles
 Normal termination of Gaussian 16 at Thu Dec 10 21:25:21 2020.

 ----------------------------------------------------------------------
 # B3LYP/6-311++G(d,p) empiricaldispersion=gd3bj scf=xqc pop=npa geom=c
 heck
 ----------------------------------------------------------------------

 -------------------------------------
 CID_114602021_JID_6040_Energie_kation
 -------------------------------------
 Structure from the checkpoint file:  "JID_6040.chk"
 Charge =  1 Multiplicity = 2

 SCF Done:  E(UB3LYP) =  -657.530557992     A.U. after   29 cycles
 Normal termination of Gaussian 16 at Thu Dec 10 21:41:38 2020.
 Gaussian 16:  ES64L-G16RevA.03 25-Dec-2016

 ----------------------------------------------------------------------
 # B3LYP/6-311++G(d,p) empiricaldispersion=gd3bj scf=xqc pop=npa geom=c
 heck
 ----------------------------------------------------------------------

 ------------------------------------
 CID_114602021_JID_6040_Energie_anion
 ------------------------------------
 Structure from the checkpoint file:  "JID_6040.chk"
 Charge = -1 Multiplicity = 2

                         Standard orientation:
 ---------------------------------------------------------------------
 Center     Atomic      Atomic             Coordinates (Angstroms)
 Number     Number       Type             X           Y           Z
 ---------------------------------------------------------------------
      1          6           0        4.725383   -0.880828    1.014523
      2          6           0        3.430656   -1.469784    0.397232
      3          6           0        3.190458   -0.099511   -0.296089
      4          6           0        4.171721    0.539124    0.729693
      5          6           0        1.790927    0.440582   -0.418998
      6          6           0        0.701546   -0.415016   -0.574626
      7          6           0       -0.606963    0.075888   -0.699060
      8          6           0       -0.819454    1.461090   -0.671839
      9          6           0        0.261170    2.328439   -0.517129
     10          6           0        1.553298    1.822921   -0.389544
     11          6           0       -1.707634   -0.927727   -0.852943
     12          8           0       -1.451849   -2.120503   -0.946944
     13          6           0       -3.165333   -0.484423   -0.812520
     14          6           0       -3.695045   -0.619707    0.607807
     15          6           0       -3.476729    0.475007    1.622772
     16          6           0       -4.859005    0.217990    1.072612
     17          1           0        5.604493   -1.102815    0.400780
     18          1           0        4.951571   -1.135869    2.053776
     19          1           0        3.518551   -2.355826   -0.238227
     20          1           0        2.669278   -1.658805    1.161352
     21          1           0        3.664981   -0.109157   -1.287099
     22          1           0        3.627091    0.941073    1.590884
     23          1           0        4.869250    1.300185    0.366480
     24          1           0        0.840268   -1.490821   -0.598174
     25          1           0       -1.817304    1.871819   -0.773464
     26          1           0        0.094045    3.401630   -0.494141
     27          1           0        2.389737    2.505578   -0.262870
     28          1           0       -3.304253    0.540822   -1.168101
     29          1           0       -3.723311   -1.150798   -1.478374
     30          1           0       -3.646584   -1.638714    0.984980
     31          1           0       -3.265879    0.188104    2.648860
     32          1           0       -2.956730    1.373184    1.302038
     33          1           0       -5.271215    0.942027    0.374156
     34          1           0       -5.599182   -0.241865    1.721354
 ---------------------------------------------------------------------

 SCF Done:  E(UB3LYP) =  -657.850441222     A.U. after   30 cycles

 The electronic state is 2-A.
 Alpha  occ. eigenvalues --  -18.91188 -10.06738 -10.06095 -10.06014 -10.05982
 Alpha  occ. eigenvalues --  -10.05968 -10.05683 -10.05673 -10.05634 -10.03235
 Alpha  occ. eigenvalues --  -10.03003 -10.02506 -10.01785 -10.01171 -10.00814
 Alpha  occ. eigenvalues --  -10.00752  -0.85412  -0.74520  -0.74222  -0.70026
 Alpha  occ. eigenvalues --   -0.61972  -0.60278  -0.58912  -0.55212  -0.53816
 Alpha  occ. eigenvalues --   -0.49133  -0.47534  -0.46235  -0.44774  -0.43207
 Alpha  occ. eigenvalues --   -0.39670  -0.38566  -0.37634  -0.35390  -0.34391
 Alpha  occ. eigenvalues --   -0.34010  -0.31083  -0.29711  -0.28950  -0.28128
 Alpha  occ. eigenvalues --   -0.27799  -0.27205  -0.25656  -0.24736  -0.23991
 Alpha  occ. eigenvalues --   -0.23493  -0.23173  -0.22191  -0.20993  -0.20750
 Alpha  occ. eigenvalues --   -0.19751  -0.18811  -0.18183  -0.17773  -0.16890
 Alpha  occ. eigenvalues --   -0.10514  -0.10382  -0.07582   0.05061
 Alpha virt. eigenvalues --    0.07245   0.08101   0.08930   0.09280   0.09752
 Alpha virt. eigenvalues --    0.10139   0.10865   0.11349   0.11518   0.12304
 Alpha virt. eigenvalues --    0.12827   0.13095   0.13322   0.13528   0.14035

  Beta  occ. eigenvalues --  -18.90656 -10.06735 -10.06089 -10.06012 -10.05965
  Beta  occ. eigenvalues --  -10.05946 -10.05670 -10.05632 -10.05334 -10.03265
  Beta  occ. eigenvalues --  -10.03072 -10.02555 -10.01638 -10.00832 -10.00676
  Beta  occ. eigenvalues --  -10.00587  -0.84435  -0.74474  -0.74198  -0.69715
  Beta  occ. eigenvalues --   -0.61642  -0.59965  -0.58641  -0.55191  -0.53642
  Beta  occ. eigenvalues --   -0.49110  -0.46871  -0.46124  -0.44606  -0.43115
  Beta  occ. eigenvalues --   -0.39384  -0.38506  -0.37624  -0.35089  -0.34184
  Beta  occ. eigenvalues --   -0.33883  -0.30892  -0.29466  -0.28878  -0.28105
  Beta  occ. eigenvalues --   -0.27726  -0.26808  -0.25608  -0.24349  -0.23797
  Beta  occ. eigenvalues --   -0.23135  -0.22797  -0.21997  -0.20790  -0.20195
  Beta  occ. eigenvalues --   -0.19168  -0.18610  -0.18030  -0.16813  -0.16482
  Beta  occ. eigenvalues --   -0.09624  -0.08602  -0.07101
  Beta virt. eigenvalues --    0.07168   0.08021   0.08872   0.09174   0.09585
  Beta virt. eigenvalues --    0.10002   0.10714   0.11221   0.11268   0.11731
  Beta virt. eigenvalues --    0.12243   0.12803   0.13044   0.13417   0.13503

 Mulliken charges and spin densities:
               1          2
     1  C   -0.222463  -0.061806
     2  C   -0.562435  -0.062614
     3  C    0.205461   0.166217
     4  C   -0.534477  -0.068453
     5  C    0.826528  -0.181366
     6  C   -0.289700   0.133445
     7  C    1.181161   0.065009
     8  C   -0.957541   0.105037
     9  C   -0.714603  -0.004056
    10  C   -0.286611   0.323930
    11  C   -0.673503   0.164653
    12  O   -0.384905   0.194229
    13  C   -0.122064   0.048836
    14  C    0.249651  -0.061119
    15  C   -0.477739   0.008549
    16  C   -0.356622   0.002018
    17  H    0.082734   0.041105
    18  H    0.094793   0.019842
    19  H    0.129247  -0.005758
    20  H    0.133582   0.026831
    21  H    0.150835   0.028271
    22  H    0.155653  -0.006755
    23  H    0.061940   0.050222
    24  H    0.183122  -0.012357
    25  H    0.035140   0.008715
    26  H    0.124321   0.002262
    27  H    0.081792  -0.005672
    28  H    0.106095   0.002728
    29  H    0.108910   0.058887
    30  H    0.212586  -0.002658
    31  H    0.118051   0.004425
    32  H    0.132983   0.001899
    33  H    0.095008   0.010057
    34  H    0.113070   0.005446
 Sum of Mulliken charges =  -1.00000   1.00000

 Dipole moment (field-independent basis, Debye):
    X=              1.5898    Y=              2.1222    Z=              2.6453  Tot=              3.7455
 Quadrupole moment (field-independent basis, Debye-Ang):
   XX=           -133.1636   YY=           -121.0286   ZZ=           -110.7492
   XY=             -7.3949   XZ=             -2.0631   YZ=             -4.0760

 Summary of Natural Population Analysis:

                                       Natural Population
                Natural  -----------------------------------------------
    Atom  No    Charge         Core      Valence    Rydberg      Total
 -----------------------------------------------------------------------
      C    1   -0.19188      0.99966     2.18508    0.00714     3.19188
      C    2   -0.18629      0.99964     2.17904    0.00761     3.18629
      C    3   -0.10630      0.99958     2.09397    0.01275     3.10630
      C    4   -0.18674      0.99964     2.17955    0.00755     3.18674
      C    5   -0.04531      0.99950     2.03598    0.00984     3.04531
      C    6   -0.04770      0.99949     2.04050    0.00772     3.04770
      C    7   -0.04214      0.99947     2.03213    0.01054     3.04214
      C    8   -0.07031      0.99954     2.06319    0.00758     3.07031
      C    9   -0.12449      0.99958     2.11531    0.00960     3.12449
      C   10   -0.04151      0.99952     2.03371    0.00827     3.04151
      C   11    0.31677      0.99963     1.66294    0.02066     2.68323
      O   12   -0.25959      0.99988     3.25342    0.00629     4.25959
      C   13   -0.22852      0.99959     2.21853    0.01040     3.22852
      C   14   -0.09983      0.99959     2.09025    0.00999     3.09983
      C   15   -0.19910      0.99963     2.19253    0.00694     3.19910
      C   16   -0.20488      0.99963     2.19875    0.00650     3.20488
      H   17    0.08989      0.00000     0.40849    0.00162     0.41011
      H   18    0.08992      0.00000     0.40855    0.00153     0.41008
      H   19    0.09451      0.00000     0.40433    0.00116     0.40549
      H   20    0.10064      0.00000     0.39780    0.00156     0.39936
      H   21    0.09661      0.00000     0.40183    0.00156     0.40339
      H   22    0.09806      0.00000     0.40072    0.00122     0.40194
      H   23    0.09155      0.00000     0.40705    0.00140     0.40845
      H   24    0.10521      0.00000     0.39334    0.00145     0.39479
      H   25    0.08805      0.00000     0.41063    0.00131     0.41195
      H   26    0.08755      0.00000     0.41079    0.00166     0.41245
      H   27    0.08528      0.00000     0.41336    0.00136     0.41472
      H   28    0.09317      0.00000     0.40518    0.00166     0.40683
      H   29    0.10244      0.00000     0.39554    0.00201     0.39756
      H   30    0.10338      0.00000     0.39563    0.00098     0.39662
      H   31    0.09650      0.00000     0.40249    0.00101     0.40350
      H   32    0.10518      0.00000     0.39368    0.00114     0.39482
      H   33    0.09583      0.00000     0.40311    0.00105     0.40417
      H   34    0.09405      0.00000     0.40484    0.00110     0.40595
 =======================================================================
   * Total *    0.00000     15.99356    41.83226    0.17418    58.00000

 Normal termination of Gaussian 16 at Thu Dec 10 21:58:00 2020.
