 Gaussian 16, Revision A.03,

 -----------------------------------------------------------
 # opt freq B3LYP/6-31G(d) empiricaldispersion=gd3bj scf=xqc
 -----------------------------------------------------------

 -------------------------------
 CID_150860220_JID_1830_neutraal
 -------------------------------
 Symbolic Z-matrix:
 Charge =  0 Multiplicity = 1

 SCF Done:  E(RB3LYP) =  -511.560958339     A.U. after   15 cycles
 SCF Done:  E(RB3LYP) =  -511.564143655     A.U. after   14 cycles
 SCF Done:  E(RB3LYP) =  -511.565889811     A.U. after   15 cycles
 SCF Done:  E(RB3LYP) =  -511.566388500     A.U. after   12 cycles
 SCF Done:  E(RB3LYP) =  -511.566404633     A.U. after   13 cycles
 SCF Done:  E(RB3LYP) =  -511.566434790     A.U. after   11 cycles
 SCF Done:  E(RB3LYP) =  -511.566451066     A.U. after    9 cycles
 SCF Done:  E(RB3LYP) =  -511.566453003     A.U. after   10 cycles
 SCF Done:  E(RB3LYP) =  -511.566453168     A.U. after    8 cycles
 Optimization completed.
    -- Stationary point found.
 Normal termination of Gaussian 16 at Tue Dec  8 21:13:59 2020.

 --------------------------------------------------------------------
 #N Geom=AllCheck Guess=TCheck SCRF=Check GenChk RB3LYP/6-31G(d) Freq
 --------------------------------------------------------------------

 Structure from the checkpoint file:  "JID_1830.chk"
 -------------------------------
 CID_150860220_JID_1830_neutraal
 -------------------------------
 Charge =  0 Multiplicity = 1

 SCF Done:  E(RB3LYP) =  -511.566453168     A.U. after    1 cycles

  Exact polarizability: 115.325  20.758 122.492  -6.700   1.744  54.026
 Approx polarizability: 158.540  53.099 238.419 -13.266  -0.483  80.400

                      1                      2                      3
                      A                      A                      A
 Frequencies --     43.8922                58.2246                91.0832
 Red. masses --      6.2849                 5.9175                 4.9675
 Frc consts  --      0.0071                 0.0118                 0.0243
 IR Inten    --      0.2930                 0.2706                 2.0581

                      4                      5                      6
                      A                      A                      A
 Frequencies --    142.0315               176.0199               221.9522
 Red. masses --      1.1674                 3.0423                 3.6533
 Frc consts  --      0.0139                 0.0555                 0.1060
 IR Inten    --      0.5791                 0.2644                 2.5753

                      7                      8                      9
                      A                      A                      A
 Frequencies --    226.1065               251.9665               294.3842
 Red. masses --      3.0167                 4.1755                 3.1856
 Frc consts  --      0.0909                 0.1562                 0.1627
 IR Inten    --      0.0366                 4.4586                 0.1460

                     10                     11                     12
                      A                      A                      A
 Frequencies --    410.9657               457.7255               516.3105
 Red. masses --      4.7316                 3.5545                 3.0467
 Frc consts  --      0.4708                 0.4388                 0.4785
 IR Inten    --      3.2300                 3.0884                 9.7694

                     13                     14                     15
                      A                      A                      A
 Frequencies --    574.5098               624.9233               657.8190
 Red. masses --     13.6845                 2.8634                 3.6811
 Frc consts  --      2.6612                 0.6589                 0.9385
 IR Inten    --     16.0459                12.4806                 3.2741

                     16                     17                     18
                      A                      A                      A
 Frequencies --    678.5112               767.7206               810.9768
 Red. masses --      5.1304                 1.7770                 4.1366
 Frc consts  --      1.3916                 0.6171                 1.6029
 IR Inten    --      9.8275                37.0403                 8.4036

                     19                     20                     21
                      A                      A                      A
 Frequencies --    834.0080               874.4743               913.2901
 Red. masses --      1.2204                 4.0682                 3.5622
 Frc consts  --      0.5001                 1.8329                 1.7506
 IR Inten    --      8.7872                23.6571                11.2079

                     22                     23                     24
                      A                      A                      A
 Frequencies --    941.5976               951.2075              1000.2684
 Red. masses --      5.1269                 1.3158                 1.6602
 Frc consts  --      2.6782                 0.7014                 0.9787
 IR Inten    --     25.3641                 0.5607                 1.1065

                     25                     26                     27
                      A                      A                      A
 Frequencies --   1028.2303              1042.8664              1067.9562
 Red. masses --      1.7818                 2.4490                 1.4349
 Frc consts  --      1.1099                 1.5693                 0.9642
 IR Inten    --     16.6532                 6.8993                 0.0595

                     28                     29                     30
                      A                      A                      A
 Frequencies --   1091.1562              1139.7045              1143.7534
 Red. masses --      2.5802                 1.4457                 3.3162
 Frc consts  --      1.8100                 1.1064                 2.5560
 IR Inten    --      2.4189                21.1513                60.4238

                     31                     32                     33
                      A                      A                      A
 Frequencies --   1210.2561              1265.0021              1290.0956
 Red. masses --      2.2908                 1.2649                 1.3898
 Frc consts  --      1.9769                 1.1926                 1.3628
 IR Inten    --    113.0472                 1.2842                46.0615

                     34                     35                     36
                      A                      A                      A
 Frequencies --   1331.6493              1351.2658              1382.2787
 Red. masses --      1.9264                 2.2521                 1.3404
 Frc consts  --      2.0127                 2.4228                 1.5090
 IR Inten    --     65.3002                43.6989                20.5843

                     37                     38                     39
                      A                      A                      A
 Frequencies --   1398.0131              1426.1395              1450.7975
 Red. masses --      1.5313                 1.9336                 1.2954
 Frc consts  --      1.7633                 2.3171                 1.6065
 IR Inten    --      0.5645                 5.7864                 6.5088

                     40                     41                     42
                      A                      A                      A
 Frequencies --   1508.3921              1508.6204              1527.3457
 Red. masses --      1.0470                 1.0840                 1.0630
 Frc consts  --      1.4036                 1.4535                 1.4610
 IR Inten    --      6.3034                 2.6807                 5.9885

                     43                     44                     45
                      A                      A                      A
 Frequencies --   1656.4497              1758.7898              2269.4593
 Red. masses --      6.5659                 7.4123                13.6894
 Frc consts  --     10.6145                13.5093                41.5413
 IR Inten    --      4.8028                25.6972               383.3306

                     46                     47                     48
                      A                      A                      A
 Frequencies --   3029.9673              3034.5092              3054.7469
 Red. masses --      1.0395                 1.0824                 1.0666
 Frc consts  --      5.6225                 5.8726                 5.8644
 IR Inten    --     64.5863                25.5187                38.7212

                     49                     50                     51
                      A                      A                      A
 Frequencies --   3070.5267              3120.9814              3130.5669
 Red. masses --      1.1007                 1.0974                 1.1011
 Frc consts  --      6.1143                 6.2981                 6.3578
 IR Inten    --     27.4436                21.3398                20.0596

                     52                     53                     54
                      A                      A                      A
 Frequencies --   3190.4080              3239.9126              3264.3154
 Red. masses --      1.0887                 1.0888                 1.1034
 Frc consts  --      6.5292                 6.7336                 6.9273
 IR Inten    --      9.5237                 0.6774                 5.4671

 - Thermochemistry -
 -------------------
 Temperature   298.150 Kelvin.  Pressure   1.00000 Atm.
 Atom     1 has atomic number  6 and mass  12.00000

 Molecular mass:   151.07456 amu.
 Principal axes and moments of inertia in atomic units:
                           1         2         3
     Eigenvalues --   963.403962408.778773216.72811
           X            0.99895   0.04555  -0.00510
           Y           -0.04552   0.99895   0.00571
           Z            0.00535  -0.00547   0.99997
 This molecule is an asymmetric top.
 Rotational symmetry number  1.
 Warning -- assumption of classical behavior for rotation
           may cause significant error
 Rotational temperatures (Kelvin)      0.08990     0.03596     0.02693
 Rotational constants (GHZ):           1.87330     0.74923     0.56105
 Zero-point vibrational energy     415727.0 (Joules/Mol)
                                   99.36114 (Kcal/Mol)
 Warning -- explicit consideration of  13 degrees of freedom as
           vibrations may cause significant error
 Vibrational temperatures:     63.15    83.77   131.05   204.35   253.25
          (Kelvin)            319.34   325.32   362.52   423.55   591.29
                              658.56   742.86   826.59   899.13   946.45
                              976.23  1104.58  1166.81  1199.95  1258.17
                             1314.02  1354.75  1368.58  1439.16  1479.39
                             1500.45  1536.55  1569.93  1639.78  1645.61
                             1741.29  1820.06  1856.16  1915.95  1944.17
                             1988.79  2011.43  2051.90  2087.37  2170.24
                             2170.57  2197.51  2383.26  2530.51  3265.25
                             4359.45  4365.98  4395.10  4417.80  4490.40
                             4504.19  4590.29  4661.51  4696.62

 Zero-point correction=                           0.158342 (Hartree/Particle)
 Thermal correction to Energy=                    0.168887
 Thermal correction to Enthalpy=                  0.169831
 Thermal correction to Gibbs Free Energy=         0.121115
 Sum of electronic and zero-point Energies=           -511.408111
 Sum of electronic and thermal Energies=              -511.397566
 Sum of electronic and thermal Enthalpies=            -511.396622
 Sum of electronic and thermal Free Energies=         -511.445338

                     E (Thermal)             CV                S
                      KCal/Mol        Cal/Mol-Kelvin    Cal/Mol-Kelvin
 Total                  105.978             38.008            102.531
 Electronic               0.000              0.000              0.000
 Translational            0.889              2.981             40.948
 Rotational               0.889              2.981             30.391
 Vibrational            104.201             32.047             31.193
 Vibration     1          0.595              1.980              5.075
 Vibration     2          0.596              1.974              4.516
 Vibration     3          0.602              1.956              3.637
 Vibration     4          0.615              1.911              2.776
 Vibration     5          0.628              1.872              2.370
 Vibration     6          0.648              1.808              1.943
 Vibration     7          0.650              1.801              1.910
 Vibration     8          0.664              1.759              1.717
 Vibration     9          0.689              1.684              1.449
 Vibration    10          0.775              1.446              0.923
 Vibration    11          0.816              1.344              0.773
 Vibration    12          0.871              1.214              0.619
 Vibration    13          0.931              1.086              0.496

                           ! Non-Optimized Parameters !
 Normal termination of Gaussian 16 at Tue Dec  8 21:17:39 2020.

 ----------------------------------------------------------------------
 # B3LYP/6-311++G(d,p) empiricaldispersion=gd3bj scf=xqc pop=npa geom=c
 heck
 ----------------------------------------------------------------------

 ---------------------------------------
 CID_150860220_JID_1830_Energie_neutraal
 ---------------------------------------
 Structure from the checkpoint file:  "JID_1830.chk"
 Charge =  0 Multiplicity = 1

 SCF Done:  E(RB3LYP) =  -511.707988372     A.U. after   16 cycles
 Normal termination of Gaussian 16 at Tue Dec  8 21:20:04 2020.

 ----------------------------------------------------------------------
 # B3LYP/6-311++G(d,p) empiricaldispersion=gd3bj scf=xqc pop=npa geom=c
 heck
 ----------------------------------------------------------------------

 -------------------------------------
 CID_150860220_JID_1830_Energie_kation
 -------------------------------------
 Structure from the checkpoint file:  "JID_1830.chk"
 Charge =  1 Multiplicity = 2

 SCF Done:  E(UB3LYP) =  -511.422001522     A.U. after   24 cycles
 Normal termination of Gaussian 16 at Tue Dec  8 21:23:34 2020.
 Gaussian 16:  ES64L-G16RevA.03 25-Dec-2016

 ----------------------------------------------------------------------
 # B3LYP/6-311++G(d,p) empiricaldispersion=gd3bj scf=xqc pop=npa geom=c
 heck
 ----------------------------------------------------------------------

 ------------------------------------
 CID_150860220_JID_1830_Energie_anion
 ------------------------------------
 Structure from the checkpoint file:  "JID_1830.chk"
 Charge = -1 Multiplicity = 2

                         Standard orientation:
 ---------------------------------------------------------------------
 Center     Atomic      Atomic             Coordinates (Angstroms)
 Number     Number       Type             X           Y           Z
 ---------------------------------------------------------------------
      1          6           0       -3.579409   -1.162150    0.291561
      2          6           0       -2.148808   -1.135915   -0.155767
      3          6           0       -1.367290   -0.046395   -0.178222
      4          6           0       -1.634777    1.337468    0.199667
      5          6           0       -0.527150    2.067904    0.014290
      6          6           0        0.572186    1.169634   -0.481001
      7          8           0       -0.053666   -0.115411   -0.620648
      8          6           0        1.741176    1.043313    0.506118
      9          7           0        2.786772    0.129617    0.017649
     10          7           0        2.520877   -1.077448    0.093792
     11          7           0        2.426235   -2.213600    0.121548
     12          1           0       -3.936242   -0.176988    0.607540
     13          1           0       -3.720255   -1.851001    1.135560
     14          1           0       -4.241809   -1.511266   -0.512170
     15          1           0       -1.705683   -2.070985   -0.489218
     16          1           0       -2.589972    1.689895    0.566156
     17          1           0       -0.398130    3.127458    0.199302
     18          1           0        0.969666    1.465631   -1.461857
     19          1           0        2.227357    2.014716    0.628328
     20          1           0        1.351641    0.722696    1.480749
 ---------------------------------------------------------------------

 SCF Done:  E(UB3LYP) =  -511.701489936     A.U. after   33 cycles
 SCF Done:  E(UB3LYP) =  -511.701489936     a.u. after    1 cycles

 The electronic state is 2-A.
 Alpha  occ. eigenvalues --  -19.01978 -14.33253 -14.23314 -14.22166 -10.11073
 Alpha  occ. eigenvalues --  -10.09823 -10.08763 -10.05976 -10.04665 -10.04549
 Alpha  occ. eigenvalues --  -10.02958  -0.99836  -0.94287  -0.84100  -0.67939
 Alpha  occ. eigenvalues --   -0.67846  -0.63491  -0.57741  -0.51143  -0.46191
 Alpha  occ. eigenvalues --   -0.43082  -0.41133  -0.39067  -0.37671  -0.36936
 Alpha  occ. eigenvalues --   -0.34593  -0.32438  -0.31232  -0.30221  -0.29204
 Alpha  occ. eigenvalues --   -0.28374  -0.27616  -0.26309  -0.23940  -0.23010
 Alpha  occ. eigenvalues --   -0.22164  -0.17298  -0.16479  -0.12379  -0.08466
 Alpha  occ. eigenvalues --    0.05115
 Alpha virt. eigenvalues --    0.07688   0.08357   0.09024   0.09872   0.10456
 Alpha virt. eigenvalues --    0.11325   0.11434   0.11779   0.13109   0.13494
 Alpha virt. eigenvalues --    0.14625   0.15716   0.16635   0.16731   0.17456

  Beta  occ. eigenvalues --  -19.01994 -14.33079 -14.23023 -14.22215 -10.11087
  Beta  occ. eigenvalues --  -10.09831 -10.08642 -10.05983 -10.04525 -10.04366
  Beta  occ. eigenvalues --  -10.02804  -0.99465  -0.94288  -0.83900  -0.67767
  Beta  occ. eigenvalues --   -0.67551  -0.63275  -0.57608  -0.50949  -0.45884
  Beta  occ. eigenvalues --   -0.42920  -0.40993  -0.38843  -0.37148  -0.36672
  Beta  occ. eigenvalues --   -0.34353  -0.32149  -0.30827  -0.30060  -0.29061
  Beta  occ. eigenvalues --   -0.28179  -0.27501  -0.26116  -0.23836  -0.22849
  Beta  occ. eigenvalues --   -0.22086  -0.16790  -0.15787  -0.12262  -0.07742
  Beta virt. eigenvalues --    0.07630   0.08754   0.09539   0.10114   0.10664
  Beta virt. eigenvalues --    0.10995   0.11578   0.11802   0.12191   0.13363
  Beta virt. eigenvalues --    0.13688   0.14832   0.15823   0.16676   0.16739

 Mulliken charges and spin densities:
               1          2
     1  C   -0.521336  -0.144533
     2  C    0.665313  -0.811229
     3  C    0.228320  -0.160676
     4  C   -0.372020   0.487759
     5  C    0.134795  -0.556351
     6  C   -0.438271   0.773400
     7  O   -0.151327   0.005190
     8  C    0.928852  -1.477841
     9  N   -0.757807   0.492756
    10  N    0.614623  -0.150339
    11  N   -0.061526  -0.066979
    12  H    0.094241   0.032137
    13  H    0.121216  -0.002500
    14  H    0.041140   0.078002
    15  H    0.164291  -0.011493
    16  H   -0.137211   0.237248
    17  H   -0.934701   1.111261
    18  H   -0.005890   0.196959
    19  H   -0.637806   0.825149
    20  H    0.025103   0.142079
 Sum of Mulliken charges =  -1.00000   1.00000

 Dipole moment (field-independent basis, Debye):
    X=             -3.3962    Y=             -3.1025    Z=             -0.4949  Tot=              4.6265
 Quadrupole moment (field-independent basis, Debye-Ang):
   XX=           -105.6205   YY=           -108.0375   ZZ=            -80.3243
   XY=             -0.4651   XZ=             -2.4659   YZ=             -5.0311

 Summary of Natural Population Analysis:

                                       Natural Population
                Natural  -----------------------------------------------
    Atom  No    Charge         Core      Valence    Rydberg      Total
 -----------------------------------------------------------------------
      C    1   -0.29256      0.99966     2.28848    0.00442     3.29256
      C    2   -0.11597      0.99950     2.10796    0.00851     3.11597
      C    3    0.14169      0.99938     1.84310    0.01583     2.85831
      C    4   -0.10692      0.99947     2.09879    0.00865     3.10692
      C    5   -0.06801      0.99953     2.05787    0.01061     3.06801
      C    6    0.04677      0.99954     1.93848    0.01522     2.95323
      O    7   -0.28783      0.99987     3.27954    0.00842     4.28783
      C    8   -0.09344      0.99955     2.08092    0.01297     3.09344
      N    9   -0.20551      0.99971     2.69194    0.01386     3.70551
      N   10    0.13125      0.99970     2.35325    0.01580     3.36875
      N   11   -0.02314      0.99982     2.50942    0.01390     3.52314
      H   12    0.09755      0.00000     0.40150    0.00094     0.40245
      H   13    0.09383      0.00000     0.40480    0.00138     0.40617
      H   14    0.09365      0.00000     0.40465    0.00170     0.40635
      H   15    0.09516      0.00000     0.40374    0.00110     0.40484
      H   16    0.10112      0.00000     0.39802    0.00086     0.39888
      H   17    0.10343      0.00000     0.39461    0.00196     0.39657
      H   18    0.09345      0.00000     0.40485    0.00170     0.40655
      H   19    0.10308      0.00000     0.39328    0.00364     0.39692
      H   20    0.09240      0.00000     0.40610    0.00150     0.40760
 =======================================================================
   * Total *    0.00000     10.99574    28.86131    0.14295    40.00000

 Normal termination of Gaussian 16 at Tue Dec  8 21:29:40 2020.
