 Gaussian 16, Revision A.03,

 -----------------------------------------------------------
 # opt freq B3LYP/6-31G(d) empiricaldispersion=gd3bj scf=xqc
 -----------------------------------------------------------

 -------------------------------
 CID_114401053_JID_6659_neutraal
 -------------------------------
 Symbolic Z-matrix:
 Charge =  0 Multiplicity = 1

 SCF Done:  E(RB3LYP) =  -802.337058097     A.U. after   14 cycles
 SCF Done:  E(RB3LYP) =  -802.340870724     A.U. after   13 cycles
 SCF Done:  E(RB3LYP) =  -802.340467696     A.U. after   13 cycles
 SCF Done:  E(RB3LYP) =  -802.342251219     A.U. after   12 cycles
 SCF Done:  E(RB3LYP) =  -802.342799206     A.U. after   13 cycles
 SCF Done:  E(RB3LYP) =  -802.343095303     A.U. after   13 cycles
 SCF Done:  E(RB3LYP) =  -802.343330626     A.U. after   13 cycles
 SCF Done:  E(RB3LYP) =  -802.343599974     A.U. after   12 cycles
 SCF Done:  E(RB3LYP) =  -802.343634787     A.U. after   13 cycles
 SCF Done:  E(RB3LYP) =  -802.343652696     A.U. after   13 cycles
 SCF Done:  E(RB3LYP) =  -802.343703854     A.U. after   11 cycles
 SCF Done:  E(RB3LYP) =  -802.343704332     A.U. after    8 cycles
 SCF Done:  E(RB3LYP) =  -802.343704516     A.U. after    8 cycles
 SCF Done:  E(RB3LYP) =  -802.343704592     A.U. after    7 cycles
 SCF Done:  E(RB3LYP) =  -802.343704620     A.U. after    7 cycles
 Optimization completed.
    -- Stationary point found.
 Normal termination of Gaussian 16 at Fri Dec 11 00:10:31 2020.

 --------------------------------------------------------------------
 #N Geom=AllCheck Guess=TCheck SCRF=Check GenChk RB3LYP/6-31G(d) Freq
 --------------------------------------------------------------------

 Structure from the checkpoint file:  "JID_6659.chk"
 -------------------------------
 CID_114401053_JID_6659_neutraal
 -------------------------------
 Charge =  0 Multiplicity = 1

 SCF Done:  E(RB3LYP) =  -802.343704620     A.U. after    1 cycles

  Exact polarizability: 149.563   9.910 122.473   2.393  -2.269 111.871
 Approx polarizability: 190.966  24.216 178.850  -0.868  -6.392 166.961

                      1                      2                      3
                      A                      A                      A
 Frequencies --     21.9305                33.7970                40.9373
 Red. masses --      4.1959                 5.6669                 4.6420
 Frc consts  --      0.0012                 0.0038                 0.0046
 IR Inten    --      0.8798                 0.8367                 1.1725

                      4                      5                      6
                      A                      A                      A
 Frequencies --     44.8898                58.8368               111.4660
 Red. masses --      3.4694                 3.1653                 3.5708
 Frc consts  --      0.0041                 0.0065                 0.0261
 IR Inten    --      0.1623                 1.2303                 0.1709

                      7                      8                      9
                      A                      A                      A
 Frequencies --    126.1693               143.2673               145.2649
 Red. masses --      1.8751                 1.7273                 1.9592
 Frc consts  --      0.0176                 0.0209                 0.0244
 IR Inten    --      1.5728                 0.4474                 1.1805

                     10                     11                     12
                      A                      A                      A
 Frequencies --    181.6650               205.5636               251.0034
 Red. masses --      4.2569                 5.3412                 2.8075
 Frc consts  --      0.0828                 0.1330                 0.1042
 IR Inten    --      1.2900                 4.6346                 4.1577

                     13                     14                     15
                      A                      A                      A
 Frequencies --    259.9364               283.1921               323.5893
 Red. masses --      1.2675                 2.9305                 6.2568
 Frc consts  --      0.0505                 0.1385                 0.3860
 IR Inten    --      0.2917                 3.3536                 5.9190

                     16                     17                     18
                      A                      A                      A
 Frequencies --    323.7897               346.3261               396.0705
 Red. masses --      2.7349                 5.1188                 4.0215
 Frc consts  --      0.1689                 0.3617                 0.3717
 IR Inten    --      0.9471                30.9925                 2.1138

                     19                     20                     21
                      A                      A                      A
 Frequencies --    403.2758               433.5073               466.2398
 Red. masses --      2.6813                 2.5415                 3.1687
 Frc consts  --      0.2569                 0.2814                 0.4058
 IR Inten    --      3.8910                 1.3055                 0.9269

                     22                     23                     24
                      A                      A                      A
 Frequencies --    480.5146               498.1786               530.4690
 Red. masses --      2.5183                 2.9433                 3.3562
 Frc consts  --      0.3426                 0.4304                 0.5564
 IR Inten    --      3.3054                 1.1854                 1.3612

                     25                     26                     27
                      A                      A                      A
 Frequencies --    596.4849               636.3365               661.5325
 Red. masses --      1.6171                 2.2357                 3.1541
 Frc consts  --      0.3390                 0.5334                 0.8132
 IR Inten    --     51.9488                30.0868                69.5563

                     28                     29                     30
                      A                      A                      A
 Frequencies --    693.4844               779.5136               815.4341
 Red. masses --      4.9778                 2.6680                 8.1920
 Frc consts  --      1.4105                 0.9552                 3.2093
 IR Inten    --     49.9951                 3.8855                 9.1983

                     31                     32                     33
                      A                      A                      A
 Frequencies --    819.1629               842.3590               851.9764
 Red. masses --      1.1609                 2.8104                 4.4966
 Frc consts  --      0.4590                 1.1749                 1.9231
 IR Inten    --      2.7004                15.8673                 2.2320

                     34                     35                     36
                      A                      A                      A
 Frequencies --    892.4980               896.5506               959.3450
 Red. masses --      2.2831                 1.9099                 2.3829
 Frc consts  --      1.0715                 0.9045                 1.2922
 IR Inten    --      3.0682                19.7045                20.0973

                     37                     38                     39
                      A                      A                      A
 Frequencies --    996.3013              1006.7839              1056.7417
 Red. masses --      2.4306                 5.2084                 3.0326
 Frc consts  --      1.4215                 3.1105                 1.9953
 IR Inten    --      4.6262                 9.2632                29.2947

                     40                     41                     42
                      A                      A                      A
 Frequencies --   1067.9105              1090.0218              1096.1891
 Red. masses --      2.5991                 1.8869                 2.4306
 Frc consts  --      1.7464                 1.3209                 1.7208
 IR Inten    --     40.7418                11.0007                17.6326

                     43                     44                     45
                      A                      A                      A
 Frequencies --   1130.3972              1138.5076              1143.9817
 Red. masses --      2.6817                 3.0965                 2.2852
 Frc consts  --      2.0190                 2.3648                 1.7620
 IR Inten    --     82.7276                59.3008                13.1872

                     46                     47                     48
                      A                      A                      A
 Frequencies --   1150.4974              1184.9435              1191.1407
 Red. masses --      2.6607                 1.2763                 2.5333
 Frc consts  --      2.0750                 1.0559                 2.1177
 IR Inten    --     48.9570                 0.9245                12.5250

                     49                     50                     51
                      A                      A                      A
 Frequencies --   1214.8800              1222.6351              1254.8719
 Red. masses --      1.5572                 1.9432                 2.1127
 Frc consts  --      1.3541                 1.7114                 1.9602
 IR Inten    --     23.6200                 2.1130               262.8280

                     52                     53                     54
                      A                      A                      A
 Frequencies --   1277.3491              1289.0320              1305.5875
 Red. masses --      1.2269                 2.1436                 1.2434
 Frc consts  --      1.1794                 2.0986                 1.2487
 IR Inten    --      7.1720               240.8662                39.7169

                     55                     56                     57
                      A                      A                      A
 Frequencies --   1350.3613              1351.2389              1363.5528
 Red. masses --      1.1766                 1.2418                 1.2623
 Frc consts  --      1.2641                 1.3359                 1.3827
 IR Inten    --      5.0200                16.4804                 8.1023

                     58                     59                     60
                      A                      A                      A
 Frequencies --   1388.9821              1399.1560              1407.2111
 Red. masses --      1.3864                 1.4649                 1.4303
 Frc consts  --      1.5759                 1.6896                 1.6688
 IR Inten    --      2.9912                25.2637                14.5746

                     61                     62                     63
                      A                      A                      A
 Frequencies --   1415.7532              1423.0482              1429.6743
 Red. masses --      1.4166                 1.6878                 1.4437
 Frc consts  --      1.6729                 2.0138                 1.7386
 IR Inten    --      2.7271                 9.3668                 1.8473

                     64                     65                     66
                      A                      A                      A
 Frequencies --   1441.8774              1444.8720              1493.1184
 Red. masses --      1.3970                 1.3622                 1.2511
 Frc consts  --      1.7112                 1.6756                 1.6433
 IR Inten    --     15.9157                 4.3043                 7.9177

                     67                     68                     69
                      A                      A                      A
 Frequencies --   1496.6254              1503.2808              1506.7776
 Red. masses --      1.0913                 1.6270                 1.1390
 Frc consts  --      1.4402                 2.1662                 1.5235
 IR Inten    --      4.5362                13.9277                12.9225

                     70                     71                     72
                      A                      A                      A
 Frequencies --   1513.7173              1520.2917              1521.3698
 Red. masses --      1.0477                 1.1931                 1.0468
 Frc consts  --      1.4145                 1.6247                 1.4275
 IR Inten    --      6.9163                15.5155                 9.8766

                     73                     74                     75
                      A                      A                      A
 Frequencies --   1524.6224              1525.9459              1530.7818
 Red. masses --      1.0897                 1.0597                 1.0502
 Frc consts  --      1.4924                 1.4538                 1.4499
 IR Inten    --      1.3758                 3.3323                 4.7261

                     76                     77                     78
                      A                      A                      A
 Frequencies --   1546.4095              1792.7040              1806.3462
 Red. masses --      1.0831                 9.3733                10.8429
 Frc consts  --      1.5261                17.7485                20.8447
 IR Inten    --      1.1663               525.7279               137.6458

                     79                     80                     81
                      A                      A                      A
 Frequencies --   2960.7855              3002.2181              3020.3010
 Red. masses --      1.0724                 1.0701                 1.0705
 Frc consts  --      5.5391                 5.6829                 5.7534
 IR Inten    --     37.0334                55.7889                18.0262

                     82                     83                     84
                      A                      A                      A
 Frequencies --   3037.0688              3044.6827              3057.0070
 Red. masses --      1.0631                 1.0807                 1.0360
 Frc consts  --      5.7772                 5.9023                 5.7045
 IR Inten    --     42.5118                26.7159                17.2721

                     85                     86                     87
                      A                      A                      A
 Frequencies --   3067.9346              3079.2097              3079.9131
 Red. masses --      1.0891                 1.0665                 1.0314
 Frc consts  --      6.0398                 5.9578                 5.7643
 IR Inten    --     18.3943                39.5268                19.9549

                     88                     89                     90
                      A                      A                      A
 Frequencies --   3092.9282              3103.5292              3114.0346
 Red. masses --      1.1009                 1.0960                 1.0958
 Frc consts  --      6.2048                 6.2200                 6.2609
 IR Inten    --     46.9306                57.0352                32.1098

                     91                     92                     93
                      A                      A                      A
 Frequencies --   3123.9590              3134.5373              3155.5772
 Red. masses --      1.0987                 1.1033                 1.1076
 Frc consts  --      6.3176                 6.3871                 6.4982
 IR Inten    --     41.6538                33.5450                17.2759

                     94                     95                     96
                      A                      A                      A
 Frequencies --   3156.2075              3194.8016              3594.0468
 Red. masses --      1.0984                 1.1070                 1.0758
 Frc consts  --      6.4467                 6.6570                 8.1873
 IR Inten    --     10.7388                14.4988                26.0142

 - Thermochemistry -
 -------------------
 Temperature   298.150 Kelvin.  Pressure   1.00000 Atm.
 Atom     1 has atomic number  6 and mass  12.00000

 Molecular mass:   230.12666 amu.
 Principal axes and moments of inertia in atomic units:
                           1         2         3
     Eigenvalues --  2094.849466788.484827327.63817
           X            0.99984  -0.01772   0.00133
           Y            0.01766   0.99930   0.03285
           Z           -0.00192  -0.03282   0.99946
 This molecule is an asymmetric top.
 Rotational symmetry number  1.
 Warning -- assumption of classical behavior for rotation
           may cause significant error
 Rotational temperatures (Kelvin)      0.04135     0.01276     0.01182
 Rotational constants (GHZ):           0.86151     0.26585     0.24629
 Zero-point vibrational energy     766141.1 (Joules/Mol)
                                  183.11212 (Kcal/Mol)
 Warning -- explicit consideration of  25 degrees of freedom as
           vibrations may cause significant error
 Vibrational temperatures:     31.55    48.63    58.90    64.59    84.65
          (Kelvin)            160.37   181.53   206.13   209.00   261.38
                              295.76   361.14   373.99   407.45   465.57
                              465.86   498.29   569.86   580.22   623.72
                              670.82   691.35   716.77   763.23   858.21
                              915.55   951.80   997.77  1121.55  1173.23
                             1178.59  1211.97  1225.80  1284.11  1289.94
                             1380.28  1433.46  1448.54  1520.42  1536.49
                             1568.30  1577.17  1626.39  1638.06  1645.93
                             1655.31  1704.87  1713.79  1747.94  1759.10
                             1805.48  1837.82  1854.63  1878.45  1942.87
                             1944.13  1961.85  1998.44  2013.07  2024.66
                             2036.95  2047.45  2056.98  2074.54  2078.85
                             2148.26  2153.31  2162.89  2167.92  2177.90
                             2187.36  2188.91  2193.59  2195.50  2202.45
                             2224.94  2579.30  2598.93  4259.91  4319.52
                             4345.54  4369.66  4380.62  4398.35  4414.07
                             4430.30  4431.31  4450.03  4465.29  4480.40
                             4494.68  4509.90  4540.17  4541.08  4596.61
                             5171.03

 Zero-point correction=                           0.291808 (Hartree/Particle)
 Thermal correction to Energy=                    0.308712
 Thermal correction to Enthalpy=                  0.309656
 Thermal correction to Gibbs Free Energy=         0.244837
 Sum of electronic and zero-point Energies=           -802.051897
 Sum of electronic and thermal Energies=              -802.034993
 Sum of electronic and thermal Enthalpies=            -802.034049
 Sum of electronic and thermal Free Energies=         -802.098868

                     E (Thermal)             CV                S
                      KCal/Mol        Cal/Mol-Kelvin    Cal/Mol-Kelvin
 Total                  193.719             61.329            136.423
 Electronic               0.000              0.000              0.000
 Translational            0.889              2.981             42.202
 Rotational               0.889              2.981             33.010
 Vibrational            191.942             55.368             61.211
 Vibration     1          0.593              1.985              6.451
 Vibration     2          0.594              1.983              5.593
 Vibration     3          0.594              1.981              5.213
 Vibration     4          0.595              1.979              5.031
 Vibration     5          0.596              1.974              4.496
 Vibration     6          0.607              1.940              3.243
 Vibration     7          0.611              1.927              3.004
 Vibration     8          0.616              1.910              2.760
 Vibration     9          0.617              1.908              2.733
 Vibration    10          0.630              1.865              2.311
 Vibration    11          0.640              1.832              2.083
 Vibration    12          0.663              1.761              1.724
 Vibration    13          0.668              1.746              1.662
 Vibration    14          0.682              1.705              1.514
 Vibration    15          0.708              1.628              1.292
 Vibration    16          0.708              1.628              1.291
 Vibration    17          0.724              1.583              1.183
 Vibration    18          0.763              1.479              0.977
 Vibration    19          0.769              1.463              0.951
 Vibration    20          0.794              1.397              0.847
 Vibration    21          0.824              1.325              0.748
 Vibration    22          0.837              1.293              0.709
 Vibration    23          0.854              1.254              0.663
 Vibration    24          0.885              1.183              0.586
 Vibration    25          0.954              1.039              0.456

 Optimization completed.
    -- Stationary point found.
 Normal termination of Gaussian 16 at Fri Dec 11 00:20:47 2020.

 ----------------------------------------------------------------------
 # B3LYP/6-311++G(d,p) empiricaldispersion=gd3bj scf=xqc pop=npa geom=c
 heck
 ----------------------------------------------------------------------

 ---------------------------------------
 CID_114401053_JID_6659_Energie_neutraal
 ---------------------------------------
 Structure from the checkpoint file:  "JID_6659.chk"
 Charge =  0 Multiplicity = 1

 SCF Done:  E(RB3LYP) =  -802.582102856     A.U. after   15 cycles
 Normal termination of Gaussian 16 at Fri Dec 11 00:25:14 2020.

 ----------------------------------------------------------------------
 # B3LYP/6-311++G(d,p) empiricaldispersion=gd3bj scf=xqc pop=npa geom=c
 heck
 ----------------------------------------------------------------------

 -------------------------------------
 CID_114401053_JID_6659_Energie_kation
 -------------------------------------
 Structure from the checkpoint file:  "JID_6659.chk"
 Charge =  1 Multiplicity = 2

 SCF Done:  E(UB3LYP) =  -802.298846288     A.U. after   21 cycles
 Normal termination of Gaussian 16 at Fri Dec 11 00:33:36 2020.
 Gaussian 16:  ES64L-G16RevA.03 25-Dec-2016

 ----------------------------------------------------------------------
 # B3LYP/6-311++G(d,p) empiricaldispersion=gd3bj scf=xqc pop=npa geom=c
 heck
 ----------------------------------------------------------------------

 ------------------------------------
 CID_114401053_JID_6659_Energie_anion
 ------------------------------------
 Structure from the checkpoint file:  "JID_6659.chk"
 Charge = -1 Multiplicity = 2

                         Standard orientation:
 ---------------------------------------------------------------------
 Center     Atomic      Atomic             Coordinates (Angstroms)
 Number     Number       Type             X           Y           Z
 ---------------------------------------------------------------------
      1          6           0       -2.727901    2.603114    1.101458
      2          6           0       -2.917597    1.091902    1.227107
      3          7           0       -3.074900    0.439554   -0.077733
      4          6           0       -3.638990   -0.910988   -0.003780
      5          6           0       -2.618478   -1.962213    0.438272
      6          8           0       -1.480112   -1.939307   -0.418536
      7          6           0       -0.855160   -0.655525   -0.434736
      8          6           0       -1.858405    0.409293   -0.894601
      9          6           0        0.343727   -0.802533   -1.371182
     10          7           0        1.109488    0.429902   -1.519561
     11          6           0        2.195724    0.869889   -0.828493
     12          8           0        2.744612    1.939326   -1.044796
     13          6           0        2.696208   -0.039766    0.304372
     14          8           0        1.978830   -0.626951    1.088575
     15          8           0        4.029867   -0.038434    0.346370
     16          6           0        4.608273   -0.788902    1.429640
     17          1           0       -1.770346    2.863797    0.638341
     18          1           0       -2.745105    3.068007    2.093248
     19          1           0       -3.529783    3.036077    0.495115
     20          1           0       -2.095884    0.670987    1.833508
     21          1           0       -3.840851    0.898214    1.785846
     22          1           0       -3.998557   -1.180506   -1.006139
     23          1           0       -4.502673   -0.903349    0.671177
     24          1           0       -2.304701   -1.788837    1.480335
     25          1           0       -3.033955   -2.972562    0.369113
     26          1           0       -0.478988   -0.415405    0.569451
     27          1           0       -2.153304    0.181932   -1.929752
     28          1           0       -1.393436    1.398984   -0.891253
     29          1           0        0.986984   -1.599282   -0.996489
     30          1           0       -0.009666   -1.102189   -2.363757
     31          1           0        0.800151    1.097107   -2.216126
     32          1           0        4.299099   -0.366072    2.388663
     33          1           0        4.292924   -1.834253    1.380646
     34          1           0        5.685986   -0.701542    1.297879
 ---------------------------------------------------------------------

 SCF Done:  E(UB3LYP) =  -802.577328608     A.U. after   33 cycles
 SCF Done:  E(UB3LYP) =  -802.577328608     a.u. after    1 cycles

 The electronic state is 2-A.
 Alpha  occ. eigenvalues --  -19.04750 -19.02135 -18.97802 -18.95864 -14.21995
 Alpha  occ. eigenvalues --  -14.20454 -10.15661 -10.13993 -10.12543 -10.11296
 Alpha  occ. eigenvalues --  -10.10921 -10.09986 -10.09449 -10.09177 -10.08891
 Alpha  occ. eigenvalues --  -10.06348  -0.99007  -0.93813  -0.91165  -0.89613
 Alpha  occ. eigenvalues --   -0.82210  -0.80784  -0.68129  -0.66067  -0.63270
 Alpha  occ. eigenvalues --   -0.60613  -0.57625  -0.53909  -0.52556  -0.51164
 Alpha  occ. eigenvalues --   -0.46230  -0.44932  -0.40994  -0.39980  -0.39485
 Alpha  occ. eigenvalues --   -0.37662  -0.37621  -0.36590  -0.36247  -0.35193
 Alpha  occ. eigenvalues --   -0.34759  -0.33558  -0.32781  -0.31094  -0.30617
 Alpha  occ. eigenvalues --   -0.29804  -0.29114  -0.28178  -0.27249  -0.26795
 Alpha  occ. eigenvalues --   -0.25919  -0.25633  -0.24959  -0.24794  -0.23725
 Alpha  occ. eigenvalues --   -0.21578  -0.19615  -0.18459  -0.17521  -0.14347
 Alpha  occ. eigenvalues --   -0.12373  -0.10527   0.04636
 Alpha virt. eigenvalues --    0.06209   0.07421   0.07534   0.07842   0.09270
 Alpha virt. eigenvalues --    0.09553   0.10263   0.10554   0.10979   0.11453
 Alpha virt. eigenvalues --    0.11784   0.12066   0.12852   0.13556   0.14058

  Beta  occ. eigenvalues --  -19.04655 -19.02129 -18.97503 -18.95632 -14.21948
  Beta  occ. eigenvalues --  -14.20454 -10.15388 -10.13822 -10.12546 -10.11284
  Beta  occ. eigenvalues --  -10.10919 -10.09984 -10.09433 -10.09156 -10.08872
  Beta  occ. eigenvalues --  -10.06334  -0.98680  -0.93799  -0.90775  -0.89148
  Beta  occ. eigenvalues --   -0.82195  -0.80610  -0.68090  -0.66042  -0.63054
  Beta  occ. eigenvalues --   -0.60555  -0.57595  -0.53683  -0.52264  -0.51061
  Beta  occ. eigenvalues --   -0.46101  -0.44832  -0.40887  -0.39866  -0.39369
  Beta  occ. eigenvalues --   -0.37621  -0.37223  -0.36537  -0.36138  -0.34915
  Beta  occ. eigenvalues --   -0.34710  -0.33476  -0.32517  -0.30922  -0.30492
  Beta  occ. eigenvalues --   -0.29524  -0.28742  -0.27806  -0.27150  -0.26685
  Beta  occ. eigenvalues --   -0.25667  -0.25215  -0.24851  -0.24664  -0.23575
  Beta  occ. eigenvalues --   -0.21542  -0.18574  -0.18231  -0.17406  -0.13732
  Beta  occ. eigenvalues --   -0.12004  -0.10504
  Beta virt. eigenvalues --    0.06924   0.07406   0.07943   0.08109   0.09357
  Beta virt. eigenvalues --    0.10007   0.10033   0.10431   0.10642   0.10941
  Beta virt. eigenvalues --    0.11587   0.11870   0.12026   0.13127   0.13588

 Mulliken charges and spin densities:
               1          2
     1  C    0.447209  -0.905902
     2  C   -0.316270   0.083673
     3  N    0.070596   0.149384
     4  C    0.281721  -0.494608
     5  C    0.166939  -0.236219
     6  O   -0.082649   0.016430
     7  C   -0.427588   0.343822
     8  C   -0.193539  -0.611264
     9  C   -0.238170  -0.385102
    10  N   -0.080570  -0.006833
    11  C    0.029922   0.120016
    12  O   -0.388457   0.081018
    13  C   -0.163589   0.164640
    14  O   -0.304278   0.090714
    15  O   -0.046050   0.005740
    16  C   -0.213677  -0.013806
    17  H    0.018381   0.126176
    18  H   -0.043676   0.166324
    19  H    0.045948   0.093511
    20  H    0.081549   0.027063
    21  H   -0.426256   0.594629
    22  H    0.033155   0.103036
    23  H   -0.427851   0.589144
    24  H    0.193437  -0.081469
    25  H   -0.439032   0.648016
    26  H    0.283181   0.005033
    27  H   -0.014196   0.187653
    28  H    0.230752  -0.073565
    29  H    0.201397   0.036278
    30  H    0.049488   0.111761
    31  H    0.239219   0.049413
    32  H    0.164086   0.003352
    33  H    0.141494   0.014201
    34  H    0.127373  -0.002257
 Sum of Mulliken charges =  -1.00000   1.00000

 Dipole moment (field-independent basis, Debye):
    X=              3.0943    Y=             -1.3163    Z=             -0.4120  Tot=              3.3878
 Quadrupole moment (field-independent basis, Debye-Ang):
   XX=           -171.1904   YY=           -133.1562   ZZ=           -117.4825
   XY=            -16.2414   XZ=             14.3784   YZ=              1.4571

 Summary of Natural Population Analysis:

                                       Natural Population
                Natural  -----------------------------------------------
    Atom  No    Charge         Core      Valence    Rydberg      Total
 -----------------------------------------------------------------------
      C    1   -0.28841      0.99966     2.28425    0.00450     3.28841
      C    2   -0.08741      0.99961     2.07612    0.01168     3.08741
      N    3   -0.28234      0.99973     2.76731    0.01530     3.78234
      C    4   -0.09733      0.99961     2.08558    0.01214     3.09733
      C    5   -0.01886      0.99958     2.00681    0.01247     3.01886
      O    6   -0.30553      0.99988     3.29634    0.00930     4.30553
      C    7    0.04621      0.99953     1.94124    0.01302     2.95379
      C    8   -0.10077      0.99958     2.08923    0.01196     3.10077
      C    9   -0.09361      0.99959     2.08072    0.01330     3.09361
      N   10   -0.31447      0.99967     2.80564    0.00915     3.81447
      C   11    0.32321      0.99965     1.65402    0.02312     2.67679
      O   12   -0.29759      0.99988     3.29173    0.00599     4.29759
      C   13    0.40096      0.99969     1.57431    0.02505     2.59904
      O   14   -0.29209      0.99987     3.28633    0.00588     4.29209
      O   15   -0.26334      0.99986     3.25495    0.00853     4.26334
      C   16   -0.10701      0.99961     2.09901    0.00838     3.10701
      H   17    0.09738      0.00000     0.40143    0.00119     0.40262
      H   18    0.09846      0.00000     0.40076    0.00078     0.40154
      H   19    0.09858      0.00000     0.39982    0.00160     0.40142
      H   20    0.08189      0.00000     0.41660    0.00150     0.41811
      H   21    0.09492      0.00000     0.40331    0.00177     0.40508
      H   22    0.09383      0.00000     0.40486    0.00131     0.40617
      H   23    0.09953      0.00000     0.39855    0.00192     0.40047
      H   24    0.07859      0.00000     0.42017    0.00124     0.42141
      H   25    0.09095      0.00000     0.40759    0.00146     0.40905
      H   26    0.09517      0.00000     0.40258    0.00224     0.40483
      H   27    0.09336      0.00000     0.40535    0.00129     0.40664
      H   28    0.10209      0.00000     0.39647    0.00143     0.39791
      H   29    0.11040      0.00000     0.38821    0.00138     0.38960
      H   30    0.09381      0.00000     0.40492    0.00127     0.40619
      H   31    0.18758      0.00000     0.30906    0.00337     0.31242
      H   32    0.08856      0.00000     0.41031    0.00113     0.41144
      H   33    0.08825      0.00000     0.41054    0.00121     0.41175
      H   34    0.08502      0.00000     0.41421    0.00076     0.41498
 =======================================================================
   * Total *   -0.00000     15.99501    45.78836    0.21663    62.00000

 Normal termination of Gaussian 16 at Fri Dec 11 00:46:38 2020.
