 Gaussian 16, Revision A.03,

 -----------------------------------------------------------
 # opt freq B3LYP/6-31G(d) empiricaldispersion=gd3bj scf=xqc
 -----------------------------------------------------------

 ------------------------------
 CID_68063042_JID_3766_neutraal
 ------------------------------
 Symbolic Z-matrix:
 Charge =  0 Multiplicity = 1

 SCF Done:  E(RB3LYP) =  -540.965031257     A.U. after   13 cycles
 SCF Done:  E(RB3LYP) =  -540.967307233     A.U. after   12 cycles
 SCF Done:  E(RB3LYP) =  -540.967951532     A.U. after   12 cycles
 SCF Done:  E(RB3LYP) =  -540.968324796     A.U. after   11 cycles
 SCF Done:  E(RB3LYP) =  -540.968481295     A.U. after   11 cycles
 SCF Done:  E(RB3LYP) =  -540.968530833     A.U. after   11 cycles
 SCF Done:  E(RB3LYP) =  -540.968547029     A.U. after   10 cycles
 SCF Done:  E(RB3LYP) =  -540.968552925     A.U. after   10 cycles
 SCF Done:  E(RB3LYP) =  -540.968555359     A.U. after   10 cycles
 SCF Done:  E(RB3LYP) =  -540.968555929     A.U. after   10 cycles
 SCF Done:  E(RB3LYP) =  -540.968556070     A.U. after    8 cycles
 Optimization completed.
    -- Stationary point found.
 Normal termination of Gaussian 16 at Sun Dec 13 15:55:46 2020.

 --------------------------------------------------------------------
 #N Geom=AllCheck Guess=TCheck SCRF=Check GenChk RB3LYP/6-31G(d) Freq
 --------------------------------------------------------------------

 Structure from the checkpoint file:  "JID_3766.chk"
 ------------------------------
 CID_68063042_JID_3766_neutraal
 ------------------------------
 Charge =  0 Multiplicity = 1

 SCF Done:  E(RB3LYP) =  -540.968556070     A.U. after    1 cycles

  Exact polarizability: 182.776 -15.206 134.459   6.666   8.237  68.532
 Approx polarizability: 252.378 -28.590 226.780   7.998  16.183 107.652

                      1                      2                      3
                      A                      A                      A
 Frequencies --     32.9303                64.6220               115.0429
 Red. masses --      2.6651                 3.5867                 3.2230
 Frc consts  --      0.0017                 0.0088                 0.0251
 IR Inten    --      0.0829                 0.4991                 0.7958

                      4                      5                      6
                      A                      A                      A
 Frequencies --    171.5267               187.2111               205.0626
 Red. masses --      3.5776                 2.6836                 2.8551
 Frc consts  --      0.0620                 0.0554                 0.0707
 IR Inten    --      0.5414                 2.4300                 7.1724

                      7                      8                      9
                      A                      A                      A
 Frequencies --    313.7855               338.4438               345.0521
 Red. masses --      2.5345                 1.2126                 2.6127
 Frc consts  --      0.1470                 0.0818                 0.1833
 IR Inten    --      8.2616                47.8357                 8.9036

                     10                     11                     12
                      A                      A                      A
 Frequencies --    359.7223               383.6690               434.9098
 Red. masses --      3.5172                 2.0518                 2.6485
 Frc consts  --      0.2682                 0.1780                 0.2951
 IR Inten    --      8.7323                 0.1880                 4.9673

                     13                     14                     15
                      A                      A                      A
 Frequencies --    466.8757               505.1262               521.7419
 Red. masses --      3.6705                 3.1912                 4.2034
 Frc consts  --      0.4714                 0.4797                 0.6742
 IR Inten    --      2.3871                 0.7980                 5.0460

                     16                     17                     18
                      A                      A                      A
 Frequencies --    524.9371               581.4039               674.0823
 Red. masses --      2.8062                 3.6361                 2.4442
 Frc consts  --      0.4556                 0.7242                 0.6543
 IR Inten    --      2.5692                 3.3749                 0.0925

                     19                     20                     21
                      A                      A                      A
 Frequencies --    691.3675               731.3001               750.7776
 Red. masses --      3.8637                 1.8303                 4.8531
 Frc consts  --      1.0881                 0.5767                 1.6117
 IR Inten    --      1.4702                 0.2608                 0.4166

                     22                     23                     24
                      A                      A                      A
 Frequencies --    769.0384               843.3265               850.7163
 Red. masses --      2.4224                 2.9449                 1.4696
 Frc consts  --      0.8441                 1.2340                 0.6267
 IR Inten    --      0.2653                 7.2411                23.9526

                     25                     26                     27
                      A                      A                      A
 Frequencies --    879.3445               909.2878               917.5991
 Red. masses --      1.7375                 2.1849                 1.9377
 Frc consts  --      0.7916                 1.0644                 0.9613
 IR Inten    --      5.0826                 0.2796                 5.2036

                     28                     29                     30
                      A                      A                      A
 Frequencies --    920.6430               957.8678               967.8051
 Red. masses --      1.4530                 1.3760                 2.4582
 Frc consts  --      0.7256                 0.7438                 1.3566
 IR Inten    --     31.5034                 0.1126                 3.1848

                     31                     32                     33
                      A                      A                      A
 Frequencies --    993.3006              1006.5613              1035.9971
 Red. masses --      2.0849                 2.2188                 1.1195
 Frc consts  --      1.2120                 1.3245                 0.7079
 IR Inten    --     28.6185                 3.9624                13.1201

                     34                     35                     36
                      A                      A                      A
 Frequencies --   1075.0776              1095.7900              1105.9248
 Red. masses --      1.7084                 1.7586                 2.0036
 Frc consts  --      1.1633                 1.2441                 1.4438
 IR Inten    --     12.8191                26.3545                28.2076

                     37                     38                     39
                      A                      A                      A
 Frequencies --   1156.1351              1182.6908              1192.9113
 Red. masses --      2.1430                 1.5527                 1.1977
 Frc consts  --      1.6876                 1.2796                 1.0042
 IR Inten    --      3.8783                 0.8097                 1.2180

                     40                     41                     42
                      A                      A                      A
 Frequencies --   1210.2164              1230.1781              1247.7101
 Red. masses --      1.2046                 1.5200                 1.7391
 Frc consts  --      1.0395                 1.3552                 1.5952
 IR Inten    --     29.0172                14.6171                 8.7633

                     43                     44                     45
                      A                      A                      A
 Frequencies --   1263.7792              1290.6787              1329.0265
 Red. masses --      2.5202                 1.4749                 1.5576
 Frc consts  --      2.3716                 1.4476                 1.6210
 IR Inten    --      8.6795                 2.3751                 7.4476

                     46                     47                     48
                      A                      A                      A
 Frequencies --   1346.6314              1348.8943              1367.7912
 Red. masses --      1.6183                 1.8068                 2.1041
 Frc consts  --      1.7290                 1.9369                 2.3193
 IR Inten    --      0.2456                 1.4319                 5.4901

                     49                     50                     51
                      A                      A                      A
 Frequencies --   1380.8314              1400.6344              1404.0053
 Red. masses --      1.3943                 1.4925                 1.6058
 Frc consts  --      1.5663                 1.7251                 1.8650
 IR Inten    --      2.9092                 2.6382                22.4071

                     52                     53                     54
                      A                      A                      A
 Frequencies --   1446.1236              1466.9846              1482.1466
 Red. masses --      1.2461                 2.7384                 1.4167
 Frc consts  --      1.5353                 3.4722                 1.8336
 IR Inten    --     67.2068                 8.9024                 1.0044

                     55                     56                     57
                      A                      A                      A
 Frequencies --   1496.5437              1511.2923              1520.8233
 Red. masses --      1.1191                 1.0848                 1.1170
 Frc consts  --      1.4767                 1.4598                 1.5221
 IR Inten    --      2.5247                 7.7732                 3.1455

                     58                     59                     60
                      A                      A                      A
 Frequencies --   1552.2239              1621.3189              1671.1315
 Red. masses --      2.4701                 5.8182                 5.8502
 Frc consts  --      3.5065                 9.0111                 9.6259
 IR Inten    --     21.4400                 3.6474                 0.1897

                     61                     62                     63
                      A                      A                      A
 Frequencies --   1716.6620              3025.0799              3029.5162
 Red. masses --      4.2639                 1.0695                 1.0668
 Frc consts  --      7.4033                 5.7665                 5.7687
 IR Inten    --     10.1880                21.8520                10.8038

                     64                     65                     66
                      A                      A                      A
 Frequencies --   3046.3185              3074.8283              3082.5682
 Red. masses --      1.0650                 1.0919                 1.0961
 Frc consts  --      5.8228                 6.0822                 6.1365
 IR Inten    --     25.2203                29.8178                27.6169

                     67                     68                     69
                      A                      A                      A
 Frequencies --   3086.2033              3102.6409              3150.5641
 Red. masses --      1.0880                 1.1001                 1.0853
 Frc consts  --      6.1058                 6.2395                 6.3472
 IR Inten    --     56.8851                44.9108                19.1411

                     70                     71                     72
                      A                      A                      A
 Frequencies --   3171.4480              3172.2948              3185.0611
 Red. masses --      1.0858                 1.0666                 1.0865
 Frc consts  --      6.4347                 6.3241                 6.4942
 IR Inten    --     12.4733                 4.0032                16.6929

                     73                     74                     75
                      A                      A                      A
 Frequencies --   3190.8144              3250.1870              3726.3890
 Red. masses --      1.0942                 1.1157                 1.0658
 Frc consts  --      6.5635                 6.9440                 8.7196
 IR Inten    --     23.3785                17.1551                13.2687

 - Thermochemistry -
 -------------------
 Temperature   298.150 Kelvin.  Pressure   1.00000 Atm.
 Atom     1 has atomic number  6 and mass  12.00000

 Molecular mass:   174.10447 amu.
 Principal axes and moments of inertia in atomic units:
                           1         2         3
     Eigenvalues --  1044.923583661.726344348.17371
           X            0.99989  -0.01246   0.00771
           Y            0.01228   0.99968   0.02220
           Z           -0.00798  -0.02210   0.99972
 This molecule is an asymmetric top.
 Rotational symmetry number  1.
 Warning -- assumption of classical behavior for rotation
           may cause significant error
 Rotational temperatures (Kelvin)      0.08289     0.02365     0.01992
 Rotational constants (GHZ):           1.72715     0.49287     0.41506
 Zero-point vibrational energy     609253.0 (Joules/Mol)
                                  145.61496 (Kcal/Mol)
 Warning -- explicit consideration of  17 degrees of freedom as
           vibrations may cause significant error
 Vibrational temperatures:     47.38    92.98   165.52   246.79   269.36
          (Kelvin)            295.04   451.47   486.95   496.45   517.56
                              552.01   625.74   671.73   726.76   750.67
                              755.27   836.51   969.85   994.72  1052.18
                             1080.20  1106.47  1213.36  1223.99  1265.18
                             1308.26  1320.22  1324.60  1378.16  1392.46
                             1429.14  1448.22  1490.57  1546.80  1576.60
                             1591.18  1663.42  1701.63  1716.33  1741.23
                             1769.95  1795.18  1818.30  1857.00  1912.17
                             1937.50  1940.76  1967.95  1986.71  2015.20
                             2020.05  2080.65  2110.66  2132.48  2153.19
                             2174.41  2188.13  2233.30  2332.72  2404.39
                             2469.89  4352.42  4358.80  4382.97  4423.99
                             4435.13  4440.36  4464.01  4532.96  4563.01
                             4564.22  4582.59  4590.87  4676.29  5361.44

 Zero-point correction=                           0.232052 (Hartree/Particle)
 Thermal correction to Energy=                    0.243520
 Thermal correction to Enthalpy=                  0.244464
 Thermal correction to Gibbs Free Energy=         0.194190
 Sum of electronic and zero-point Energies=           -540.736504
 Sum of electronic and thermal Energies=              -540.725036
 Sum of electronic and thermal Enthalpies=            -540.724092
 Sum of electronic and thermal Free Energies=         -540.774366

                     E (Thermal)             CV                S
                      KCal/Mol        Cal/Mol-Kelvin    Cal/Mol-Kelvin
 Total                  152.811             45.611            105.809
 Electronic               0.000              0.000              0.000
 Translational            0.889              2.981             41.371
 Rotational               0.889              2.981             31.187
 Vibrational            151.033             39.650             33.251
 Vibration     1          0.594              1.983              5.645
 Vibration     2          0.597              1.971              4.311
 Vibration     3          0.608              1.937              3.182
 Vibration     4          0.626              1.878              2.419
 Vibration     5          0.632              1.857              2.255
 Vibration     6          0.640              1.833              2.087
 Vibration     7          0.702              1.647              1.342
 Vibration     8          0.719              1.599              1.219
 Vibration     9          0.723              1.585              1.189
 Vibration    10          0.734              1.555              1.123
 Vibration    11          0.753              1.505              1.025
 Vibration    12          0.796              1.394              0.843
 Vibration    13          0.824              1.324              0.746
 Vibration    14          0.860              1.239              0.645
 Vibration    15          0.877              1.202              0.606
 Vibration    16          0.880              1.195              0.599
 Vibration    17          0.938              1.072              0.483

                           ! Non-Optimized Parameters !
 Normal termination of Gaussian 16 at Sun Dec 13 16:02:08 2020.

 ----------------------------------------------------------------------
 # B3LYP/6-311++G(d,p) empiricaldispersion=gd3bj scf=xqc pop=npa geom=c
 heck
 ----------------------------------------------------------------------

 --------------------------------------
 CID_68063042_JID_3766_Energie_neutraal
 --------------------------------------
 Structure from the checkpoint file:  "JID_3766.chk"
 Charge =  0 Multiplicity = 1

 SCF Done:  E(RB3LYP) =  -541.120376412     A.U. after   16 cycles
 Normal termination of Gaussian 16 at Sun Dec 13 16:04:40 2020.

 ----------------------------------------------------------------------
 # B3LYP/6-311++G(d,p) empiricaldispersion=gd3bj scf=xqc pop=npa geom=c
 heck
 ----------------------------------------------------------------------

 ------------------------------------
 CID_68063042_JID_3766_Energie_kation
 ------------------------------------
 Structure from the checkpoint file:  "JID_3766.chk"
 Charge =  1 Multiplicity = 2

 SCF Done:  E(UB3LYP) =  -540.826726589     A.U. after   24 cycles
 Normal termination of Gaussian 16 at Sun Dec 13 16:09:44 2020.
 Gaussian 16:  ES64L-G16RevA.03 25-Dec-2016

 ----------------------------------------------------------------------
 # B3LYP/6-311++G(d,p) empiricaldispersion=gd3bj scf=xqc pop=npa geom=c
 heck
 ----------------------------------------------------------------------

 -----------------------------------
 CID_68063042_JID_3766_Energie_anion
 -----------------------------------
 Structure from the checkpoint file:  "JID_3766.chk"
 Charge = -1 Multiplicity = 2

                         Standard orientation:
 ---------------------------------------------------------------------
 Center     Atomic      Atomic             Coordinates (Angstroms)
 Number     Number       Type             X           Y           Z
 ---------------------------------------------------------------------
      1          6           0        4.169049   -1.309598   -0.022327
      2          6           0        3.612182   -0.099896    0.111369
      3          6           0        2.184447    0.240081    0.033589
      4          6           0        1.177834   -0.711160   -0.179881
      5          6           0       -0.171988   -0.362788   -0.255526
      6          6           0       -0.550234    0.985169   -0.096935
      7          6           0       -2.006858    1.411114   -0.101681
      8          6           0       -2.956079    0.343842   -0.658010
      9          6           0       -2.611284   -1.034871   -0.081752
     10          6           0       -1.206424   -1.440222   -0.533280
     11          8           0       -2.729240   -1.051137    1.342405
     12          6           0        0.451186    1.939347    0.119704
     13          6           0        1.791380    1.580779    0.181341
     14          1           0        3.587399   -2.207175   -0.213265
     15          1           0        5.243559   -1.441147    0.056150
     16          1           0        4.268300    0.749939    0.299051
     17          1           0        1.445674   -1.758374   -0.294067
     18          1           0       -2.116527    2.347399   -0.661514
     19          1           0       -2.309112    1.646148    0.929090
     20          1           0       -2.875140    0.298952   -1.752206
     21          1           0       -3.991937    0.601278   -0.414118
     22          1           0       -3.335994   -1.777163   -0.431291
     23          1           0       -0.920871   -2.374641   -0.036331
     24          1           0       -1.228942   -1.652824   -1.611653
     25          1           0       -1.948310   -0.599264    1.700898
     26          1           0        0.167719    2.982402    0.242475
     27          1           0        2.548840    2.342772    0.347864
 ---------------------------------------------------------------------

 SCF Done:  E(UB3LYP) =  -541.113667726     A.U. after   33 cycles
 SCF Done:  E(UB3LYP) =  -541.113667726     a.u. after    1 cycles

 The electronic state is 2-A.
 Alpha  occ. eigenvalues --  -19.00868 -10.10763 -10.05314 -10.05304 -10.05082
 Alpha  occ. eigenvalues --  -10.04283 -10.03034 -10.02843 -10.02749 -10.02406
 Alpha  occ. eigenvalues --  -10.02076 -10.01796 -10.00647  -0.91144  -0.72898
 Alpha  occ. eigenvalues --   -0.68428  -0.64292  -0.63413  -0.59610  -0.57507
 Alpha  occ. eigenvalues --   -0.51793  -0.48805  -0.47219  -0.43612  -0.41347
 Alpha  occ. eigenvalues --   -0.38186  -0.35360  -0.35266  -0.33544  -0.32423
 Alpha  occ. eigenvalues --   -0.31702  -0.30733  -0.28632  -0.27179  -0.26639
 Alpha  occ. eigenvalues --   -0.26270  -0.25236  -0.23485  -0.22853  -0.22022
 Alpha  occ. eigenvalues --   -0.21352  -0.19667  -0.18343  -0.16210  -0.15400
 Alpha  occ. eigenvalues --   -0.11290  -0.08480   0.05561
 Alpha virt. eigenvalues --    0.07308   0.08777   0.09253   0.10120   0.10208
 Alpha virt. eigenvalues --    0.10530   0.11479   0.11858   0.12444   0.12553
 Alpha virt. eigenvalues --    0.12952   0.14591   0.14713   0.15583   0.16178

  Beta  occ. eigenvalues --  -19.00862 -10.10760 -10.05303 -10.05285 -10.05101
  Beta  occ. eigenvalues --  -10.04363 -10.03037 -10.02711 -10.02553 -10.02236
  Beta  occ. eigenvalues --  -10.01979 -10.01608 -10.00363  -0.91136  -0.72654
  Beta  occ. eigenvalues --   -0.68242  -0.64086  -0.63121  -0.59390  -0.57159
  Beta  occ. eigenvalues --   -0.51630  -0.48593  -0.46891  -0.43398  -0.41078
  Beta  occ. eigenvalues --   -0.38100  -0.35273  -0.35117  -0.33434  -0.32335
  Beta  occ. eigenvalues --   -0.31578  -0.30562  -0.28488  -0.27082  -0.26512
  Beta  occ. eigenvalues --   -0.26188  -0.25044  -0.23343  -0.22741  -0.21398
  Beta  occ. eigenvalues --   -0.21176  -0.19538  -0.18248  -0.16118  -0.14175
  Beta  occ. eigenvalues --   -0.10664  -0.06946
  Beta virt. eigenvalues --    0.07597   0.08873   0.09273   0.09835   0.10261
  Beta virt. eigenvalues --    0.10530   0.10711   0.11474   0.11921   0.12366
  Beta virt. eigenvalues --    0.12766   0.12879   0.14632   0.14701   0.15510

 Mulliken charges and spin densities:
               1          2
     1  C   -0.709151   0.382161
     2  C    0.248585  -0.114343
     3  C    1.417301  -0.010441
     4  C   -0.654715   0.119557
     5  C    0.033768  -0.284439
     6  C    0.173183   0.219377
     7  C   -0.354726  -0.148393
     8  C    0.146449  -0.712665
     9  C   -0.194436   0.377698
    10  C   -0.611451  -0.400003
    11  O   -0.213187  -0.002834
    12  C   -0.404079   0.268838
    13  C   -0.543678   0.173568
    14  H    0.083638  -0.000949
    15  H    0.108727  -0.013698
    16  H    0.072969  -0.004503
    17  H    0.006760  -0.032479
    18  H    0.196883  -0.081441
    19  H   -0.071160   0.277378
    20  H    0.042516   0.074932
    21  H   -0.192107   0.374784
    22  H   -0.148478   0.345220
    23  H    0.081900   0.123355
    24  H    0.120752   0.014193
    25  H    0.229885  -0.009070
    26  H    0.063059   0.054699
    27  H    0.070796   0.009496
 Sum of Mulliken charges =  -1.00000   1.00000

 Dipole moment (field-independent basis, Debye):
    X=             -1.9360    Y=              1.3517    Z=             -1.3825  Tot=              2.7361
 Quadrupole moment (field-independent basis, Debye-Ang):
   XX=           -140.1591   YY=            -96.3726   ZZ=            -95.6796
   XY=              4.3060   XZ=              4.6144   YZ=              1.7445

 Summary of Natural Population Analysis:

                                       Natural Population
                Natural  -----------------------------------------------
    Atom  No    Charge         Core      Valence    Rydberg      Total
 -----------------------------------------------------------------------
      C    1   -0.14555      0.99959     2.13747    0.00849     3.14555
      C    2   -0.08435      0.99956     2.07605    0.00875     3.08435
      C    3   -0.01398      0.99950     2.00357    0.01091     3.01398
      C    4   -0.05190      0.99949     2.04393    0.00848     3.05190
      C    5   -0.04407      0.99948     2.03425    0.01035     3.04407
      C    6    0.01544      0.99947     1.97561    0.00949     2.98456
      C    7   -0.20288      0.99961     2.19326    0.01001     3.20288
      C    8   -0.19736      0.99962     2.18849    0.00925     3.19736
      C    9    0.06439      0.99956     1.91951    0.01653     2.93561
      C   10   -0.20488      0.99958     2.19735    0.00794     3.20488
      O   11   -0.37661      0.99990     3.37041    0.00630     4.37661
      C   12   -0.09723      0.99953     2.08910    0.00861     3.09723
      C   13   -0.09165      0.99954     2.08452    0.00760     3.09165
      H   14    0.08234      0.00000     0.41677    0.00090     0.41766
      H   15    0.08162      0.00000     0.41753    0.00085     0.41838
      H   16    0.08171      0.00000     0.41668    0.00161     0.41829
      H   17    0.09095      0.00000     0.40756    0.00150     0.40905
      H   18    0.09975      0.00000     0.39925    0.00100     0.40025
      H   19    0.10189      0.00000     0.39640    0.00171     0.39811
      H   20    0.09525      0.00000     0.40366    0.00109     0.40475
      H   21    0.09896      0.00000     0.39978    0.00125     0.40104
      H   22    0.08484      0.00000     0.41415    0.00101     0.41516
      H   23    0.10324      0.00000     0.39537    0.00139     0.39676
      H   24    0.10049      0.00000     0.39829    0.00122     0.39951
      H   25    0.23101      0.00000     0.26620    0.00279     0.26899
      H   26    0.08900      0.00000     0.40963    0.00137     0.41100
      H   27    0.08959      0.00000     0.40917    0.00124     0.41041
 =======================================================================
   * Total *    0.00000     12.99440    33.86395    0.14165    47.00000

 Normal termination of Gaussian 16 at Sun Dec 13 16:16:47 2020.
