 Gaussian 16, Revision A.03,

 -----------------------------------------------------------
 # opt freq B3LYP/6-31G(d) empiricaldispersion=gd3bj scf=xqc
 -----------------------------------------------------------

 ------------------------------
 CID_59870150_JID_2056_neutraal
 ------------------------------
 Symbolic Z-matrix:
 Charge =  0 Multiplicity = 1

 SCF Done:  E(RB3LYP) =  -518.808082399     A.U. after   15 cycles
 SCF Done:  E(RB3LYP) =  -518.821653786     A.U. after   14 cycles
 SCF Done:  E(RB3LYP) =  -518.822679291     A.U. after   13 cycles
 SCF Done:  E(RB3LYP) =  -518.823107067     A.U. after   12 cycles
 SCF Done:  E(RB3LYP) =  -518.823275836     A.U. after   12 cycles
 SCF Done:  E(RB3LYP) =  -518.823566895     A.U. after   12 cycles
 SCF Done:  E(RB3LYP) =  -518.823747053     A.U. after   12 cycles
 SCF Done:  E(RB3LYP) =  -518.823831954     A.U. after   12 cycles
 SCF Done:  E(RB3LYP) =  -518.823892463     A.U. after   11 cycles
 SCF Done:  E(RB3LYP) =  -518.823980082     A.U. after   11 cycles
 SCF Done:  E(RB3LYP) =  -518.823997758     A.U. after   11 cycles
 SCF Done:  E(RB3LYP) =  -518.824027758     A.U. after   11 cycles
 SCF Done:  E(RB3LYP) =  -518.824052837     A.U. after   11 cycles
 SCF Done:  E(RB3LYP) =  -518.824058856     A.U. after   10 cycles
 SCF Done:  E(RB3LYP) =  -518.824059282     A.U. after    8 cycles
 Optimization completed.
    -- Stationary point found.
 Normal termination of Gaussian 16 at Wed Dec  9 16:47:28 2020.

 --------------------------------------------------------------------
 #N Geom=AllCheck Guess=TCheck SCRF=Check GenChk RB3LYP/6-31G(d) Freq
 --------------------------------------------------------------------

 Structure from the checkpoint file:  "JID_2056.chk"
 ------------------------------
 CID_59870150_JID_2056_neutraal
 ------------------------------
 Charge =  0 Multiplicity = 1

 SCF Done:  E(RB3LYP) =  -518.824059282     A.U. after    1 cycles

  Exact polarizability: 192.967  -2.750 137.528  -4.306   3.575  60.055
 Approx polarizability: 309.093  -5.207 223.070  -8.452   7.449  91.181

                      1                      2                      3
                      A                      A                      A
 Frequencies --     39.5560                75.9511               106.0633
 Red. masses --      3.0788                 2.8338                 1.4910
 Frc consts  --      0.0028                 0.0096                 0.0099
 IR Inten    --      0.3311                 1.1615                 0.0654

                      4                      5                      6
                      A                      A                      A
 Frequencies --    106.9176               128.6179               157.5622
 Red. masses --      1.9373                 2.0120                 2.9901
 Frc consts  --      0.0130                 0.0196                 0.0437
 IR Inten    --      0.4844                 2.8089                 0.0209

                      7                      8                      9
                      A                      A                      A
 Frequencies --    178.9611               191.0796               207.0855
 Red. masses --      1.7025                 2.3051                 3.9275
 Frc consts  --      0.0321                 0.0496                 0.0992
 IR Inten    --      1.0017                 1.8046                 1.7060

                     10                     11                     12
                      A                      A                      A
 Frequencies --    230.9599               254.7025               280.7735
 Red. masses --      1.6292                 2.7165                 1.5381
 Frc consts  --      0.0512                 0.1038                 0.0714
 IR Inten    --      1.6121                 2.5766                 3.9729

                     13                     14                     15
                      A                      A                      A
 Frequencies --    314.3564               332.3299               401.9141
 Red. masses --      3.3808                 3.5726                 2.9758
 Frc consts  --      0.1968                 0.2325                 0.2832
 IR Inten    --      1.6072                 1.2135                 2.3375

                     16                     17                     18
                      A                      A                      A
 Frequencies --    421.1925               454.6936               583.0287
 Red. masses --      3.1249                 3.2852                 4.6402
 Frc consts  --      0.3266                 0.4002                 0.9293
 IR Inten    --      4.5086                 1.7357                 1.0953

                     19                     20                     21
                      A                      A                      A
 Frequencies --    614.4482               622.4334               679.8041
 Red. masses --      3.3818                 7.0943                 2.0298
 Frc consts  --      0.7523                 1.6194                 0.5527
 IR Inten    --      2.7421                 3.5499                18.4483

                     22                     23                     24
                      A                      A                      A
 Frequencies --    779.8275               793.8117               857.0772
 Red. masses --      5.6702                 4.4884                 1.3714
 Frc consts  --      2.0316                 1.6664                 0.5936
 IR Inten    --     10.0712                 4.0139                14.2474

                     25                     26                     27
                      A                      A                      A
 Frequencies --    902.4914               903.3482               907.9708
 Red. masses --      1.4042                 3.1569                 2.5007
 Frc consts  --      0.6739                 1.5178                 1.2146
 IR Inten    --     32.4140                 7.6059                 8.8405

                     28                     29                     30
                      A                      A                      A
 Frequencies --    994.5155              1036.5177              1061.5026
 Red. masses --      2.7500                 1.1466                 1.7904
 Frc consts  --      1.6025                 0.7258                 1.1886
 IR Inten    --     45.7170                17.0629                 0.7631

                     31                     32                     33
                      A                      A                      A
 Frequencies --   1065.6279              1094.4896              1100.0776
 Red. masses --      1.8333                 1.6037                 2.7976
 Frc consts  --      1.2265                 1.1319                 1.9947
 IR Inten    --     21.2919                 2.3082                17.0681

                     34                     35                     36
                      A                      A                      A
 Frequencies --   1137.2460              1143.1823              1157.8555
 Red. masses --      1.2170                 2.2821                 2.5080
 Frc consts  --      0.9273                 1.7572                 1.9810
 IR Inten    --      0.7956                11.7422                 0.4879

                     37                     38                     39
                      A                      A                      A
 Frequencies --   1178.4589              1241.7770              1288.1782
 Red. masses --      1.3696                 2.4231                 4.1656
 Frc consts  --      1.1207                 2.2014                 4.0726
 IR Inten    --      2.5398               119.7686                12.7332

                     40                     41                     42
                      A                      A                      A
 Frequencies --   1344.2214              1381.5324              1437.8936
 Red. masses --      1.3127                 1.4036                 1.5412
 Frc consts  --      1.3975                 1.5784                 1.8775
 IR Inten    --      3.2478                 3.3015                29.5304

                     43                     44                     45
                      A                      A                      A
 Frequencies --   1439.6728              1472.9959              1486.5172
 Red. masses --      1.5348                 1.1461                 1.2791
 Frc consts  --      1.8742                 1.4651                 1.6653
 IR Inten    --     11.3470                 2.1183                84.7251

                     46                     47                     48
                      A                      A                      A
 Frequencies --   1503.6758              1510.8646              1520.7513
 Red. masses --      1.1042                 1.4276                 1.0737
 Frc consts  --      1.4710                 1.9200                 1.4630
 IR Inten    --     10.1654                22.7432                 4.4787

                     49                     50                     51
                      A                      A                      A
 Frequencies --   1522.5173              1528.6558              1538.6988
 Red. masses --      1.0585                 1.0467                 1.0564
 Frc consts  --      1.4456                 1.4410                 1.4736
 IR Inten    --     16.7763                11.5648                 1.7851

                     52                     53                     54
                      A                      A                      A
 Frequencies --   1545.9564              1659.2165              1688.1391
 Red. masses --      1.2680                 4.7940                 4.0739
 Frc consts  --      1.7855                 7.7759                 6.8403
 IR Inten    --     13.5234               589.7542                30.1673

                     55                     56                     57
                      A                      A                      A
 Frequencies --   1774.0491              1861.0074              3025.1113
 Red. masses --      8.9742                12.7669                 1.0514
 Frc consts  --     16.6410                26.0514                 5.6687
 IR Inten    --     40.5000               265.3824                43.0285

                     58                     59                     60
                      A                      A                      A
 Frequencies --   3026.5583              3032.7232              3078.6553
 Red. masses --      1.0421                 1.0429                 1.1018
 Frc consts  --      5.6241                 5.6514                 6.1528
 IR Inten    --     27.2615               101.5451                47.0872

                     61                     62                     63
                      A                      A                      A
 Frequencies --   3083.7063              3091.1134              3138.7030
 Red. masses --      1.1013                 1.0868                 1.0949
 Frc consts  --      6.1700                 6.1183                 6.3550
 IR Inten    --     10.8918                26.7283                 8.1195

                     64                     65                     66
                      A                      A                      A
 Frequencies --   3152.4129              3156.2312              3177.3811
 Red. masses --      1.0853                 1.0895                 1.0615
 Frc consts  --      6.3547                 6.3945                 6.3140
 IR Inten    --     12.3923                18.5617                 8.3242

                     67                     68                     69
                      A                      A                      A
 Frequencies --   3198.7201              3199.3188              3256.0446
 Red. masses --      1.0968                 1.0956                 1.1157
 Frc consts  --      6.6123                 6.6069                 6.9692
 IR Inten    --      1.0968                 5.3351                16.5437

 - Thermochemistry -
 -------------------
 Temperature   298.150 Kelvin.  Pressure   1.00000 Atm.
 Atom     1 has atomic number  6 and mass  12.00000

 Molecular mass:   163.09971 amu.
 Principal axes and moments of inertia in atomic units:
                           1         2         3
     Eigenvalues --  1621.265562165.710113680.97494
           X            1.00000  -0.00229   0.00108
           Y            0.00229   1.00000   0.00160
           Z           -0.00108  -0.00159   1.00000
 This molecule is an asymmetric top.
 Rotational symmetry number  1.
 Warning -- assumption of classical behavior for rotation
           may cause significant error
 Rotational temperatures (Kelvin)      0.05342     0.03999     0.02353
 Rotational constants (GHZ):           1.11317     0.83333     0.49029
 Zero-point vibrational energy     549441.4 (Joules/Mol)
                                  131.31965 (Kcal/Mol)
 Warning -- explicit consideration of  19 degrees of freedom as
           vibrations may cause significant error
 Vibrational temperatures:     56.91   109.28   152.60   153.83   185.05
          (Kelvin)            226.70   257.49   274.92   297.95   332.30
                              366.46   403.97   452.29   478.15   578.26
                              606.00   654.20   838.85   884.05   895.54
                              978.09  1122.00  1142.12  1233.14  1298.48
                             1299.72  1306.37  1430.89  1491.32  1527.27
                             1533.20  1574.73  1582.77  1636.24  1644.78
                             1665.90  1695.54  1786.64  1853.40  1934.03
                             1987.72  2068.81  2071.37  2119.31  2138.77
                             2163.45  2173.80  2188.02  2190.56  2199.39
                             2213.84  2224.29  2387.24  2428.86  2552.46
                             2677.57  4352.46  4354.54  4363.41  4429.50
                             4436.77  4447.42  4515.89  4535.62  4541.11
                             4571.54  4602.24  4603.11  4684.72

 Zero-point correction=                           0.209271 (Hartree/Particle)
 Thermal correction to Energy=                    0.222638
 Thermal correction to Enthalpy=                  0.223582
 Thermal correction to Gibbs Free Energy=         0.169371
 Sum of electronic and zero-point Energies=           -518.614788
 Sum of electronic and thermal Energies=              -518.601421
 Sum of electronic and thermal Enthalpies=            -518.600477
 Sum of electronic and thermal Free Energies=         -518.654688

                     E (Thermal)             CV                S
                      KCal/Mol        Cal/Mol-Kelvin    Cal/Mol-Kelvin
 Total                  139.707             47.623            114.096
 Electronic               0.000              0.000              0.000
 Translational            0.889              2.981             41.176
 Rotational               0.889              2.981             30.936
 Vibrational            137.930             41.661             41.984
 Vibration     1          0.594              1.981              5.281
 Vibration     2          0.599              1.965              3.993
 Vibration     3          0.605              1.944              3.340
 Vibration     4          0.606              1.944              3.324
 Vibration     5          0.611              1.925              2.967
 Vibration     6          0.621              1.894              2.579
 Vibration     7          0.629              1.868              2.339
 Vibration     8          0.634              1.852              2.217
 Vibration     9          0.641              1.830              2.069
 Vibration    10          0.653              1.794              1.871
 Vibration    11          0.665              1.755              1.698
 Vibration    12          0.680              1.709              1.529
 Vibration    13          0.702              1.646              1.339
 Vibration    14          0.714              1.611              1.249
 Vibration    15          0.768              1.466              0.956
 Vibration    16          0.784              1.424              0.888
 Vibration    17          0.813              1.351              0.782
 Vibration    18          0.940              1.068              0.480
 Vibration    19          0.974              1.001              0.425

                           ! Non-Optimized Parameters !
 Normal termination of Gaussian 16 at Wed Dec  9 16:52:39 2020.

 ----------------------------------------------------------------------
 # B3LYP/6-311++G(d,p) empiricaldispersion=gd3bj scf=xqc pop=npa geom=c
 heck
 ----------------------------------------------------------------------

 --------------------------------------
 CID_59870150_JID_2056_Energie_neutraal
 --------------------------------------
 Structure from the checkpoint file:  "JID_2056.chk"
 Charge =  0 Multiplicity = 1

 SCF Done:  E(RB3LYP) =  -518.968101727     A.U. after   15 cycles
 Normal termination of Gaussian 16 at Wed Dec  9 16:54:33 2020.

 ----------------------------------------------------------------------
 # B3LYP/6-311++G(d,p) empiricaldispersion=gd3bj scf=xqc pop=npa geom=c
 heck
 ----------------------------------------------------------------------

 ------------------------------------
 CID_59870150_JID_2056_Energie_kation
 ------------------------------------
 Structure from the checkpoint file:  "JID_2056.chk"
 Charge =  1 Multiplicity = 2

 SCF Done:  E(UB3LYP) =  -518.699905037     A.U. after   22 cycles
 Normal termination of Gaussian 16 at Wed Dec  9 16:59:35 2020.
 Gaussian 16:  ES64L-G16RevA.03 25-Dec-2016

 ----------------------------------------------------------------------
 # B3LYP/6-311++G(d,p) empiricaldispersion=gd3bj scf=xqc pop=npa geom=c
 heck
 ----------------------------------------------------------------------

 -----------------------------------
 CID_59870150_JID_2056_Energie_anion
 -----------------------------------
 Structure from the checkpoint file:  "JID_2056.chk"
 Charge = -1 Multiplicity = 2

                         Standard orientation:
 ---------------------------------------------------------------------
 Center     Atomic      Atomic             Coordinates (Angstroms)
 Number     Number       Type             X           Y           Z
 ---------------------------------------------------------------------
      1          6           0        3.474405    0.037676   -0.106715
      2          6           0        2.359064   -0.962074    0.008687
      3          6           0        1.032456   -0.789610    0.044218
      4          6           0       -0.055329    0.238680   -0.001001
      5          6           0       -1.083103   -0.721191   -0.048267
      6          6           0       -0.088913   -1.815442   -0.004424
      7          8           0       -0.120989   -3.029153   -0.020703
      8          6           0       -2.523446   -0.818751   -0.066058
      9          6           0       -3.443119    0.080228    0.327034
     10          7           0       -0.022446    1.583241   -0.042509
     11          6           0       -1.149788    2.362527   -0.527719
     12          6           0        1.108339    2.353127    0.447314
     13          1           0        3.164374    0.965652   -0.592787
     14          1           0        4.294280   -0.386398   -0.697130
     15          1           0        3.899250    0.295514    0.874787
     16          1           0        2.663424   -2.008267    0.046865
     17          1           0       -2.873222   -1.798578   -0.392123
     18          1           0       -4.501601   -0.157163    0.284541
     19          1           0       -3.182319    1.053607    0.729640
     20          1           0       -1.648760    2.903226    0.288582
     21          1           0       -0.790473    3.099073   -1.256876
     22          1           0       -1.868946    1.709865   -1.018413
     23          1           0        1.779943    1.710867    1.013168
     24          1           0        1.662685    2.830209   -0.372363
     25          1           0        0.743004    3.141907    1.116878
 ---------------------------------------------------------------------

 SCF Done:  E(UB3LYP) =  -518.970817370     A.U. after   33 cycles
 SCF Done:  E(UB3LYP) =  -518.970817370     a.u. after    1 cycles

 The electronic state is 2-A.
 Alpha  occ. eigenvalues --  -18.94585 -14.21692 -10.09375 -10.08927 -10.08504
 Alpha  occ. eigenvalues --  -10.07156 -10.04729 -10.02643 -10.01505 -10.01322
 Alpha  occ. eigenvalues --  -10.00998  -9.99813  -0.87587  -0.83506  -0.70980
 Alpha  occ. eigenvalues --   -0.64099  -0.61465  -0.60990  -0.57350  -0.53702
 Alpha  occ. eigenvalues --   -0.46919  -0.43686  -0.39519  -0.36318  -0.35487
 Alpha  occ. eigenvalues --   -0.35327  -0.33758  -0.31737  -0.30178  -0.29537
 Alpha  occ. eigenvalues --   -0.29310  -0.28474  -0.28128  -0.26122  -0.26037
 Alpha  occ. eigenvalues --   -0.24568  -0.24041  -0.21242  -0.19693  -0.18798
 Alpha  occ. eigenvalues --   -0.14459  -0.11941  -0.08838  -0.05751   0.05094
 Alpha virt. eigenvalues --    0.07092   0.08780   0.09459   0.10063   0.11091
 Alpha virt. eigenvalues --    0.11354   0.12056   0.12955   0.13230   0.13563
 Alpha virt. eigenvalues --    0.14028   0.14480   0.15462   0.15608   0.16486

  Beta  occ. eigenvalues --  -18.94623 -14.21592 -10.09368 -10.08948 -10.08497
  Beta  occ. eigenvalues --  -10.06826 -10.04753 -10.02648 -10.01441 -10.01024
  Beta  occ. eigenvalues --  -10.00832  -9.99469  -0.87644  -0.83216  -0.70602
  Beta  occ. eigenvalues --   -0.63733  -0.61218  -0.60655  -0.57223  -0.53469
  Beta  occ. eigenvalues --   -0.46113  -0.43497  -0.39190  -0.36096  -0.35397
  Beta  occ. eigenvalues --   -0.35123  -0.33546  -0.31591  -0.30075  -0.29475
  Beta  occ. eigenvalues --   -0.29078  -0.28326  -0.27972  -0.25999  -0.25619
  Beta  occ. eigenvalues --   -0.24488  -0.23899  -0.21034  -0.19322  -0.18250
  Beta  occ. eigenvalues --   -0.13030  -0.11177  -0.08760  -0.04009
  Beta virt. eigenvalues --    0.07094   0.08699   0.09137   0.09967   0.10954
  Beta virt. eigenvalues --    0.11099   0.11450   0.11970   0.12980   0.13431
  Beta virt. eigenvalues --    0.13947   0.14009   0.14455   0.15474   0.15635

 Mulliken charges and spin densities:
               1          2
     1  C   -0.653721  -0.041039
     2  C   -0.486599   0.240085
     3  C    0.883335   0.020159
     4  C   -0.359148   0.145680
     5  C    0.656402   0.068800
     6  C   -0.489268  -0.006139
     7  O   -0.397922  -0.013347
     8  C   -0.491518   0.009267
     9  C   -0.590946   0.387508
    10  N    0.080775   0.048758
    11  C   -0.198244  -0.132849
    12  C   -0.196142  -0.123227
    13  H    0.115193   0.013992
    14  H    0.106644   0.008205
    15  H    0.096555   0.038649
    16  H    0.161504  -0.016543
    17  H    0.152884  -0.007609
    18  H    0.083965  -0.005041
    19  H    0.077557  -0.015171
    20  H    0.134934   0.001700
    21  H   -0.023495   0.146124
    22  H    0.107549   0.051573
    23  H    0.091028   0.060487
    24  H    0.107128   0.022162
    25  H    0.031549   0.097818
 Sum of Mulliken charges =  -1.00000   1.00000

 Dipole moment (field-independent basis, Debye):
    X=              3.1691    Y=              5.6492    Z=             -0.1802  Tot=              6.4799
 Quadrupole moment (field-independent basis, Debye-Ang):
   XX=           -106.4070   YY=           -103.3315   ZZ=            -85.9167
   XY=              1.0305   XZ=              0.5284   YZ=              1.7081

 Summary of Natural Population Analysis:

                                       Natural Population
                Natural  -----------------------------------------------
    Atom  No    Charge         Core      Valence    Rydberg      Total
 -----------------------------------------------------------------------
      C    1   -0.30172      0.99966     2.29761    0.00445     3.30172
      C    2   -0.06349      0.99949     2.05438    0.00962     3.06349
      C    3   -0.07159      0.99945     2.06167    0.01048     3.07159
      C    4    0.18931      0.99944     1.79824    0.01301     2.81069
      C    5   -0.06901      0.99945     2.05698    0.01258     3.06901
      C    6    0.26707      0.99956     1.71117    0.02220     2.73293
      O    7   -0.33023      0.99987     3.32248    0.00787     4.33023
      C    8   -0.10557      0.99956     2.09744    0.00857     3.10557
      C    9   -0.13996      0.99960     2.13114    0.00922     3.13996
      N   10   -0.22616      0.99961     2.71804    0.00851     3.72616
      C   11   -0.17435      0.99965     2.16694    0.00775     3.17435
      C   12   -0.17006      0.99966     2.16326    0.00715     3.17006
      H   13    0.09633      0.00000     0.40272    0.00095     0.40367
      H   14    0.09555      0.00000     0.40349    0.00096     0.40445
      H   15    0.09529      0.00000     0.40330    0.00141     0.40471
      H   16    0.09010      0.00000     0.40769    0.00221     0.40990
      H   17    0.09359      0.00000     0.40448    0.00193     0.40641
      H   18    0.08036      0.00000     0.41871    0.00093     0.41964
      H   19    0.07806      0.00000     0.42095    0.00099     0.42194
      H   20    0.08598      0.00000     0.41306    0.00096     0.41402
      H   21    0.08693      0.00000     0.41151    0.00155     0.41307
      H   22    0.11533      0.00000     0.38320    0.00148     0.38467
      H   23    0.10620      0.00000     0.39266    0.00114     0.39380
      H   24    0.08470      0.00000     0.41424    0.00106     0.41530
      H   25    0.08736      0.00000     0.41111    0.00153     0.41264
 =======================================================================
   * Total *    0.00000     11.99500    31.86647    0.13853    44.00000

 Normal termination of Gaussian 16 at Wed Dec  9 17:07:42 2020.
