 Gaussian 16, Revision A.03,

 ----------------------------------------------------------------------
 # opt=(cartesian,calcfc) freq B3LYP/6-31G(d) empiricaldispersion=gd3bj
  scf=xqc
 ----------------------------------------------------------------------

 ----------------------------
 CID_273422_JID_6302_neutraal
 ----------------------------
 Symbolic Z-matrix:
 Charge =  0 Multiplicity = 1

 SCF Done:  E(RB3LYP) =  -802.531229979     A.U. after   15 cycles
 SCF Done:  E(RB3LYP) =  -802.536068669     A.U. after   12 cycles
 SCF Done:  E(RB3LYP) =  -802.540367613     A.U. after   12 cycles
 SCF Done:  E(RB3LYP) =  -802.541159585     A.U. after   12 cycles
 SCF Done:  E(RB3LYP) =  -802.541657128     A.U. after   12 cycles
 SCF Done:  E(RB3LYP) =  -802.541932709     A.U. after   12 cycles
 SCF Done:  E(RB3LYP) =  -802.542020296     A.U. after   11 cycles
 SCF Done:  E(RB3LYP) =  -802.541792927     A.U. after   12 cycles
 SCF Done:  E(RB3LYP) =  -802.541933803     A.U. after   11 cycles
 SCF Done:  E(RB3LYP) =  -802.534620421     A.U. after   12 cycles
 SCF Done:  E(RB3LYP) =  -802.542393386     A.U. after    9 cycles
 SCF Done:  E(RB3LYP) =  -802.542393791     A.U. after    8 cycles
 SCF Done:  E(RB3LYP) =  -802.542394580     A.U. after    1 cycles
 SCF Done:  E(RB3LYP) =  -802.542394549     A.U. after    7 cycles
 SCF Done:  E(RB3LYP) =  -802.542394585     A.U. after    6 cycles
 Optimization completed.
    -- Stationary point found.
 Normal termination of Gaussian 16 at Thu Dec 17 20:50:19 2020.

 --------------------------------------------------------------------
 #N Geom=AllCheck Guess=TCheck SCRF=Check GenChk RB3LYP/6-31G(d) Freq
 --------------------------------------------------------------------

 Structure from the checkpoint file:  "JID_6302.chk"
 ----------------------------
 CID_273422_JID_6302_neutraal
 ----------------------------
 Charge =  0 Multiplicity = 1

 SCF Done:  E(RB3LYP) =  -802.542394585     A.U. after    1 cycles

  Exact polarizability: 155.464 -13.868 117.926  -7.558 -14.092  99.161
 Approx polarizability: 213.042 -26.691 185.815 -19.085 -42.936 169.393

                      1                      2                      3
                      A                      A                      A
 Frequencies --     25.5530                30.8090                58.6203
 Red. masses --      4.4049                 4.4657                 2.4229
 Frc consts  --      0.0017                 0.0025                 0.0049
 IR Inten    --      1.2905                 0.2931                 7.6213

                      4                      5                      6
                      A                      A                      A
 Frequencies --     61.0859               105.6529               107.7526
 Red. masses --      2.8823                 4.7710                 7.4293
 Frc consts  --      0.0063                 0.0314                 0.0508
 IR Inten    --      1.4049                 1.3538                 1.6821

                      7                      8                      9
                      A                      A                      A
 Frequencies --    157.5951               196.7628               218.7645
 Red. masses --      6.6072                 2.0016                 3.7930
 Frc consts  --      0.0967                 0.0457                 0.1070
 IR Inten    --      0.5533                 1.5748                 1.0351

                     10                     11                     12
                      A                      A                      A
 Frequencies --    245.5405               253.1690               332.3714
 Red. masses --      5.8886                 2.0119                 3.6910
 Frc consts  --      0.2092                 0.0760                 0.2402
 IR Inten    --      0.5216                 0.7074                18.6507

                     13                     14                     15
                      A                      A                      A
 Frequencies --    332.5462               341.9123               384.4238
 Red. masses --      3.1378                 5.4355                 1.4366
 Frc consts  --      0.2044                 0.3744                 0.1251
 IR Inten    --      6.8572                 4.6305               126.0112

                     16                     17                     18
                      A                      A                      A
 Frequencies --    418.0606               438.6490               445.9148
 Red. masses --      4.0066                 3.1611                 4.7435
 Frc consts  --      0.4126                 0.3584                 0.5557
 IR Inten    --      4.2721                21.8366                 8.1415

                     19                     20                     21
                      A                      A                      A
 Frequencies --    476.6334               581.1102               593.5539
 Red. masses --      6.0463                 6.0387                 5.4376
 Frc consts  --      0.8093                 1.2015                 1.1287
 IR Inten    --     18.9426                 4.4657                 4.1490

                     22                     23                     24
                      A                      A                      A
 Frequencies --    665.0564               688.8233               713.8046
 Red. masses --      5.5552                 4.4666                 6.4337
 Frc consts  --      1.4477                 1.2487                 1.9314
 IR Inten    --     11.0180                19.2718                 1.6025

                     25                     26                     27
                      A                      A                      A
 Frequencies --    735.8468               746.3268               800.4490
 Red. masses --      5.7490                 6.1582                 1.4330
 Frc consts  --      1.8341                 2.0210                 0.5410
 IR Inten    --     15.9199                 1.6062                17.9470

                     28                     29                     30
                      A                      A                      A
 Frequencies --    817.0802               835.2561               852.3236
 Red. masses --      1.8974                 6.3498                 2.1332
 Frc consts  --      0.7463                 2.6101                 0.9130
 IR Inten    --     14.0121                19.5829                 7.7547

                     31                     32                     33
                      A                      A                      A
 Frequencies --    869.7193               899.0047               927.8603
 Red. masses --      2.7601                 1.5313                 2.2916
 Frc consts  --      1.2301                 0.7292                 1.1624
 IR Inten    --     10.4766                24.9029                14.4289

                     34                     35                     36
                      A                      A                      A
 Frequencies --    943.9605               951.4607               977.5969
 Red. masses --      1.5793                 2.5733                 9.4116
 Frc consts  --      0.8291                 1.3725                 5.2995
 IR Inten    --      7.5524                13.5701                37.4853

                     37                     38                     39
                      A                      A                      A
 Frequencies --   1058.3746              1077.5784              1097.9452
 Red. masses --      4.3523                 5.1194                 2.9454
 Frc consts  --      2.8724                 3.5024                 2.0920
 IR Inten    --     65.2626               136.1920                89.2544

                     40                     41                     42
                      A                      A                      A
 Frequencies --   1127.5545              1132.3363              1151.4651
 Red. masses --      2.7835                 1.9935                 1.4913
 Frc consts  --      2.0850                 1.5060                 1.1650
 IR Inten    --     29.0880                43.9666                11.2716

                     43                     44                     45
                      A                      A                      A
 Frequencies --   1154.6216              1202.6365              1209.1939
 Red. masses --      1.5671                 1.6013                 1.6998
 Frc consts  --      1.2309                 1.3646                 1.4643
 IR Inten    --      6.2632                 5.8430                 5.3502

                     46                     47                     48
                      A                      A                      A
 Frequencies --   1215.7409              1264.4930              1287.3384
 Red. masses --      1.3357                 2.7910                 2.4745
 Frc consts  --      1.1632                 2.6293                 2.4161
 IR Inten    --      5.8402               208.5536               298.2220

                     49                     50                     51
                      A                      A                      A
 Frequencies --   1296.9883              1300.9401              1308.8188
 Red. masses --      1.8054                 1.7566                 1.4243
 Frc consts  --      1.7893                 1.7516                 1.4375
 IR Inten    --     84.3038                86.5166                15.7908

                     52                     53                     54
                      A                      A                      A
 Frequencies --   1342.1611              1407.7936              1419.7594
 Red. masses --      1.1431                 3.6198                 1.3275
 Frc consts  --      1.2132                 4.2268                 1.5766
 IR Inten    --     18.6595                38.0394                 5.6412

                     55                     56                     57
                      A                      A                      A
 Frequencies --   1443.6114              1446.5196              1449.1661
 Red. masses --      1.3619                 1.2882                 1.4295
 Frc consts  --      1.6722                 1.5881                 1.7687
 IR Inten    --     46.9656                18.9673                 5.2875

                     58                     59                     60
                      A                      A                      A
 Frequencies --   1482.7978              1515.7296              1520.3233
 Red. masses --      3.7548                 1.0470                 1.0830
 Frc consts  --      4.8641                 1.4173                 1.4749
 IR Inten    --     61.8690                 7.6165                 6.8630

                     61                     62                     63
                      A                      A                      A
 Frequencies --   1535.9506              1540.0459              1575.8105
 Red. masses --      1.0609                 3.0507                 1.1517
 Frc consts  --      1.4746                 4.2630                 1.6850
 IR Inten    --     10.9342               261.1691                 0.0779

                     64                     65                     66
                      A                      A                      A
 Frequencies --   1669.1369              1685.1080              1825.7915
 Red. masses --      7.1876                 7.8862                11.2236
 Frc consts  --     11.7983                13.1939                22.0437
 IR Inten    --      3.9315                 0.0370               163.4909

                     67                     68                     69
                      A                      A                      A
 Frequencies --   3032.1703              3064.0152              3093.4584
 Red. masses --      1.0651                 1.0360                 1.0856
 Frc consts  --      5.7696                 5.7303                 6.1206
 IR Inten    --    131.1230                12.3995                12.4167

                     70                     71                     72
                      A                      A                      A
 Frequencies --   3100.9736              3113.5492              3131.9095
 Red. masses --      1.0593                 1.1065                 1.1015
 Frc consts  --      6.0015                 6.3199                 6.3661
 IR Inten    --     28.1497                56.7336                25.7269

                     73                     74                     75
                      A                      A                      A
 Frequencies --   3143.6608              3164.0847              3221.9818
 Red. masses --      1.1036                 1.1090                 1.0889
 Frc consts  --      6.4262                 6.5412                 6.6604
 IR Inten    --      7.0585                23.2137                 3.2114

                     76                     77                     78
                      A                      A                      A
 Frequencies --   3232.7763              3236.2253              3722.8997
 Red. masses --      1.0916                 1.0930                 1.0651
 Frc consts  --      6.7215                 6.7445                 8.6974
 IR Inten    --      0.6980                 4.4339                38.4497

 - Thermochemistry -
 -------------------
 Temperature   298.150 Kelvin.  Pressure   1.00000 Atm.
 Atom     1 has atomic number  6 and mass  12.00000

 Molecular mass:   224.06847 amu.
 Principal axes and moments of inertia in atomic units:
                           1         2         3
     Eigenvalues --  1956.183035728.294406552.72447
           X            0.99988   0.01253   0.00952
           Y           -0.01277   0.99960   0.02531
           Z           -0.00920  -0.02543   0.99963
 This molecule is an asymmetric top.
 Rotational symmetry number  1.
 Warning -- assumption of classical behavior for rotation
           may cause significant error
 Rotational temperatures (Kelvin)      0.04428     0.01512     0.01322
 Rotational constants (GHZ):           0.92258     0.31506     0.27542
 Zero-point vibrational energy     581591.4 (Joules/Mol)
                                  139.00368 (Kcal/Mol)
 Warning -- explicit consideration of  21 degrees of freedom as
           vibrations may cause significant error
 Vibrational temperatures:     36.77    44.33    84.34    87.89   152.01
          (Kelvin)            155.03   226.74   283.10   314.75   353.28
                              364.25   478.21   478.46   491.94   553.10
                              601.50   631.12   641.57   685.77   836.09
                              853.99   956.87   991.06  1027.01  1058.72
                             1073.80  1151.67  1175.60  1201.75  1226.30
                             1251.33  1293.47  1334.98  1358.15  1368.94
                             1406.54  1522.77  1550.39  1579.70  1622.30
                             1629.18  1656.70  1661.24  1730.33  1739.76
                             1749.18  1819.32  1852.19  1866.08  1871.76
                             1883.10  1931.07  2025.50  2042.72  2077.03
                             2081.22  2085.03  2133.42  2180.80  2187.41
                             2209.89  2215.78  2267.24  2401.52  2424.49
                             2626.91  4362.62  4408.43  4450.80  4461.61
                             4479.70  4506.12  4523.03  4552.41  4635.71
                             4651.24  4656.21  5356.42

 Zero-point correction=                           0.221516 (Hartree/Particle)
 Thermal correction to Energy=                    0.236226
 Thermal correction to Enthalpy=                  0.237170
 Thermal correction to Gibbs Free Energy=         0.177666
 Sum of electronic and zero-point Energies=           -802.320878
 Sum of electronic and thermal Energies=              -802.306168
 Sum of electronic and thermal Enthalpies=            -802.305224
 Sum of electronic and thermal Free Energies=         -802.364729

                     E (Thermal)             CV                S
                      KCal/Mol        Cal/Mol-Kelvin    Cal/Mol-Kelvin
 Total                  148.234             54.402            125.238
 Electronic               0.000              0.000              0.000
 Translational            0.889              2.981             42.123
 Rotational               0.889              2.981             32.662
 Vibrational            146.457             48.440             50.452
 Vibration     1          0.593              1.985              6.148
 Vibration     2          0.594              1.984              5.777
 Vibration     3          0.596              1.974              4.503
 Vibration     4          0.597              1.973              4.422
 Vibration     5          0.605              1.945              3.347
 Vibration     6          0.606              1.943              3.309
 Vibration     7          0.621              1.894              2.578
 Vibration     8          0.636              1.844              2.163
 Vibration     9          0.647              1.812              1.969
 Vibration    10          0.660              1.770              1.762
 Vibration    11          0.664              1.757              1.708
 Vibration    12          0.714              1.611              1.249
 Vibration    13          0.714              1.611              1.248
 Vibration    14          0.721              1.592              1.203
 Vibration    15          0.753              1.503              1.022
 Vibration    16          0.781              1.431              0.899
 Vibration    17          0.799              1.386              0.831
 Vibration    18          0.805              1.370              0.808
 Vibration    19          0.833              1.302              0.719
 Vibration    20          0.938              1.072              0.483
 Vibration    21          0.951              1.046              0.461

 Normal termination of Gaussian 16 at Thu Dec 17 20:58:50 2020.

 ----------------------------------------------------------------------
 # B3LYP/6-311++G(d,p) empiricaldispersion=gd3bj scf=xqc pop=npa geom=c
 heck
 ----------------------------------------------------------------------

 ------------------------------------
 CID_273422_JID_6302_Energie_neutraal
 ------------------------------------
 Structure from the checkpoint file:  "JID_6302.chk"
 Charge =  0 Multiplicity = 1

 SCF Done:  E(RB3LYP) =  -802.777306887     A.U. after   15 cycles
 Normal termination of Gaussian 16 at Thu Dec 17 21:02:01 2020.

 ----------------------------------------------------------------------
 # B3LYP/6-311++G(d,p) empiricaldispersion=gd3bj scf=xqc pop=npa geom=c
 heck
 ----------------------------------------------------------------------

 ----------------------------------
 CID_273422_JID_6302_Energie_kation
 ----------------------------------
 Structure from the checkpoint file:  "JID_6302.chk"
 Charge =  1 Multiplicity = 2

 SCF Done:  E(UB3LYP) =  -802.488106168     A.U. after   23 cycles
 Normal termination of Gaussian 16 at Thu Dec 17 21:08:33 2020.
 Gaussian 16:  ES64L-G16RevA.03 25-Dec-2016

 ----------------------------------------------------------------------
 # B3LYP/6-311++G(d,p) empiricaldispersion=gd3bj scf=xqc pop=npa geom=c
 heck
 ----------------------------------------------------------------------

 ---------------------------------
 CID_273422_JID_6302_Energie_anion
 ---------------------------------
 Structure from the checkpoint file:  "JID_6302.chk"
 Charge = -1 Multiplicity = 2

                         Standard orientation:
 ---------------------------------------------------------------------
 Center     Atomic      Atomic             Coordinates (Angstroms)
 Number     Number       Type             X           Y           Z
 ---------------------------------------------------------------------
      1          6           0       -2.656516   -2.316229   -1.229744
      2          6           0       -3.593765   -1.213267   -0.768133
      3          8           0       -2.855037    0.005911   -0.501018
      4          6           0       -2.256275    0.095772    0.704758
      5          8           0       -2.341704   -0.736105    1.580952
      6          6           0       -1.395004    1.357159    0.779829
      7          6           0        0.028485    0.996866    0.340721
      8          6           0        0.672819   -0.121179    0.915729
      9          6           0        1.952275   -0.393380    0.484706
     10          6           0        2.596559    0.388415   -0.473286
     11          6           0        1.985237    1.486175   -1.040203
     12          6           0        0.676650    1.779430   -0.612576
     13          8           0        3.862050   -0.100441   -0.695671
     14          6           0        3.943484   -1.319920    0.051448
     15          8           0        2.791242   -1.401659    0.897441
     16          8           0       -1.958035    2.424362    0.044954
     17          1           0       -2.091134   -2.000589   -2.112177
     18          1           0       -3.233751   -3.210730   -1.488720
     19          1           0       -1.953538   -2.577449   -0.434303
     20          1           0       -4.308449   -0.931950   -1.544252
     21          1           0       -4.131555   -1.496995    0.139044
     22          1           0       -1.388968    1.671652    1.828087
     23          1           0        0.180890   -0.738719    1.658442
     24          1           0        2.493014    2.096759   -1.778491
     25          1           0        0.159573    2.640998   -1.017722
     26          1           0        3.950440   -2.173009   -0.640983
     27          1           0        4.846988   -1.308568    0.667731
     28          1           0       -2.235333    2.052999   -0.809422
 ---------------------------------------------------------------------

 SCF Done:  E(UB3LYP) =  -802.763750524     A.U. after   33 cycles
 SCF Done:  E(UB3LYP) =  -802.763750524     a.u. after    1 cycles

 The electronic state is 2-A.
 Alpha  occ. eigenvalues --  -19.08521 -19.08166 -19.08101 -19.04662 -19.03005
 Alpha  occ. eigenvalues --  -10.21646 -10.19862 -10.15912 -10.15055 -10.14964
 Alpha  occ. eigenvalues --  -10.13739 -10.10238 -10.09625 -10.09363 -10.08865
 Alpha  occ. eigenvalues --  -10.06978  -1.04357  -1.02637  -0.95341  -0.95259
 Alpha  occ. eigenvalues --   -0.93948  -0.78097  -0.70221  -0.68174  -0.67314
 Alpha  occ. eigenvalues --   -0.63048  -0.58842  -0.56528  -0.54211  -0.52771
 Alpha  occ. eigenvalues --   -0.47895  -0.46101  -0.43994  -0.43526  -0.43234
 Alpha  occ. eigenvalues --   -0.42083  -0.40229  -0.38555  -0.37168  -0.36552
 Alpha  occ. eigenvalues --   -0.35839  -0.35150  -0.33180  -0.31857  -0.31259
 Alpha  occ. eigenvalues --   -0.30771  -0.30016  -0.29723  -0.28594  -0.28523
 Alpha  occ. eigenvalues --   -0.27431  -0.27197  -0.25660  -0.23269  -0.22627
 Alpha  occ. eigenvalues --   -0.22148  -0.18550  -0.16507  -0.12610   0.04261
 Alpha virt. eigenvalues --    0.05657   0.06518   0.07183   0.07212   0.07986
 Alpha virt. eigenvalues --    0.08510   0.08584   0.09373   0.09725   0.10130
 Alpha virt. eigenvalues --    0.10687   0.11210   0.12108   0.12374   0.13055

  Beta  occ. eigenvalues --  -19.08516 -19.08164 -19.08099 -19.04648 -19.02975
  Beta  occ. eigenvalues --  -10.21605 -10.19815 -10.15912 -10.15050 -10.14961
  Beta  occ. eigenvalues --  -10.13711 -10.10234 -10.09619 -10.09362 -10.08853
  Beta  occ. eigenvalues --  -10.06938  -1.04348  -1.02597  -0.95310  -0.95253
  Beta  occ. eigenvalues --   -0.93908  -0.78083  -0.70182  -0.68124  -0.67295
  Beta  occ. eigenvalues --   -0.63003  -0.58778  -0.56468  -0.54194  -0.52750
  Beta  occ. eigenvalues --   -0.47827  -0.46071  -0.43970  -0.43499  -0.43195
  Beta  occ. eigenvalues --   -0.42033  -0.40168  -0.38479  -0.37127  -0.36529
  Beta  occ. eigenvalues --   -0.35794  -0.35115  -0.33149  -0.31793  -0.31228
  Beta  occ. eigenvalues --   -0.30739  -0.29998  -0.29657  -0.28549  -0.28510
  Beta  occ. eigenvalues --   -0.27390  -0.27182  -0.25620  -0.23236  -0.22592
  Beta  occ. eigenvalues --   -0.22094  -0.18521  -0.16489  -0.12584
  Beta virt. eigenvalues --    0.06438   0.06645   0.07193   0.07336   0.07642
  Beta virt. eigenvalues --    0.08596   0.08941   0.09167   0.09823   0.09953
  Beta virt. eigenvalues --    0.10493   0.10802   0.11598   0.12376   0.12540

 Mulliken charges and spin densities:
               1          2
     1  C    0.996965  -1.421244
     2  C   -0.085032  -0.035443
     3  O   -0.095608   0.056924
     4  C    0.081557  -0.059191
     5  O   -0.243882   0.022573
     6  C    0.300334  -0.689751
     7  C    0.592328   0.029593
     8  C   -1.374071   0.700678
     9  C    0.249021  -0.082804
    10  C    0.550836  -0.506687
    11  C   -0.930243   0.470199
    12  C    0.009797  -0.306591
    13  O   -0.213737   0.073828
    14  C    1.560375  -1.628563
    15  O   -0.222474   0.073119
    16  O   -0.158048  -0.016625
    17  H   -0.127081   0.280379
    18  H   -0.421609   0.571230
    19  H   -0.091997   0.261978
    20  H   -0.822657   1.007499
    21  H    0.153986   0.008762
    22  H    0.209504   0.018334
    23  H    0.097272   0.130596
    24  H   -0.091300   0.274706
    25  H    0.002975   0.158373
    26  H   -0.428576   0.630380
    27  H   -0.645360   0.843279
    28  H    0.146724   0.134470
 Sum of Mulliken charges =  -1.00000   1.00000

 Dipole moment (field-independent basis, Debye):
    X=              0.2301    Y=              4.9963    Z=              3.0193  Tot=              5.8423
 Quadrupole moment (field-independent basis, Debye-Ang):
   XX=           -188.4737   YY=           -138.8797   ZZ=           -128.8397
   XY=              2.7787   XZ=            -14.1959   YZ=             -5.9138

 Summary of Natural Population Analysis:

                                       Natural Population
                Natural  -----------------------------------------------
    Atom  No    Charge         Core      Valence    Rydberg      Total
 -----------------------------------------------------------------------
      C    1   -0.29951      0.99966     2.29452    0.00533     3.29951
      C    2   -0.01437      0.99957     2.00295    0.01185     3.01437
      O    3   -0.28948      0.99986     3.27893    0.01070     4.28948
      C    4    0.41067      0.99967     1.56343    0.02622     2.58933
      O    5   -0.30485      0.99987     3.29975    0.00523     4.30485
      C    6    0.02256      0.99948     1.96306    0.01490     2.97744
      C    7   -0.03263      0.99950     2.02323    0.00989     3.03263
      C    8   -0.12652      0.99948     2.11821    0.00884     3.12652
      C    9    0.13826      0.99933     1.84880    0.01361     2.86174
      C   10    0.13187      0.99932     1.85506    0.01375     2.86813
      C   11   -0.11979      0.99952     2.11159    0.00868     3.11979
      C   12   -0.10622      0.99952     2.09666    0.01004     3.10622
      O   13   -0.27128      0.99987     3.26339    0.00803     4.27128
      C   14    0.15662      0.99962     1.82814    0.01562     2.84338
      O   15   -0.26975      0.99987     3.26208    0.00780     4.26975
      O   16   -0.36443      0.99990     3.35856    0.00597     4.36443
      H   17    0.10418      0.00000     0.39429    0.00153     0.39582
      H   18    0.10576      0.00000     0.39238    0.00186     0.39424
      H   19    0.10464      0.00000     0.39403    0.00133     0.39536
      H   20    0.09520      0.00000     0.40172    0.00308     0.40480
      H   21    0.09347      0.00000     0.40529    0.00124     0.40653
      H   22    0.10154      0.00000     0.39693    0.00152     0.39846
      H   23    0.11773      0.00000     0.38069    0.00157     0.38227
      H   24    0.10717      0.00000     0.39188    0.00095     0.39283
      H   25    0.11033      0.00000     0.38859    0.00108     0.38967
      H   26    0.07766      0.00000     0.41906    0.00327     0.42234
      H   27    0.08328      0.00000     0.41316    0.00356     0.41672
      H   28    0.23789      0.00000     0.25878    0.00334     0.26211
 =======================================================================
   * Total *   -0.00000     15.99405    42.80516    0.20079    59.00000

 Normal termination of Gaussian 16 at Thu Dec 17 21:18:01 2020.
