 Gaussian 16, Revision A.03,

 -----------------------------------------------------------
 # opt freq B3LYP/6-31G(d) empiricaldispersion=gd3bj scf=xqc
 -----------------------------------------------------------

 ------------------------------
 CID_11966272_JID_3490_neutraal
 ------------------------------
 Symbolic Z-matrix:
 Charge =  0 Multiplicity = 1

 SCF Done:  E(RB3LYP) =  -731.384332637     A.U. after   15 cycles
 SCF Done:  E(RB3LYP) =  -731.397515298     A.U. after   13 cycles
 SCF Done:  E(RB3LYP) =  -731.391819326     A.U. after   14 cycles
 SCF Done:  E(RB3LYP) =  -731.399918760     A.U. after   13 cycles
 SCF Done:  E(RB3LYP) =  -731.401167973     A.U. after   13 cycles
 SCF Done:  E(RB3LYP) =  -731.401637833     A.U. after   13 cycles
 SCF Done:  E(RB3LYP) =  -731.402294183     A.U. after   13 cycles
 SCF Done:  E(RB3LYP) =  -731.402739924     A.U. after   12 cycles
 SCF Done:  E(RB3LYP) =  -731.403379642     A.U. after   12 cycles
 SCF Done:  E(RB3LYP) =  -731.402755158     A.U. after   14 cycles
 SCF Done:  E(RB3LYP) =  -731.405107529     A.U. after   10 cycles
 SCF Done:  E(RB3LYP) =  -731.405094316     A.U. after   11 cycles
 SCF Done:  E(RB3LYP) =  -731.405119269     A.U. after   10 cycles
 SCF Done:  E(RB3LYP) =  -731.405118438     A.U. after    9 cycles
 SCF Done:  E(RB3LYP) =  -731.405120935     A.U. after    9 cycles
 SCF Done:  E(RB3LYP) =  -731.405120864     A.U. after    7 cycles
 Optimization completed.
    -- Stationary point found.
 Normal termination of Gaussian 16 at Wed Dec  9 23:33:00 2020.

 --------------------------------------------------------------------
 #N Geom=AllCheck Guess=TCheck SCRF=Check GenChk RB3LYP/6-31G(d) Freq
 --------------------------------------------------------------------

 Structure from the checkpoint file:  "JID_3490.chk"
 ------------------------------
 CID_11966272_JID_3490_neutraal
 ------------------------------
 Charge =  0 Multiplicity = 1

 SCF Done:  E(RB3LYP) =  -731.405120864     A.U. after    1 cycles

  Exact polarizability:  93.902  -1.713  61.059   0.106   1.199  87.343
 Approx polarizability: 152.130  -0.867  82.405   5.361   1.572 148.920

                      1                      2                      3
                      A                      A                      A
 Frequencies --     69.9567                84.8796               101.6714
 Red. masses --      8.1359                 9.6398                12.3053
 Frc consts  --      0.0235                 0.0409                 0.0749
 IR Inten    --      2.7711                 2.3591                 0.8275

                      4                      5                      6
                      A                      A                      A
 Frequencies --    111.7525               124.9987               135.5699
 Red. masses --      7.5969                 6.0911                 5.5240
 Frc consts  --      0.0559                 0.0561                 0.0598
 IR Inten    --      8.5246                 6.4448                 1.2348

                      7                      8                      9
                      A                      A                      A
 Frequencies --    190.2140               229.8944               260.1393
 Red. masses --      8.1291                 5.6600                 5.2450
 Frc consts  --      0.1733                 0.1762                 0.2091
 IR Inten    --      4.4405                 3.5301                12.1564

                     10                     11                     12
                      A                      A                      A
 Frequencies --    333.6832               357.9070               391.6307
 Red. masses --      1.3574                 3.3234                 7.5950
 Frc consts  --      0.0891                 0.2508                 0.6863
 IR Inten    --    319.9257                24.8000                13.6089

                     13                     14                     15
                      A                      A                      A
 Frequencies --    430.6560               485.7760               489.5442
 Red. masses --      3.9617                 1.3680                 4.8135
 Frc consts  --      0.4329                 0.1902                 0.6797
 IR Inten    --      9.8175                15.3512                28.2210

                     16                     17                     18
                      A                      A                      A
 Frequencies --    520.2614               524.9074               545.0871
 Red. masses --      1.6156                 1.5691                 1.4134
 Frc consts  --      0.2576                 0.2547                 0.2474
 IR Inten    --     19.7073               108.7060                80.8943

                     19                     20                     21
                      A                      A                      A
 Frequencies --    571.4417               599.6423               610.1986
 Red. masses --      1.2437                 1.3750                 3.3376
 Frc consts  --      0.2393                 0.2913                 0.7322
 IR Inten    --     44.4342                44.2727                51.3415

                     22                     23                     24
                      A                      A                      A
 Frequencies --    632.8108               666.5362               695.2988
 Red. masses --      3.3242                 1.9464                 3.3663
 Frc consts  --      0.7843                 0.5095                 0.9589
 IR Inten    --     26.3193               221.3807                40.7331

                     25                     26                     27
                      A                      A                      A
 Frequencies --    740.3299               770.3204               777.8171
 Red. masses --      7.4190                 8.8727                 3.0287
 Frc consts  --      2.3958                 3.1020                 1.0796
 IR Inten    --    179.2921                38.9080                62.8117

                     28                     29                     30
                      A                      A                      A
 Frequencies --    788.0114               923.5701               967.9574
 Red. masses --      6.8522                 6.0565                 4.1558
 Frc consts  --      2.5070                 3.0438                 2.2941
 IR Inten    --     16.0690                 6.9795                17.6073

                     31                     32                     33
                      A                      A                      A
 Frequencies --   1031.9503              1079.1457              1120.1600
 Red. masses --      3.2376                 2.5443                 1.7657
 Frc consts  --      2.0314                 1.7458                 1.3054
 IR Inten    --      6.8151                37.3132                12.5377

                     34                     35                     36
                      A                      A                      A
 Frequencies --   1165.7469              1295.4184              1332.6056
 Red. masses --      1.8711                 3.7319                 2.5089
 Frc consts  --      1.4982                 3.6898                 2.6250
 IR Inten    --     21.9256               278.7739               212.9224

                     37                     38                     39
                      A                      A                      A
 Frequencies --   1399.3215              1431.8545              1441.0314
 Red. masses --      4.7287                 1.4554                 4.4316
 Frc consts  --      5.4554                 1.7580                 5.4220
 IR Inten    --    311.4788                31.6145               165.7970

                     40                     41                     42
                      A                      A                      A
 Frequencies --   1452.0282              1485.4093              1647.6693
 Red. masses --      1.7069                 2.0385                 1.2642
 Frc consts  --      2.1204                 2.6500                 2.0222
 IR Inten    --     28.7602               169.4123               102.4973

                     43                     44                     45
                      A                      A                      A
 Frequencies --   1672.0495              1802.2073              1826.8722
 Red. masses --      1.1782                 7.0024                 8.7084
 Frc consts  --      1.9407                13.4000                17.1240
 IR Inten    --    103.1756               315.0629               510.9058

                     46                     47                     48
                      A                      A                      A
 Frequencies --   1837.5695              1852.6131              3517.6121
 Red. masses --      8.9921                 8.5666                 1.0523
 Frc consts  --     17.8896                17.3231                 7.6715
 IR Inten    --    164.2907               664.4602                66.2004

                     49                     50                     51
                      A                      A                      A
 Frequencies --   3600.8803              3601.8012              3608.4536
 Red. masses --      1.0734                 1.0486                 1.0763
 Frc consts  --      8.2001                 8.0147                 8.2570
 IR Inten    --     43.1948                60.1252                73.0109

                     52                     53                     54
                      A                      A                      A
 Frequencies --   3625.8917              3647.0499              3723.7123
 Red. masses --      1.0766                 1.0955                 1.1049
 Frc consts  --      8.3391                 8.5848                 9.0270
 IR Inten    --     62.5628                58.2634                60.5348

 - Thermochemistry -
 -------------------
 Temperature   298.150 Kelvin.  Pressure   1.00000 Atm.
 Atom     1 has atomic number  6 and mass  12.00000

 Molecular mass:   189.04980 amu.
 Principal axes and moments of inertia in atomic units:
                           1         2         3
     Eigenvalues --  2102.122822160.783752432.39163
           X            0.87939  -0.47562  -0.02153
           Y            0.47608   0.87787   0.05191
           Z           -0.00579  -0.05590   0.99842
 This molecule is an asymmetric top.
 Rotational symmetry number  1.
 Warning -- assumption of classical behavior for rotation
           may cause significant error
 Rotational temperatures (Kelvin)      0.04120     0.04008     0.03561
 Rotational constants (GHZ):           0.85853     0.83523     0.74196
 Zero-point vibrational energy     384787.9 (Joules/Mol)
                                   91.96652 (Kcal/Mol)
 Warning -- explicit consideration of  21 degrees of freedom as
           vibrations may cause significant error
 Vibrational temperatures:    100.65   122.12   146.28   160.79   179.85
          (Kelvin)            195.05   273.68   330.77   374.28   480.10
                              514.95   563.47   619.62   698.92   704.34
                              748.54   755.22   784.26   822.18   862.75
                              877.94   910.47   959.00  1000.38  1065.17
                             1108.32  1119.11  1133.77  1328.81  1392.67
                             1484.75  1552.65  1611.66  1677.25  1863.82
                             1917.32  2013.31  2060.12  2073.32  2089.14
                             2137.17  2370.63  2405.71  2592.97  2628.46
                             2643.85  2665.50  5061.06  5180.86  5182.19
                             5191.76  5216.85  5247.29  5357.59

 Zero-point correction=                           0.146558 (Hartree/Particle)
 Thermal correction to Energy=                    0.159201
 Thermal correction to Enthalpy=                  0.160146
 Thermal correction to Gibbs Free Energy=         0.107870
 Sum of electronic and zero-point Energies=           -731.258563
 Sum of electronic and thermal Energies=              -731.245920
 Sum of electronic and thermal Enthalpies=            -731.244975
 Sum of electronic and thermal Free Energies=         -731.297251

                     E (Thermal)             CV                S
                      KCal/Mol        Cal/Mol-Kelvin    Cal/Mol-Kelvin
 Total                   99.900             46.762            110.024
 Electronic               0.000              0.000              0.000
 Translational            0.889              2.981             41.616
 Rotational               0.889              2.981             30.780
 Vibrational             98.123             40.800             37.627
 Vibration     1          0.598              1.968              4.155
 Vibration     2          0.601              1.960              3.775
 Vibration     3          0.604              1.948              3.422
 Vibration     4          0.607              1.940              3.238
 Vibration     5          0.610              1.928              3.022
 Vibration     6          0.613              1.918              2.865
 Vibration     7          0.634              1.853              2.226
 Vibration     8          0.652              1.795              1.880
 Vibration     9          0.668              1.746              1.661
 Vibration    10          0.715              1.608              1.242
 Vibration    11          0.733              1.559              1.131
 Vibration    12          0.759              1.488              0.994
 Vibration    13          0.792              1.403              0.857
 Vibration    14          0.842              1.282              0.695
 Vibration    15          0.845              1.273              0.685
 Vibration    16          0.875              1.205              0.609
 Vibration    17          0.880              1.195              0.599
 Vibration    18          0.900              1.150              0.554
 Vibration    19          0.928              1.093              0.501
 Vibration    20          0.958              1.033              0.450
 Vibration    21          0.969              1.010              0.432

 Optimization completed.
    -- Stationary point found.
 Normal termination of Gaussian 16 at Wed Dec  9 23:38:24 2020.

 ----------------------------------------------------------------------
 # B3LYP/6-311++G(d,p) empiricaldispersion=gd3bj scf=xqc pop=npa geom=c
 heck
 ----------------------------------------------------------------------

 --------------------------------------
 CID_11966272_JID_3490_Energie_neutraal
 --------------------------------------
 Structure from the checkpoint file:  "JID_3490.chk"
 Charge =  0 Multiplicity = 1

 SCF Done:  E(RB3LYP) =  -731.651942832     A.U. after   14 cycles
 Normal termination of Gaussian 16 at Wed Dec  9 23:40:18 2020.

 ----------------------------------------------------------------------
 # B3LYP/6-311++G(d,p) empiricaldispersion=gd3bj scf=xqc pop=npa geom=c
 heck
 ----------------------------------------------------------------------

 ------------------------------------
 CID_11966272_JID_3490_Energie_kation
 ------------------------------------
 Structure from the checkpoint file:  "JID_3490.chk"
 Charge =  1 Multiplicity = 2

 SCF Done:  E(UB3LYP) =  -731.289565949     A.U. after   31 cycles
 Normal termination of Gaussian 16 at Wed Dec  9 23:46:15 2020.
 Gaussian 16:  ES64L-G16RevA.03 25-Dec-2016

 ----------------------------------------------------------------------
 # B3LYP/6-311++G(d,p) empiricaldispersion=gd3bj scf=xqc pop=npa geom=c
 heck
 ----------------------------------------------------------------------

 -----------------------------------
 CID_11966272_JID_3490_Energie_anion
 -----------------------------------
 Structure from the checkpoint file:  "JID_3490.chk"
 Charge = -1 Multiplicity = 2

                         Standard orientation:
 ---------------------------------------------------------------------
 Center     Atomic      Atomic             Coordinates (Angstroms)
 Number     Number       Type             X           Y           Z
 ---------------------------------------------------------------------
      1          6           0       -0.773695    1.588795    0.280440
      2          8           0       -0.153398    1.959384    1.256931
      3          7           0       -2.139140    1.606393    0.136361
      4          7           0       -0.142431    1.114047   -0.906065
      5          6           0        1.175836    0.690497   -1.003804
      6          8           0        1.871059    0.925971   -1.971966
      7          7           0        1.656888   -0.117675    0.041724
      8          6           0        1.002869   -0.691100    1.143976
      9          8           0        1.551303   -0.821046    2.215631
     10          7           0       -0.297525   -1.138547    0.908726
     11          6           0       -0.962075   -1.525477   -0.273448
     12          8           0       -2.182378   -1.448240   -0.348592
     13          7           0       -0.177314   -2.039889   -1.256918
     14          1           0       -2.538370    0.786285   -0.314744
     15          1           0       -2.617994    1.883369    0.984684
     16          1           0       -0.504728    1.470859   -1.782386
     17          1           0        2.658481   -0.040486    0.174133
     18          1           0       -0.868776   -1.198459    1.741813
     19          1           0        0.830372   -2.003686   -1.211994
     20          1           0       -0.612625   -2.173033   -2.157319
 ---------------------------------------------------------------------

 SCF Done:  E(UB3LYP) =  -731.652742863     A.U. after   27 cycles

 The electronic state is 2-A.
 Alpha  occ. eigenvalues --  -18.98236 -18.98144 -18.97216 -18.96778 -14.23388
 Alpha  occ. eigenvalues --  -14.23271 -14.22769 -14.22317 -14.22034 -10.19652
 Alpha  occ. eigenvalues --  -10.18888 -10.18184 -10.17135  -0.96026  -0.94697
 Alpha  occ. eigenvalues --   -0.93665  -0.92691  -0.82964  -0.81900  -0.79965
 Alpha  occ. eigenvalues --   -0.78491  -0.77435  -0.55615  -0.54493  -0.51715
 Alpha  occ. eigenvalues --   -0.48732  -0.45466  -0.43984  -0.42913  -0.40163
 Alpha  occ. eigenvalues --   -0.38259  -0.36488  -0.34542  -0.33303  -0.32749
 Alpha  occ. eigenvalues --   -0.32082  -0.31532  -0.30769  -0.29959  -0.26677
 Alpha  occ. eigenvalues --   -0.19458  -0.19174  -0.17885  -0.17565  -0.16980
 Alpha  occ. eigenvalues --   -0.16658  -0.15849  -0.15370  -0.14106   0.04859
 Alpha virt. eigenvalues --    0.07638   0.08339   0.09298   0.10537   0.11192
 Alpha virt. eigenvalues --    0.12359   0.13058   0.13275   0.14377   0.15422
 Alpha virt. eigenvalues --    0.15828   0.16811   0.17688   0.17957   0.18473

  Beta  occ. eigenvalues --  -18.98187 -18.98070 -18.96993 -18.96557 -14.23416
  Beta  occ. eigenvalues --  -14.23348 -14.22805 -14.22279 -14.22025 -10.19564
  Beta  occ. eigenvalues --  -10.18769 -10.17959 -10.16809  -0.95776  -0.94525
  Beta  occ. eigenvalues --   -0.93391  -0.92298  -0.82789  -0.81799  -0.79855
  Beta  occ. eigenvalues --   -0.78402  -0.77408  -0.55119  -0.54198  -0.51495
  Beta  occ. eigenvalues --   -0.48576  -0.45373  -0.43880  -0.42791  -0.40030
  Beta  occ. eigenvalues --   -0.38143  -0.36331  -0.34106  -0.33003  -0.32276
  Beta  occ. eigenvalues --   -0.31740  -0.31235  -0.30420  -0.29569  -0.25557
  Beta  occ. eigenvalues --   -0.19362  -0.19027  -0.17550  -0.17184  -0.17038
  Beta  occ. eigenvalues --   -0.16489  -0.15614  -0.15104  -0.13780
  Beta virt. eigenvalues --    0.07853   0.08917   0.09792   0.09985   0.10916
  Beta virt. eigenvalues --    0.11681   0.13046   0.13111   0.13785   0.14805
  Beta virt. eigenvalues --    0.15401   0.15949   0.16951   0.17636   0.18380

 Mulliken charges and spin densities:
               1          2
     1  C    0.217047  -0.149867
     2  O   -0.312607   0.019058
     3  N   -0.345445   0.066917
     4  N   -0.451497   0.090963
     5  C    0.388012  -0.088832
     6  O   -0.371660   0.094073
     7  N   -0.404344  -0.028238
     8  C    0.154970   0.052948
     9  O   -0.359792   0.073138
    10  N   -0.257271   0.002345
    11  C    0.705978  -0.611007
    12  O   -0.427386   0.060481
    13  N   -0.307519  -0.007242
    14  H    0.196670   0.071484
    15  H    0.172724   0.097485
    16  H   -0.006926   0.361861
    17  H    0.362998  -0.010192
    18  H    0.279462   0.071839
    19  H    0.036534   0.258530
    20  H   -0.269949   0.574255
 Sum of Mulliken charges =  -1.00000   1.00000

 Dipole moment (field-independent basis, Debye):
    X=             -1.4879    Y=              0.3926    Z=              1.6506  Tot=              2.2566
 Quadrupole moment (field-independent basis, Debye-Ang):
   XX=            -96.8694   YY=           -103.0520   ZZ=           -111.4241
   XY=             -6.3582   XZ=             -4.4326   YZ=             -1.8538

 Summary of Natural Population Analysis:

                                       Natural Population
                Natural  -----------------------------------------------
    Atom  No    Charge         Core      Valence    Rydberg      Total
 -----------------------------------------------------------------------
      C    1    0.41863      0.99975     1.55642    0.02520     2.58137
      O    2   -0.31436      0.99987     3.30917    0.00533     4.31436
      N    3   -0.41767      0.99970     2.91039    0.00758     3.91767
      N    4   -0.36361      0.99965     2.85400    0.00997     3.86361
      C    5    0.45134      0.99971     1.52454    0.02441     2.54866
      O    6   -0.29991      0.99987     3.29440    0.00564     4.29991
      N    7   -0.35832      0.99965     2.85033    0.00834     3.85832
      C    8    0.43894      0.99972     1.53636    0.02498     2.56106
      O    9   -0.29210      0.99987     3.28694    0.00529     4.29210
      N   10   -0.35413      0.99964     2.84526    0.00922     3.85413
      C   11    0.41616      0.99972     1.55967    0.02444     2.58384
      O   12   -0.33968      0.99987     3.33382    0.00598     4.33968
      N   13   -0.40423      0.99970     2.89683    0.00770     3.90423
      H   14    0.20692      0.00000     0.29105    0.00203     0.29308
      H   15    0.18907      0.00000     0.30944    0.00149     0.31093
      H   16    0.20799      0.00000     0.28841    0.00359     0.29201
      H   17    0.20552      0.00000     0.29301    0.00148     0.29448
      H   18    0.20677      0.00000     0.29116    0.00207     0.29323
      H   19    0.20278      0.00000     0.29494    0.00229     0.29722
      H   20    0.19989      0.00000     0.29555    0.00455     0.30011
 =======================================================================
   * Total *    0.00000     12.99673    35.82170    0.18157    49.00000

 Normal termination of Gaussian 16 at Wed Dec  9 23:51:26 2020.
