 Gaussian 16, Revision A.03,

 -----------------------------------------------------------
 # opt freq B3LYP/6-31G(d) empiricaldispersion=gd3bj scf=xqc
 -----------------------------------------------------------

 -------------------------------
 CID_131481543_JID_4323_neutraal
 -------------------------------
 Symbolic Z-matrix:
 Charge =  0 Multiplicity = 1

 SCF Done:  E(RB3LYP) =  -611.114494771     A.U. after   15 cycles
 SCF Done:  E(RB3LYP) =  -611.120608027     A.U. after   13 cycles
 SCF Done:  E(RB3LYP) =  -611.119610865     A.U. after   14 cycles
 SCF Done:  E(RB3LYP) =  -611.121768124     A.U. after   13 cycles
 SCF Done:  E(RB3LYP) =  -611.122342552     A.U. after   12 cycles
 SCF Done:  E(RB3LYP) =  -611.122453265     A.U. after   11 cycles
 SCF Done:  E(RB3LYP) =  -611.122531462     A.U. after   12 cycles
 SCF Done:  E(RB3LYP) =  -611.122612010     A.U. after   12 cycles
 SCF Done:  E(RB3LYP) =  -611.122696059     A.U. after   12 cycles
 SCF Done:  E(RB3LYP) =  -611.122897800     A.U. after   11 cycles
 SCF Done:  E(RB3LYP) =  -611.123595224     A.U. after   11 cycles
 SCF Done:  E(RB3LYP) =  -611.123590546     A.U. after   11 cycles
 SCF Done:  E(RB3LYP) =  -611.123599540     A.U. after   11 cycles
 SCF Done:  E(RB3LYP) =  -611.123599725     A.U. after    8 cycles
 SCF Done:  E(RB3LYP) =  -611.123599719     A.U. after    6 cycles
 SCF Done:  E(RB3LYP) =  -611.123599733     A.U. after    7 cycles
 Optimization completed.
    -- Stationary point found.
 Normal termination of Gaussian 16 at Thu Dec 10 09:33:41 2020.

 --------------------------------------------------------------------
 #N Geom=AllCheck Guess=TCheck SCRF=Check GenChk RB3LYP/6-31G(d) Freq
 --------------------------------------------------------------------

 Structure from the checkpoint file:  "JID_4323.chk"
 -------------------------------
 CID_131481543_JID_4323_neutraal
 -------------------------------
 Charge =  0 Multiplicity = 1

 SCF Done:  E(RB3LYP) =  -611.123599733     A.U. after    1 cycles

  Exact polarizability: 178.131   3.730 147.929  -4.287   5.024  74.023
 Approx polarizability: 290.563  11.179 256.090 -11.906  18.733 117.876

                      1                      2                      3
                      A                      A                      A
 Frequencies --     44.5775                82.6314               103.3588
 Red. masses --      4.3958                 2.7953                 2.8278
 Frc consts  --      0.0051                 0.0112                 0.0178
 IR Inten    --      4.8716                 3.5890                 3.9967

                      4                      5                      6
                      A                      A                      A
 Frequencies --    108.2599               155.8869               183.9997
 Red. masses --      1.1168                 4.3561                 3.7340
 Frc consts  --      0.0077                 0.0624                 0.0745
 IR Inten    --      0.1000                 0.8181                 1.1979

                      7                      8                      9
                      A                      A                      A
 Frequencies --    225.8320               244.5994               262.3001
 Red. masses --      3.3214                 1.9063                 2.3907
 Frc consts  --      0.0998                 0.0672                 0.0969
 IR Inten    --      2.2374                16.2336                 5.7220

                     10                     11                     12
                      A                      A                      A
 Frequencies --    313.4698               331.8866               375.6759
 Red. masses --      3.9933                 2.9890                 3.5990
 Frc consts  --      0.2312                 0.1940                 0.2993
 IR Inten    --      4.9896                 0.1449                 6.0189

                     13                     14                     15
                      A                      A                      A
 Frequencies --    431.2745               454.6471               484.7246
 Red. masses --      4.0187                 4.6862                 4.0227
 Frc consts  --      0.4404                 0.5707                 0.5569
 IR Inten    --      1.7518                 1.2029                 9.2537

                     16                     17                     18
                      A                      A                      A
 Frequencies --    528.3883               556.2942               584.5102
 Red. masses --      5.2769                 4.4343                 3.9165
 Frc consts  --      0.8680                 0.8085                 0.7884
 IR Inten    --      0.8567                 0.9954                 4.4223

                     19                     20                     21
                      A                      A                      A
 Frequencies --    600.6891               624.8408               660.5796
 Red. masses --      3.8185                 3.9509                 4.0751
 Frc consts  --      0.8118                 0.9088                 1.0477
 IR Inten    --      4.2518                 8.4638                11.8964

                     22                     23                     24
                      A                      A                      A
 Frequencies --    706.8342               770.8777               775.9629
 Red. masses --      4.8164                 1.5634                 1.5911
 Frc consts  --      1.4178                 0.5474                 0.5645
 IR Inten    --      4.5729                 8.5128               109.3075

                     25                     26                     27
                      A                      A                      A
 Frequencies --    811.2197               868.9149               881.3659
 Red. masses --      2.4759                 2.7561                 1.8514
 Frc consts  --      0.9600                 1.2260                 0.8474
 IR Inten    --     19.9343                 4.8523                28.6665

                     28                     29                     30
                      A                      A                      A
 Frequencies --    894.3436               916.4477               972.6632
 Red. masses --      1.5459                 1.5502                 3.7226
 Frc consts  --      0.7285                 0.7671                 2.0750
 IR Inten    --     12.6369                 1.5948                 3.8144

                     31                     32                     33
                      A                      A                      A
 Frequencies --    987.9560               992.0538               999.9759
 Red. masses --      1.4451                 2.4941                 2.3526
 Frc consts  --      0.8311                 1.4462                 1.3860
 IR Inten    --      2.8724                20.2950                25.9342

                     34                     35                     36
                      A                      A                      A
 Frequencies --   1048.6060              1061.2651              1066.6092
 Red. masses --      2.3553                 1.7342                 2.2155
 Frc consts  --      1.5259                 1.1508                 1.4850
 IR Inten    --      3.5607                 2.6846                 7.6947

                     37                     38                     39
                      A                      A                      A
 Frequencies --   1072.9011              1150.4534              1177.4634
 Red. masses --      2.8584                 1.7568                 1.6172
 Frc consts  --      1.9386                 1.3700                 1.3210
 IR Inten    --      9.7270                 1.7359                 5.6037

                     40                     41                     42
                      A                      A                      A
 Frequencies --   1191.3877              1214.7112              1216.9844
 Red. masses --      1.2197                 1.3326                 1.4133
 Frc consts  --      1.0200                 1.1585                 1.2333
 IR Inten    --     10.8394                 5.3166                 8.5031

                     43                     44                     45
                      A                      A                      A
 Frequencies --   1237.2565              1260.0754              1323.5270
 Red. masses --      2.7244                 2.3219                 2.5906
 Frc consts  --      2.4572                 2.1721                 2.6737
 IR Inten    --      1.3671                63.0271                39.2607

                     46                     47                     48
                      A                      A                      A
 Frequencies --   1331.3792              1391.1493              1404.0192
 Red. masses --      1.3880                 1.5477                 2.3899
 Frc consts  --      1.4496                 1.7648                 2.7757
 IR Inten    --      5.8448                13.0505                32.1405

                     49                     50                     51
                      A                      A                      A
 Frequencies --   1426.1087              1426.6582              1464.1652
 Red. masses --      1.3749                 1.4325                 2.0039
 Frc consts  --      1.6475                 1.7178                 2.5311
 IR Inten    --     10.1798                36.2414                17.4368

                     52                     53                     54
                      A                      A                      A
 Frequencies --   1492.1342              1503.2744              1508.3459
 Red. masses --      1.1893                 1.0884                 1.0473
 Frc consts  --      1.5601                 1.4492                 1.4039
 IR Inten    --     59.2620                 8.0199                 7.5315

                     55                     56                     57
                      A                      A                      A
 Frequencies --   1556.7088              1616.5376              1673.9696
 Red. masses --      4.5363                 6.8265                 3.2342
 Frc consts  --      6.4769                10.5104                 5.3397
 IR Inten    --    184.1479                62.6497                91.6684

                     58                     59                     60
                      A                      A                      A
 Frequencies --   1681.8654              1713.1335              1771.0570
 Red. masses --      1.3959                 5.4525                11.9810
 Frc consts  --      2.3264                 9.4282                22.1416
 IR Inten    --     84.3324                55.1170               237.9041

                     61                     62                     63
                      A                      A                      A
 Frequencies --   2938.3811              3000.3737              3046.0957
 Red. masses --      1.0782                 1.0723                 1.0398
 Frc consts  --      5.4849                 5.6874                 5.6843
 IR Inten    --      0.6829                81.2593                 8.3166

                     64                     65                     66
                      A                      A                      A
 Frequencies --   3097.9815              3130.1722              3173.2595
 Red. masses --      1.0994                 1.0900                 1.0997
 Frc consts  --      6.2165                 6.2922                 6.5243
 IR Inten    --     12.9989                 1.4419                 7.5684

                     67                     68                     69
                      A                      A                      A
 Frequencies --   3178.0863              3186.7757              3188.8514
 Red. masses --      1.0874                 1.0895                 1.0896
 Frc consts  --      6.4712                 6.5187                 6.5280
 IR Inten    --     13.4733                 3.6773                18.3821

                     70                     71                     72
                      A                      A                      A
 Frequencies --   3205.1733              3501.5755              3599.3253
 Red. masses --      1.0967                 1.0486                 1.0956
 Frc consts  --      6.6380                 7.5748                 8.3627
 IR Inten    --     29.2245                 0.3917                 1.8755

 - Thermochemistry -
 -------------------
 Temperature   298.150 Kelvin.  Pressure   1.00000 Atm.
 Atom     1 has atomic number  6 and mass  12.00000

 Molecular mass:   188.09496 amu.
 Principal axes and moments of inertia in atomic units:
                           1         2         3
     Eigenvalues --  1850.254442686.188513983.88611
           X            0.99891  -0.04648  -0.00511
           Y            0.04641   0.99883  -0.01372
           Z            0.00574   0.01347   0.99989
 This molecule is an asymmetric top.
 Rotational symmetry number  1.
 Warning -- assumption of classical behavior for rotation
           may cause significant error
 Rotational temperatures (Kelvin)      0.04681     0.03224     0.02174
 Rotational constants (GHZ):           0.97540     0.67186     0.45301
 Zero-point vibrational energy     557249.5 (Joules/Mol)
                                  133.18582 (Kcal/Mol)
 Warning -- explicit consideration of  19 degrees of freedom as
           vibrations may cause significant error
 Vibrational temperatures:     64.14   118.89   148.71   155.76   224.29
          (Kelvin)            264.73   324.92   351.92   377.39   451.01
                              477.51   540.51   620.51   654.14   697.41
                              760.23   800.38   840.98   864.26   899.01
                              950.43  1016.98  1109.12  1116.44  1167.16
                             1250.17  1268.09  1286.76  1318.56  1399.45
                             1421.45  1427.34  1438.74  1508.71  1526.92
                             1534.61  1543.67  1655.25  1694.11  1714.14
                             1747.70  1750.97  1780.14  1812.97  1904.26
                             1915.56  2001.55  2020.07  2051.85  2052.64
                             2106.61  2146.85  2162.88  2170.17  2239.76
                             2325.84  2408.47  2419.83  2464.82  2548.16
                             4227.67  4316.87  4382.65  4457.30  4503.62
                             4565.61  4572.56  4585.06  4588.05  4611.53
                             5037.99  5178.63

 Zero-point correction=                           0.212245 (Hartree/Particle)
 Thermal correction to Energy=                    0.224785
 Thermal correction to Enthalpy=                  0.225729
 Thermal correction to Gibbs Free Energy=         0.173349
 Sum of electronic and zero-point Energies=           -610.911355
 Sum of electronic and thermal Energies=              -610.898815
 Sum of electronic and thermal Enthalpies=            -610.897871
 Sum of electronic and thermal Free Energies=         -610.950251

                     E (Thermal)             CV                S
                      KCal/Mol        Cal/Mol-Kelvin    Cal/Mol-Kelvin
 Total                  141.054             48.341            110.243
 Electronic               0.000              0.000              0.000
 Translational            0.889              2.981             41.601
 Rotational               0.889              2.981             31.360
 Vibrational            139.277             42.379             37.282
 Vibration     1          0.595              1.980              5.045
 Vibration     2          0.600              1.961              3.827
 Vibration     3          0.605              1.947              3.390
 Vibration     4          0.606              1.943              3.300
 Vibration     5          0.620              1.896              2.599
 Vibration     6          0.631              1.862              2.287
 Vibration     7          0.650              1.802              1.912
 Vibration     8          0.660              1.772              1.769
 Vibration     9          0.670              1.742              1.646
 Vibration    10          0.701              1.648              1.344
 Vibration    11          0.714              1.612              1.251
 Vibration    12          0.747              1.522              1.057
 Vibration    13          0.792              1.402              0.854
 Vibration    14          0.813              1.351              0.782
 Vibration    15          0.841              1.284              0.697
 Vibration    16          0.883              1.187              0.591
 Vibration    17          0.912              1.126              0.531
 Vibration    18          0.941              1.065              0.477
 Vibration    19          0.959              1.030              0.448

 Optimization completed.
    -- Stationary point found.
 Normal termination of Gaussian 16 at Thu Dec 10 09:41:38 2020.

 ----------------------------------------------------------------------
 # B3LYP/6-311++G(d,p) empiricaldispersion=gd3bj scf=xqc pop=npa geom=c
 heck
 ----------------------------------------------------------------------

 ---------------------------------------
 CID_131481543_JID_4323_Energie_neutraal
 ---------------------------------------
 Structure from the checkpoint file:  "JID_4323.chk"
 Charge =  0 Multiplicity = 1

 SCF Done:  E(RB3LYP) =  -611.296151504     A.U. after   17 cycles
 Normal termination of Gaussian 16 at Thu Dec 10 09:45:35 2020.

 ----------------------------------------------------------------------
 # B3LYP/6-311++G(d,p) empiricaldispersion=gd3bj scf=xqc pop=npa geom=c
 heck
 ----------------------------------------------------------------------

 -------------------------------------
 CID_131481543_JID_4323_Energie_kation
 -------------------------------------
 Structure from the checkpoint file:  "JID_4323.chk"
 Charge =  1 Multiplicity = 2

 SCF Done:  E(UB3LYP) =  -611.008219741     A.U. after   27 cycles
 Normal termination of Gaussian 16 at Thu Dec 10 09:54:30 2020.
 Gaussian 16:  ES64L-G16RevA.03 25-Dec-2016

 ----------------------------------------------------------------------
 # B3LYP/6-311++G(d,p) empiricaldispersion=gd3bj scf=xqc pop=npa geom=c
 heck
 ----------------------------------------------------------------------

 ------------------------------------
 CID_131481543_JID_4323_Energie_anion
 ------------------------------------
 Structure from the checkpoint file:  "JID_4323.chk"
 Charge = -1 Multiplicity = 2

                         Standard orientation:
 ---------------------------------------------------------------------
 Center     Atomic      Atomic             Coordinates (Angstroms)
 Number     Number       Type             X           Y           Z
 ---------------------------------------------------------------------
      1          6           0       -3.777854    0.032952    0.684934
      2          6           0       -2.368360    0.023108    0.154778
      3          7           0       -1.837354   -1.137280   -0.114042
      4          6           0       -0.547846   -1.191566   -0.642596
      5          8           0       -0.139851   -2.205120   -1.185821
      6          6           0        0.332416    0.079111   -0.650491
      7          6           0       -0.362424    1.343395   -0.219080
      8          6           0       -1.696571    1.301373    0.031010
      9          6           0        0.455632    2.525363   -0.110142
     10          6           0        1.802244    2.398750    0.025777
     11          6           0        2.432825    1.097413    0.124522
     12          6           0        1.749067   -0.041928   -0.116978
     13          6           0        2.313360   -1.409492    0.147384
     14          7           0        1.595365   -1.957100    1.305450
     15          1           0       -3.821338    0.533087    1.660491
     16          1           0       -4.147422   -0.988728    0.781041
     17          1           0       -4.434670    0.594759    0.008199
     18          1           0        0.483901    0.220873   -1.738776
     19          1           0       -2.245755    2.207364    0.273193
     20          1           0       -0.027277    3.496462   -0.041636
     21          1           0        2.417512    3.284967    0.156848
     22          1           0        3.469391    1.046494    0.449091
     23          1           0        2.112308   -2.061832   -0.705193
     24          1           0        3.403900   -1.338032    0.282459
     25          1           0        1.566415   -2.971722    1.272921
     26          1           0        2.040832   -1.672951    2.173372
 ---------------------------------------------------------------------

 SCF Done:  E(UB3LYP) =  -611.332936205     A.U. after   24 cycles

 The electronic state is 2-A.
 Alpha  occ. eigenvalues --  -18.93096 -14.16965 -14.12616 -10.10594 -10.06318
 Alpha  occ. eigenvalues --  -10.06220 -10.03855 -10.03650 -10.03397 -10.02950
 Alpha  occ. eigenvalues --  -10.02753 -10.02441 -10.02303 -10.00958  -0.87771
 Alpha  occ. eigenvalues --   -0.76320  -0.76006  -0.70530  -0.63535  -0.61704
 Alpha  occ. eigenvalues --   -0.61036  -0.54917  -0.52916  -0.47188  -0.45557
 Alpha  occ. eigenvalues --   -0.42001  -0.37792  -0.37034  -0.35978  -0.33559
 Alpha  occ. eigenvalues --   -0.33421  -0.30937  -0.30077  -0.29390  -0.28895
 Alpha  occ. eigenvalues --   -0.27249  -0.26788  -0.26116  -0.24135  -0.23563
 Alpha  occ. eigenvalues --   -0.22187  -0.21809  -0.20279  -0.18441  -0.16752
 Alpha  occ. eigenvalues --   -0.12281  -0.11873  -0.11301  -0.08488  -0.06715
 Alpha  occ. eigenvalues --    0.02209
 Alpha virt. eigenvalues --    0.08469   0.09118   0.09526   0.10750   0.10888
 Alpha virt. eigenvalues --    0.11393   0.11992   0.12454   0.13244   0.13550
 Alpha virt. eigenvalues --    0.14231   0.15512   0.15699   0.15896   0.16824

  Beta  occ. eigenvalues --  -18.92995 -14.16919 -14.12415 -10.10536 -10.06336
  Beta  occ. eigenvalues --  -10.05989 -10.03906 -10.03664 -10.03051 -10.02867
  Beta  occ. eigenvalues --  -10.02635 -10.02340 -10.02074 -10.00915  -0.87562
  Beta  occ. eigenvalues --   -0.75981  -0.75776  -0.70082  -0.63085  -0.61350
  Beta  occ. eigenvalues --   -0.60666  -0.54759  -0.52861  -0.46530  -0.45245
  Beta  occ. eigenvalues --   -0.41630  -0.37665  -0.36901  -0.35679  -0.33234
  Beta  occ. eigenvalues --   -0.33146  -0.30718  -0.29729  -0.29102  -0.28723
  Beta  occ. eigenvalues --   -0.27002  -0.26608  -0.25981  -0.23942  -0.23319
  Beta  occ. eigenvalues --   -0.21637  -0.21387  -0.19876  -0.17418  -0.15673
  Beta  occ. eigenvalues --   -0.11814  -0.11486  -0.10642  -0.08218  -0.05492
  Beta virt. eigenvalues --    0.07799   0.08619   0.09118   0.09527   0.10860
  Beta virt. eigenvalues --    0.11344   0.11681   0.12095   0.12580   0.13326
  Beta virt. eigenvalues --    0.13692   0.14248   0.15552   0.15819   0.16398

 Mulliken charges and spin densities:
               1          2
     1  C   -0.705169  -0.017379
     2  C   -0.174107   0.106537
     3  N   -0.077841   0.106132
     4  C   -0.380808   0.020490
     5  O   -0.343831   0.037933
     6  C    0.079933   0.096916
     7  C   -0.348005   0.259668
     8  C    0.659784   0.020601
     9  C    0.006672  -0.080135
    10  C   -0.740052   0.284392
    11  C    0.019361  -0.045443
    12  C    0.580322   0.178198
    13  C   -0.875181  -0.138072
    14  N   -0.350014  -0.010286
    15  H    0.125540   0.006192
    16  H    0.135630  -0.000130
    17  H    0.123788   0.006118
    18  H    0.133557   0.140807
    19  H    0.116312  -0.002174
    20  H    0.106238   0.004485
    21  H    0.097824  -0.019252
    22  H    0.106938   0.009784
    23  H    0.221851   0.017219
    24  H    0.086762  -0.000758
    25  H    0.196254   0.010985
    26  H    0.198241   0.007171
 Sum of Mulliken charges =  -1.00000   1.00000

 Dipole moment (field-independent basis, Debye):
    X=              1.9534    Y=              2.1313    Z=              2.2004  Tot=              3.6332
 Quadrupole moment (field-independent basis, Debye-Ang):
   XX=           -101.2926   YY=           -107.4261   ZZ=            -93.4412
   XY=            -10.0792   XZ=              1.7115   YZ=             -4.8059

 Summary of Natural Population Analysis:

                                       Natural Population
                Natural  -----------------------------------------------
    Atom  No    Charge         Core      Valence    Rydberg      Total
 -----------------------------------------------------------------------
      C    1   -0.30099      0.99964     2.29688    0.00447     3.30099
      C    2    0.18325      0.99959     1.80230    0.01486     2.81675
      N    3   -0.26710      0.99962     2.75344    0.01404     3.76710
      C    4    0.36227      0.99965     1.61263    0.02545     2.63773
      O    5   -0.31369      0.99987     3.30716    0.00666     4.31369
      C    6   -0.18846      0.99947     2.17604    0.01295     3.18846
      C    7    0.08445      0.99950     1.90730    0.00875     2.91555
      C    8   -0.15243      0.99944     2.14431    0.00867     3.15243
      C    9   -0.12940      0.99952     2.12040    0.00949     3.12940
      C   10   -0.02022      0.99956     2.01069    0.00996     3.02022
      C   11   -0.16461      0.99947     2.15575    0.00939     3.16461
      C   12    0.10187      0.99948     1.88799    0.01066     2.89813
      C   13   -0.11104      0.99957     2.10177    0.00970     3.11104
      N   14   -0.41072      0.99977     2.90119    0.00976     3.91072
      H   15    0.09820      0.00000     0.40083    0.00097     0.40180
      H   16    0.10488      0.00000     0.39399    0.00113     0.39512
      H   17    0.09849      0.00000     0.40055    0.00096     0.40151
      H   18    0.14484      0.00000     0.35346    0.00170     0.35516
      H   19    0.08977      0.00000     0.40873    0.00150     0.41023
      H   20    0.09075      0.00000     0.40759    0.00166     0.40925
      H   21    0.08361      0.00000     0.41474    0.00165     0.41639
      H   22    0.09007      0.00000     0.40823    0.00170     0.40993
      H   23    0.11188      0.00000     0.38622    0.00190     0.38812
      H   24    0.07474      0.00000     0.42359    0.00167     0.42526
      H   25    0.17169      0.00000     0.32483    0.00348     0.32831
      H   26    0.16790      0.00000     0.33051    0.00159     0.33210
 =======================================================================
   * Total *   -0.00000     13.99415    35.83112    0.17473    50.00000

 Normal termination of Gaussian 16 at Thu Dec 10 10:02:30 2020.
