 Gaussian 16, Revision A.03,

 -----------------------------------------------------------
 # opt freq B3LYP/6-31G(d) empiricaldispersion=gd3bj scf=xqc
 -----------------------------------------------------------

 -------------------------------
 CID_135275527_JID_5347_neutraal
 -------------------------------
 Symbolic Z-matrix:
 Charge =  0 Multiplicity = 1

 SCF Done:  E(RB3LYP) =  -664.917177486     A.U. after   15 cycles
 SCF Done:  E(RB3LYP) =  -664.966636842     A.U. after   13 cycles
 SCF Done:  E(RB3LYP) =  -664.973786642     A.U. after   13 cycles
 SCF Done:  E(RB3LYP) =  -664.975150997     A.U. after   12 cycles
 SCF Done:  E(RB3LYP) =  -664.975925922     A.U. after   13 cycles
 SCF Done:  E(RB3LYP) =  -664.976639489     A.U. after   13 cycles
 SCF Done:  E(RB3LYP) =  -664.977422449     A.U. after   13 cycles
 SCF Done:  E(RB3LYP) =  -664.975439274     A.U. after   15 cycles
 SCF Done:  E(RB3LYP) =  -664.980493129     A.U. after   13 cycles
 SCF Done:  E(RB3LYP) =  -664.982565024     A.U. after   13 cycles
 SCF Done:  E(RB3LYP) =  -664.993320029     A.U. after   10 cycles
 SCF Done:  E(RB3LYP) =  -664.993328871     A.U. after   11 cycles
 SCF Done:  E(RB3LYP) =  -664.993336557     A.U. after   10 cycles
 SCF Done:  E(RB3LYP) =  -664.993340519     A.U. after   10 cycles
 SCF Done:  E(RB3LYP) =  -664.993341639     A.U. after    9 cycles
 SCF Done:  E(RB3LYP) =  -664.993341743     A.U. after    8 cycles
 Optimization completed.
    -- Stationary point found.
 Normal termination of Gaussian 16 at Thu Dec 10 15:50:46 2020.

 --------------------------------------------------------------------
 #N Geom=AllCheck Guess=TCheck SCRF=Check GenChk RB3LYP/6-31G(d) Freq
 --------------------------------------------------------------------

 Structure from the checkpoint file:  "JID_5347.chk"
 -------------------------------
 CID_135275527_JID_5347_neutraal
 -------------------------------
 Charge =  0 Multiplicity = 1

 SCF Done:  E(RB3LYP) =  -664.993341743     A.U. after    1 cycles

  Exact polarizability: 133.226   3.128 130.594  -6.178   0.893 118.181
 Approx polarizability: 182.494   9.127 189.386 -17.399   1.606 184.889

                      1                      2                      3
                      A                      A                      A
 Frequencies --     30.8796                41.5940                55.1475
 Red. masses --      3.9162                 4.9731                 3.0706
 Frc consts  --      0.0022                 0.0051                 0.0055
 IR Inten    --      0.2549                 1.7828                 0.5399

                      4                      5                      6
                      A                      A                      A
 Frequencies --     74.8618               104.1271               113.0325
 Red. masses --      4.8179                 7.6079                 3.2754
 Frc consts  --      0.0159                 0.0486                 0.0247
 IR Inten    --      0.6843                 4.1201                 4.4061

                      7                      8                      9
                      A                      A                      A
 Frequencies --    141.8002               170.6598               184.0196
 Red. masses --      3.3281                 3.5569                 3.1890
 Frc consts  --      0.0394                 0.0610                 0.0636
 IR Inten    --      6.4132                 0.6065                 6.0372

                     10                     11                     12
                      A                      A                      A
 Frequencies --    203.3988               236.0946               245.5645
 Red. masses --      5.6261                 1.5299                 3.0985
 Frc consts  --      0.1371                 0.0502                 0.1101
 IR Inten    --      5.4277                 2.1693                 3.9518

                     13                     14                     15
                      A                      A                      A
 Frequencies --    290.3557               302.2737               325.0367
 Red. masses --      4.5289                 1.5814                 2.7021
 Frc consts  --      0.2250                 0.0851                 0.1682
 IR Inten    --      4.9731                 0.0323                 4.7275

                     16                     17                     18
                      A                      A                      A
 Frequencies --    355.7038               431.4636               459.1564
 Red. masses --      2.3209                 2.3406                 4.2160
 Frc consts  --      0.1730                 0.2567                 0.5237
 IR Inten    --      2.0105                 5.9859                 0.4125

                     19                     20                     21
                      A                      A                      A
 Frequencies --    481.1836               499.2982               517.8407
 Red. masses --      9.2395                 2.9336                 4.4136
 Frc consts  --      1.2604                 0.4309                 0.6973
 IR Inten    --      2.3758                 1.1200                 3.5412

                     22                     23                     24
                      A                      A                      A
 Frequencies --    555.9865               572.2807               621.0509
 Red. masses --      5.9899                 4.3690                 3.0279
 Frc consts  --      1.0909                 0.8430                 0.6881
 IR Inten    --     13.1286                 7.1250                 4.5338

                     25                     26                     27
                      A                      A                      A
 Frequencies --    695.9097               738.3429               780.2056
 Red. masses --      4.3868                 1.2803                 1.3447
 Frc consts  --      1.2517                 0.4112                 0.4823
 IR Inten    --      3.3997                 4.0024                 3.1867

                     28                     29                     30
                      A                      A                      A
 Frequencies --    816.3551               835.5366               858.2641
 Red. masses --      1.9839                 2.5901                 2.7108
 Frc consts  --      0.7790                 1.0654                 1.1765
 IR Inten    --      3.5722                21.0313                53.0281

                     31                     32                     33
                      A                      A                      A
 Frequencies --    875.4805               892.4600               927.6390
 Red. masses --      3.2677                 1.8262                 3.3380
 Frc consts  --      1.4757                 0.8570                 1.6924
 IR Inten    --     14.7715                 4.7602                 9.4873

                     34                     35                     36
                      A                      A                      A
 Frequencies --    954.2956               971.5319               989.3125
 Red. masses --      2.8041                 2.2700                 3.0922
 Frc consts  --      1.5045                 1.2624                 1.7831
 IR Inten    --      0.8907                 4.3161                 4.1315

                     37                     38                     39
                      A                      A                      A
 Frequencies --   1004.2729              1028.0426              1045.6312
 Red. masses --      2.2883                 2.7752                 2.1124
 Frc consts  --      1.3598                 1.7281                 1.3608
 IR Inten    --      3.4632                 4.2212                 7.9035

                     40                     41                     42
                      A                      A                      A
 Frequencies --   1063.2939              1080.6712              1088.9565
 Red. masses --      2.3029                 2.0679                 2.2613
 Frc consts  --      1.5340                 1.4228                 1.5799
 IR Inten    --     12.6404                 6.5515                26.9540

                     43                     44                     45
                      A                      A                      A
 Frequencies --   1099.0533              1113.8906              1147.3977
 Red. masses --      2.2003                 2.2482                 1.9778
 Frc consts  --      1.5659                 1.6435                 1.5341
 IR Inten    --      1.9669                14.3827                 5.6118

                     46                     47                     48
                      A                      A                      A
 Frequencies --   1162.7754              1221.4704              1229.0429
 Red. masses --      1.9180                 1.4013                 1.4238
 Frc consts  --      1.5279                 1.2318                 1.2672
 IR Inten    --      1.7278                28.9956                 1.7511

                     49                     50                     51
                      A                      A                      A
 Frequencies --   1274.9921              1288.1965              1307.2009
 Red. masses --      1.3609                 1.6160                 1.1852
 Frc consts  --      1.3034                 1.5800                 1.1933
 IR Inten    --      0.2606                16.0413                 4.7237

                     52                     53                     54
                      A                      A                      A
 Frequencies --   1320.8663              1333.9437              1353.3334
 Red. masses --      1.2183                 1.1883                 1.2482
 Frc consts  --      1.2523                 1.2458                 1.3470
 IR Inten    --      7.2700                 0.4136                 6.2116

                     55                     56                     57
                      A                      A                      A
 Frequencies --   1364.1091              1376.9318              1393.3434
 Red. masses --      1.1327                 1.3555                 1.3976
 Frc consts  --      1.2419                 1.5142                 1.5986
 IR Inten    --      2.6272                12.7980                 5.2256

                     58                     59                     60
                      A                      A                      A
 Frequencies --   1396.2731              1411.9565              1414.0536
 Red. masses --      1.3915                 1.3608                 1.2984
 Frc consts  --      1.5984                 1.5984                 1.5297
 IR Inten    --     10.9640                17.0313                11.3083

                     61                     62                     63
                      A                      A                      A
 Frequencies --   1416.5870              1427.5703              1446.8147
 Red. masses --      1.4021                 1.4245                 1.2614
 Frc consts  --      1.6578                 1.7104                 1.5557
 IR Inten    --      7.8830                 9.0914                 3.4333

                     64                     65                     66
                      A                      A                      A
 Frequencies --   1503.5814              1512.5301              1514.5496
 Red. masses --      1.0990                 1.1214                 1.0952
 Frc consts  --      1.4639                 1.5115                 1.4801
 IR Inten    --      6.5334                 2.6990                 6.8784

                     67                     68                     69
                      A                      A                      A
 Frequencies --   1518.0451              1520.1587              1534.0669
 Red. masses --      1.0773                 1.0729                 1.0583
 Frc consts  --      1.4627                 1.4607                 1.4673
 IR Inten    --      0.2589                 1.6099                 7.5352

                     70                     71                     72
                      A                      A                      A
 Frequencies --   1540.8275              1543.6353              2370.8642
 Red. masses --      1.0733                 1.0725                12.6535
 Frc consts  --      1.5013                 1.5057                41.9059
 IR Inten    --      1.1944                12.0020                 1.4721

                     73                     74                     75
                      A                      A                      A
 Frequencies --   2375.6166              2994.0856              3008.5045
 Red. masses --     12.6630                 1.0824                 1.0638
 Frc consts  --     42.1055                 5.7171                 5.6729
 IR Inten    --      4.0583                22.4142                22.5724

                     76                     77                     78
                      A                      A                      A
 Frequencies --   3028.8189              3030.8163              3041.0021
 Red. masses --      1.0668                 1.0705                 1.0714
 Frc consts  --      5.7660                 5.7936                 5.8373
 IR Inten    --     16.1362                24.7382                16.8170

                     79                     80                     81
                      A                      A                      A
 Frequencies --   3042.3460              3051.7334              3066.8076
 Red. masses --      1.0511                 1.0838                 1.0983
 Frc consts  --      5.7321                 5.9470                 6.0860
 IR Inten    --     20.8007                72.7232                37.0815

                     82                     83                     84
                      A                      A                      A
 Frequencies --   3076.5645              3101.3829              3106.0837
 Red. masses --      1.0618                 1.0915                 1.0973
 Frc consts  --      5.9217                 6.1854                 6.2372
 IR Inten    --     31.8650                28.1019                47.9706

                     85                     86                     87
                      A                      A                      A
 Frequencies --   3108.6610              3119.5955              3124.9391
 Red. masses --      1.0957                 1.1000                 1.0864
 Frc consts  --      6.2387                 6.3073                 6.2509
 IR Inten    --     42.5418                22.8476                 8.4802

                     88                     89                     90
                      A                      A                      A
 Frequencies --   3137.6460              3315.0450              3502.1981
 Red. masses --      1.0994                 1.0755                 1.0759
 Frc consts  --      6.3768                 6.9636                 7.7747
 IR Inten    --     30.1029                19.7141                 3.5744

 - Thermochemistry -
 -------------------
 Temperature   298.150 Kelvin.  Pressure   1.00000 Atm.
 Atom     1 has atomic number  6 and mass  12.00000

 Molecular mass:   207.14840 amu.
 Principal axes and moments of inertia in atomic units:
                           1         2         3
     Eigenvalues --  2657.781483885.048394495.67255
           X            0.99937   0.01627   0.03144
           Y           -0.01668   0.99978   0.01286
           Z           -0.03122  -0.01338   0.99942
 This molecule is an asymmetric top.
 Rotational symmetry number  1.
 Warning -- assumption of classical behavior for rotation
           may cause significant error
 Rotational temperatures (Kelvin)      0.03259     0.02229     0.01927
 Rotational constants (GHZ):           0.67904     0.46454     0.40144
 Zero-point vibrational energy     723435.2 (Joules/Mol)
                                  172.90516 (Kcal/Mol)
 Warning -- explicit consideration of  23 degrees of freedom as
           vibrations may cause significant error
 Vibrational temperatures:     44.43    59.84    79.34   107.71   149.82
          (Kelvin)            162.63   204.02   245.54   264.76   292.65
                              339.69   353.31   417.76   434.90   467.66
                              511.78   620.78   660.62   692.32   718.38
                              745.06   799.94   823.38   893.55  1001.26
                             1062.31  1122.54  1174.55  1202.15  1234.85
                             1259.62  1284.05  1334.67  1373.02  1397.82
                             1423.40  1444.92  1479.12  1504.43  1529.84
                             1554.84  1566.77  1581.29  1602.64  1650.85
                             1672.97  1757.42  1768.32  1834.43  1853.43
                             1880.77  1900.43  1919.25  1947.14  1962.65
                             1981.10  2004.71  2008.93  2031.49  2034.51
                             2038.15  2053.96  2081.64  2163.32  2176.19
                             2179.10  2184.13  2187.17  2207.18  2216.91
                             2220.95  3411.14  3417.98  4307.82  4328.57
                             4357.79  4360.67  4375.32  4377.26  4390.76
                             4412.45  4426.49  4462.20  4468.96  4472.67
                             4488.40  4496.09  4514.37  4769.61  5038.88

 Zero-point correction=                           0.275542 (Hartree/Particle)
 Thermal correction to Energy=                    0.291125
 Thermal correction to Enthalpy=                  0.292069
 Thermal correction to Gibbs Free Energy=         0.231699
 Sum of electronic and zero-point Energies=           -664.717800
 Sum of electronic and thermal Energies=              -664.702216
 Sum of electronic and thermal Enthalpies=            -664.701272
 Sum of electronic and thermal Free Energies=         -664.761643

                     E (Thermal)             CV                S
                      KCal/Mol        Cal/Mol-Kelvin    Cal/Mol-Kelvin
 Total                  182.684             57.539            127.061
 Electronic               0.000              0.000              0.000
 Translational            0.889              2.981             41.889
 Rotational               0.889              2.981             32.207
 Vibrational            180.906             51.578             52.965
 Vibration     1          0.594              1.984              5.772
 Vibration     2          0.594              1.981              5.182
 Vibration     3          0.596              1.976              4.624
 Vibration     4          0.599              1.966              4.021
 Vibration     5          0.605              1.946              3.376
 Vibration     6          0.607              1.939              3.216
 Vibration     7          0.615              1.911              2.779
 Vibration     8          0.626              1.879              2.428
 Vibration     9          0.631              1.862              2.287
 Vibration    10          0.639              1.835              2.102
 Vibration    11          0.655              1.786              1.832
 Vibration    12          0.660              1.770              1.762
 Vibration    13          0.686              1.692              1.472
 Vibration    14          0.694              1.669              1.404
 Vibration    15          0.709              1.625              1.285
 Vibration    16          0.731              1.564              1.141
 Vibration    17          0.793              1.402              0.854
 Vibration    18          0.817              1.341              0.769
 Vibration    19          0.837              1.292              0.707
 Vibration    20          0.855              1.252              0.660
 Vibration    21          0.873              1.210              0.615
 Vibration    22          0.911              1.127              0.532
 Vibration    23          0.928              1.091              0.500

                           ! Non-Optimized Parameters !
 Normal termination of Gaussian 16 at Thu Dec 10 16:02:18 2020.

 ----------------------------------------------------------------------
 # B3LYP/6-311++G(d,p) empiricaldispersion=gd3bj scf=xqc pop=npa geom=c
 heck
 ----------------------------------------------------------------------

 ---------------------------------------
 CID_135275527_JID_5347_Energie_neutraal
 ---------------------------------------
 Structure from the checkpoint file:  "JID_5347.chk"
 Charge =  0 Multiplicity = 1

 SCF Done:  E(RB3LYP) =  -665.181807362     A.U. after   15 cycles
 Normal termination of Gaussian 16 at Thu Dec 10 16:08:53 2020.

 ----------------------------------------------------------------------
 # B3LYP/6-311++G(d,p) empiricaldispersion=gd3bj scf=xqc pop=npa geom=c
 heck
 ----------------------------------------------------------------------

 -------------------------------------
 CID_135275527_JID_5347_Energie_kation
 -------------------------------------
 Structure from the checkpoint file:  "JID_5347.chk"
 Charge =  1 Multiplicity = 2

 SCF Done:  E(UB3LYP) =  -664.847419325     A.U. after   24 cycles
 Normal termination of Gaussian 16 at Thu Dec 10 16:23:46 2020.
 Gaussian 16:  ES64L-G16RevA.03 25-Dec-2016

 ----------------------------------------------------------------------
 # B3LYP/6-311++G(d,p) empiricaldispersion=gd3bj scf=xqc pop=npa geom=c
 heck
 ----------------------------------------------------------------------

 ------------------------------------
 CID_135275527_JID_5347_Energie_anion
 ------------------------------------
 Structure from the checkpoint file:  "JID_5347.chk"
 Charge = -1 Multiplicity = 2

                         Standard orientation:
 ---------------------------------------------------------------------
 Center     Atomic      Atomic             Coordinates (Angstroms)
 Number     Number       Type             X           Y           Z
 ---------------------------------------------------------------------
      1          6           0        3.059146    1.605810    0.385136
      2          6           0        3.589693    0.177221    0.539638
      3          6           0        2.488193   -0.887263    0.641992
      4          6           0        1.665707   -1.066546   -0.640504
      5          6           0        0.643462   -2.211817   -0.579732
      6          6           0       -0.431179   -2.145256    0.516847
      7          7           0       -1.514849   -1.155493    0.388087
      8          6           0       -1.156342    0.263644    0.611662
      9          6           0       -1.536516    0.971526   -0.741151
     10          7           0       -1.559916   -0.189590   -1.647152
     11          7           0       -2.184263   -1.234328   -0.857587
     12          6           0       -0.565939    1.978726   -1.168004
     13          7           0        0.195243    2.781203   -1.517751
     14          6           0       -1.914111    0.838740    1.733013
     15          7           0       -2.522685    1.289082    2.612132
     16          1           0        2.501954    1.744875   -0.545852
     17          1           0        3.878522    2.332927    0.388054
     18          1           0        2.387769    1.865876    1.214380
     19          1           0        4.247054   -0.065633   -0.306897
     20          1           0        4.216157    0.121481    1.439449
     21          1           0        2.940790   -1.853986    0.904472
     22          1           0        1.833116   -0.627162    1.487528
     23          1           0        1.167325   -0.132669   -0.919675
     24          1           0        2.357737   -1.276997   -1.467301
     25          1           0        0.141756   -2.306475   -1.547743
     26          1           0        1.186711   -3.153419   -0.414726
     27          1           0       -0.935429   -3.114658    0.568551
     28          1           0        0.014115   -1.974907    1.502897
     29          1           0       -0.089738    0.374199    0.818890
     30          1           0       -2.517433    1.460404   -0.623959
     31          1           0       -2.123244   -0.020553   -2.480200
     32          1           0       -3.154558   -0.958131   -0.655359
 ---------------------------------------------------------------------

 SCF Done:  E(UB3LYP) =  -665.180047565     A.U. after   30 cycles

 The electronic state is 2-A.
 Alpha  occ. eigenvalues --  -14.26734 -14.25556 -14.24479 -14.22482 -14.22445
 Alpha  occ. eigenvalues --  -10.16819 -10.16058 -10.12208 -10.12117 -10.10865
 Alpha  occ. eigenvalues --  -10.08158 -10.07930 -10.07321 -10.07280 -10.06902
 Alpha  occ. eigenvalues --   -0.95270  -0.82397  -0.82142  -0.80055  -0.73986
 Alpha  occ. eigenvalues --   -0.72094  -0.68384  -0.63841  -0.60044  -0.59063
 Alpha  occ. eigenvalues --   -0.55002  -0.50969  -0.48143  -0.46629  -0.45270
 Alpha  occ. eigenvalues --   -0.43181  -0.39986  -0.38646  -0.37625  -0.36544
 Alpha  occ. eigenvalues --   -0.35330  -0.35027  -0.33459  -0.31937  -0.30973
 Alpha  occ. eigenvalues --   -0.30218  -0.28297  -0.28048  -0.27648  -0.26512
 Alpha  occ. eigenvalues --   -0.26330  -0.25874  -0.25255  -0.24678  -0.24081
 Alpha  occ. eigenvalues --   -0.23774  -0.23137  -0.22702  -0.20611  -0.16046
 Alpha  occ. eigenvalues --   -0.14126   0.04052
 Alpha virt. eigenvalues --    0.05772   0.07147   0.07577   0.08627   0.09055
 Alpha virt. eigenvalues --    0.09212   0.09585   0.09763   0.10281   0.10587
 Alpha virt. eigenvalues --    0.11244   0.11803   0.11862   0.12371   0.12779

  Beta  occ. eigenvalues --  -14.26666 -14.25551 -14.24401 -14.22435 -14.22412
  Beta  occ. eigenvalues --  -10.16806 -10.16006 -10.12187 -10.12114 -10.10859
  Beta  occ. eigenvalues --  -10.08150 -10.07916 -10.07312 -10.07272 -10.06897
  Beta  occ. eigenvalues --   -0.95205  -0.82304  -0.82082  -0.79975  -0.73871
  Beta  occ. eigenvalues --   -0.72073  -0.68347  -0.63786  -0.59872  -0.59016
  Beta  occ. eigenvalues --   -0.54944  -0.50922  -0.48077  -0.46520  -0.45188
  Beta  occ. eigenvalues --   -0.43084  -0.39815  -0.38584  -0.37568  -0.36518
  Beta  occ. eigenvalues --   -0.35298  -0.34955  -0.33404  -0.31902  -0.30953
  Beta  occ. eigenvalues --   -0.30189  -0.28225  -0.28001  -0.27616  -0.26485
  Beta  occ. eigenvalues --   -0.26293  -0.25820  -0.25161  -0.24527  -0.24054
  Beta  occ. eigenvalues --   -0.23742  -0.23081  -0.22678  -0.20525  -0.15992
  Beta  occ. eigenvalues --   -0.14043
  Beta virt. eigenvalues --    0.05908   0.07207   0.07639   0.07880   0.08736
  Beta virt. eigenvalues --    0.09225   0.09623   0.09722   0.10210   0.10363
  Beta virt. eigenvalues --    0.10822   0.11817   0.12006   0.12150   0.12472

 Mulliken charges and spin densities:
               1          2
     1  C   -0.435928  -0.048130
     2  C    0.071885  -0.519819
     3  C   -0.011140  -0.041144
     4  C   -0.548403   0.317021
     5  C    0.114843  -0.506067
     6  C   -0.347852   0.025991
     7  N    0.443422  -0.152815
     8  C   -1.355239   1.993299
     9  C    0.097336   0.310166
    10  N    0.012037  -0.440836
    11  N   -0.246574   0.156330
    12  C    0.729865  -1.175930
    13  N   -0.301855   0.059864
    14  C    1.820765  -2.850730
    15  N   -0.294564   0.090057
    16  H    0.107878   0.037285
    17  H    0.089515   0.057399
    18  H    0.093541   0.044601
    19  H    0.072542   0.035786
    20  H   -0.008704   0.151582
    21  H   -0.087628   0.248363
    22  H    0.049535   0.078036
    23  H    0.214864  -0.098160
    24  H   -0.043150   0.230035
    25  H    0.212999  -0.028861
    26  H   -0.003486   0.120159
    27  H   -0.054451   0.246881
    28  H    0.015332   0.128551
    29  H    0.235592  -0.059147
    30  H   -1.048160   1.368253
    31  H   -0.390513   0.734573
    32  H   -0.204305   0.487406
 Sum of Mulliken charges =  -1.00000   1.00000

 Dipole moment (field-independent basis, Debye):
    X=              7.8258    Y=             -2.8698    Z=              2.4098  Tot=              8.6767
 Quadrupole moment (field-independent basis, Debye-Ang):
   XX=           -159.3222   YY=           -132.0827   ZZ=           -135.8579
   XY=              5.4482   XZ=             -5.4997   YZ=              1.2154

 Summary of Natural Population Analysis:

                                       Natural Population
                Natural  -----------------------------------------------
    Atom  No    Charge         Core      Valence    Rydberg      Total
 -----------------------------------------------------------------------
      C    1   -0.28952      0.99966     2.28533    0.00453     3.28952
      C    2   -0.18697      0.99964     2.18052    0.00680     3.18697
      C    3   -0.19182      0.99963     2.18326    0.00893     3.19182
      C    4   -0.19804      0.99962     2.19030    0.00813     3.19804
      C    5   -0.20092      0.99961     2.19320    0.00810     3.20092
      C    6   -0.08023      0.99959     2.06985    0.01079     3.08023
      N    7   -0.18194      0.99971     2.66668    0.01555     3.68194
      C    8   -0.06509      0.99949     2.05260    0.01300     3.06509
      C    9   -0.07292      0.99950     2.05594    0.01747     3.07292
      N   10   -0.25102      0.99974     2.73546    0.01582     3.75102
      N   11   -0.14412      0.99976     2.62739    0.01697     3.64412
      C   12    0.16232      0.99963     1.82171    0.01634     2.83768
      N   13   -0.16837      0.99979     2.65836    0.01022     3.66837
      C   14    0.15853      0.99963     1.82403    0.01780     2.84147
      N   15   -0.16876      0.99979     2.65837    0.01061     3.66876
      H   16    0.10685      0.00000     0.39207    0.00108     0.39315
      H   17    0.09627      0.00000     0.40302    0.00071     0.40373
      H   18    0.09471      0.00000     0.40434    0.00095     0.40529
      H   19    0.09159      0.00000     0.40730    0.00112     0.40841
      H   20    0.09259      0.00000     0.40637    0.00104     0.40741
      H   21    0.09555      0.00000     0.40330    0.00115     0.40445
      H   22    0.08913      0.00000     0.40958    0.00129     0.41087
      H   23    0.10039      0.00000     0.39693    0.00269     0.39961
      H   24    0.09677      0.00000     0.40220    0.00103     0.40323
      H   25    0.11084      0.00000     0.38769    0.00147     0.38916
      H   26    0.09385      0.00000     0.40503    0.00112     0.40615
      H   27    0.10152      0.00000     0.39744    0.00103     0.39848
      H   28    0.09363      0.00000     0.40528    0.00109     0.40637
      H   29    0.12347      0.00000     0.37337    0.00315     0.37653
      H   30    0.12321      0.00000     0.36794    0.00886     0.37679
      H   31    0.19447      0.00000     0.29387    0.01166     0.30553
      H   32    0.17400      0.00000     0.31767    0.00832     0.32600
 =======================================================================
   * Total *   -0.00000     14.99479    40.77639    0.22882    56.00000

 Normal termination of Gaussian 16 at Thu Dec 10 16:46:28 2020.
