 Gaussian 16, Revision A.03,

 -----------------------------------------------------------
 # opt freq B3LYP/6-31G(d) empiricaldispersion=gd3bj scf=xqc
 -----------------------------------------------------------

 -------------------------------
 CID_117039388_JID_7660_neutraal
 -------------------------------
 Symbolic Z-matrix:
 Charge =  0 Multiplicity = 1

 SCF Done:  E(RB3LYP) =  -1091.56986928     A.U. after   14 cycles
 SCF Done:  E(RB3LYP) =  -1091.56273921     A.U. after   13 cycles
 SCF Done:  E(RB3LYP) =  -1091.57755956     A.U. after   12 cycles
 SCF Done:  E(RB3LYP) =  -1091.57815369     A.U. after   11 cycles
 SCF Done:  E(RB3LYP) =  -1091.57846511     A.U. after   12 cycles
 SCF Done:  E(RB3LYP) =  -1091.57853401     A.U. after   11 cycles
 SCF Done:  E(RB3LYP) =  -1091.57862601     A.U. after   11 cycles
 SCF Done:  E(RB3LYP) =  -1091.57863632     A.U. after   10 cycles
 SCF Done:  E(RB3LYP) =  -1091.57864238     A.U. after   10 cycles
 SCF Done:  E(RB3LYP) =  -1091.57864460     A.U. after    8 cycles
 SCF Done:  E(RB3LYP) =  -1091.57864555     A.U. after    8 cycles
 SCF Done:  E(RB3LYP) =  -1091.57864570     A.U. after    7 cycles
 SCF Done:  E(RB3LYP) =  -1091.57864578     A.U. after    7 cycles
 Optimization completed.
    -- Stationary point found.
 Normal termination of Gaussian 16 at Sun Dec 13 16:11:18 2020.

 --------------------------------------------------------------------
 #N Geom=AllCheck Guess=TCheck SCRF=Check GenChk RB3LYP/6-31G(d) Freq
 --------------------------------------------------------------------

 Structure from the checkpoint file:  "JID_7660.chk"
 -------------------------------
 CID_117039388_JID_7660_neutraal
 -------------------------------
 Charge =  0 Multiplicity = 1

 SCF Done:  E(RB3LYP) =  -1091.57864578     A.U. after    1 cycles

  Exact polarizability: 165.793  -7.628 169.049  11.628   3.788 143.680
 Approx polarizability: 221.359 -15.290 262.848  25.251  13.525 246.362

                      1                      2                      3
                      A                      A                      A
 Frequencies --     43.4899                53.6984                72.8190
 Red. masses --      3.8487                 5.2370                 6.6549
 Frc consts  --      0.0043                 0.0089                 0.0208
 IR Inten    --      0.2167                 0.0548                 0.5854

                      4                      5                      6
                      A                      A                      A
 Frequencies --     87.0216                96.3660               148.4252
 Red. masses --      4.0080                 3.0704                 3.0144
 Frc consts  --      0.0179                 0.0168                 0.0391
 IR Inten    --      0.4409                 2.6448                 0.5983

                      7                      8                      9
                      A                      A                      A
 Frequencies --    156.4856               173.4874               210.4952
 Red. masses --      3.4795                 4.9342                 3.0527
 Frc consts  --      0.0502                 0.0875                 0.0797
 IR Inten    --      0.9549                 0.5240                11.6215

                     10                     11                     12
                      A                      A                      A
 Frequencies --    238.4440               248.1722               264.4039
 Red. masses --      2.2733                 1.4127                 1.5155
 Frc consts  --      0.0762                 0.0513                 0.0624
 IR Inten    --      3.2082                43.3406                 0.6693

                     13                     14                     15
                      A                      A                      A
 Frequencies --    271.4813               293.5407               316.3218
 Red. masses --      1.8060                 2.2089                 2.9406
 Frc consts  --      0.0784                 0.1121                 0.1734
 IR Inten    --      3.5914                11.1407                 3.2990

                     16                     17                     18
                      A                      A                      A
 Frequencies --    351.8446               364.0911               371.4759
 Red. masses --      2.4084                 2.0923                 1.4587
 Frc consts  --      0.1757                 0.1634                 0.1186
 IR Inten    --      0.0903                12.7784                50.9043

                     19                     20                     21
                      A                      A                      A
 Frequencies --    415.4090               428.4316               441.7923
 Red. masses --      2.0043                 3.6827                 2.0490
 Frc consts  --      0.2038                 0.3983                 0.2356
 IR Inten    --     11.6561                 0.7290                 5.1399

                     22                     23                     24
                      A                      A                      A
 Frequencies --    447.4519               473.4217               481.7553
 Red. masses --      2.5231                 2.2026                 4.6890
 Frc consts  --      0.2976                 0.2909                 0.6412
 IR Inten    --      8.1296                 4.0456                 3.2607

                     25                     26                     27
                      A                      A                      A
 Frequencies --    489.1822               561.6459               572.9941
 Red. masses --      3.6348                 3.7234                 4.4269
 Frc consts  --      0.5125                 0.6920                 0.8564
 IR Inten    --      6.1241                 1.6922                 2.8606

                     28                     29                     30
                      A                      A                      A
 Frequencies --    597.7282               668.5972               699.0810
 Red. masses --      5.6035                 2.8879                 1.2874
 Frc consts  --      1.1795                 0.7606                 0.3707
 IR Inten    --      2.3415                 0.8936                47.4947

                     31                     32                     33
                      A                      A                      A
 Frequencies --    707.2635               733.8909               744.5617
 Red. masses --      2.8568                 3.4434                 6.9770
 Frc consts  --      0.8419                 1.0927                 2.2789
 IR Inten    --      6.2409                25.9425                 3.3145

                     34                     35                     36
                      A                      A                      A
 Frequencies --    760.9932               807.3308               839.8736
 Red. masses --      1.6008                 2.7451                 1.4028
 Frc consts  --      0.5462                 1.0542                 0.5830
 IR Inten    --      0.2784                 5.3256                 8.7923

                     37                     38                     39
                      A                      A                      A
 Frequencies --    859.2662               866.1097               878.5686
 Red. masses --      3.9113                 2.3299                 1.5121
 Frc consts  --      1.7015                 1.0298                 0.6877
 IR Inten    --      6.2411                10.6164                44.5587

                     40                     41                     42
                      A                      A                      A
 Frequencies --    911.6223               914.5632               943.9561
 Red. masses --      1.3229                 2.0198                 2.0524
 Frc consts  --      0.6478                 0.9954                 1.0775
 IR Inten    --      0.6319                37.3308                 4.1651

                     43                     44                     45
                      A                      A                      A
 Frequencies --    955.0924               976.2808               985.7331
 Red. masses --      1.9299                 1.9660                 2.2118
 Frc consts  --      1.0372                 1.1041                 1.2663
 IR Inten    --     25.5495                19.5205                19.9027

                     46                     47                     48
                      A                      A                      A
 Frequencies --   1012.9275              1052.1023              1062.4618
 Red. masses --      1.9592                 2.0730                 2.0440
 Frc consts  --      1.1844                 1.3520                 1.3594
 IR Inten    --     22.8055                24.1652                20.7588

                     49                     50                     51
                      A                      A                      A
 Frequencies --   1075.9675              1084.9652              1099.0421
 Red. masses --      2.1260                 2.3271                 1.8368
 Frc consts  --      1.4501                 1.6140                 1.3072
 IR Inten    --     46.9911                15.4312                 4.7500

                     52                     53                     54
                      A                      A                      A
 Frequencies --   1102.9761              1128.3745              1134.3175
 Red. masses --      2.0073                 1.5612                 1.5264
 Frc consts  --      1.4388                 1.1712                 1.1571
 IR Inten    --     11.8264                 1.5921                15.6726

                     55                     56                     57
                      A                      A                      A
 Frequencies --   1146.4224              1156.7300              1163.7569
 Red. masses --      2.6904                 1.4809                 1.6169
 Frc consts  --      2.0833                 1.1675                 1.2902
 IR Inten    --     17.4056                17.6173                 0.5723

                     58                     59                     60
                      A                      A                      A
 Frequencies --   1186.5489              1204.3580              1219.8510
 Red. masses --      1.6572                 1.8826                 1.1101
 Frc consts  --      1.3747                 1.6088                 0.9732
 IR Inten    --      6.0547                12.1544                 1.7482

                     61                     62                     63
                      A                      A                      A
 Frequencies --   1246.4674              1272.4398              1291.7503
 Red. masses --      1.2693                 1.5018                 1.6808
 Frc consts  --      1.1619                 1.4327                 1.6524
 IR Inten    --      7.1139                17.8798                27.4993

                     64                     65                     66
                      A                      A                      A
 Frequencies --   1296.4863              1326.7544              1357.6364
 Red. masses --      1.9260                 1.4960                 1.2313
 Frc consts  --      1.9074                 1.5516                 1.3372
 IR Inten    --     19.6589                33.5205                 1.8100

                     67                     68                     69
                      A                      A                      A
 Frequencies --   1363.9595              1379.0972              1385.0523
 Red. masses --      1.5001                 1.9201                 1.4729
 Frc consts  --      1.6443                 2.1517                 1.6648
 IR Inten    --      4.5498                 6.7154                 6.5086

                     70                     71                     72
                      A                      A                      A
 Frequencies --   1389.9598              1398.1044              1402.7577
 Red. masses --      1.3851                 1.5461                 1.3371
 Frc consts  --      1.5767                 1.7806                 1.5502
 IR Inten    --     10.4143                15.2847                 5.8682

                     73                     74                     75
                      A                      A                      A
 Frequencies --   1409.8312              1424.2053              1432.9582
 Red. masses --      1.3972                 1.4345                 1.3947
 Frc consts  --      1.6362                 1.7143                 1.6873
 IR Inten    --      1.8948                 8.5924                 9.3080

                     76                     77                     78
                      A                      A                      A
 Frequencies --   1450.9059              1463.0614              1482.2105
 Red. masses --      1.2925                 1.5417                 1.1647
 Frc consts  --      1.6031                 1.9443                 1.5076
 IR Inten    --     21.6677                18.3934                 2.9021

                     79                     80                     81
                      A                      A                      A
 Frequencies --   1494.2658              1501.9806              1502.8292
 Red. masses --      1.4860                 1.2616                 1.7505
 Frc consts  --      1.9550                 1.6769                 2.3293
 IR Inten    --      9.6879                 9.0897                 7.1326

                     82                     83                     84
                      A                      A                      A
 Frequencies --   1511.1955              1517.1593              1519.2522
 Red. masses --      1.0942                 1.1095                 1.0913
 Frc consts  --      1.4723                 1.5047                 1.4840
 IR Inten    --     10.3299                 4.0486                 8.2376

                     85                     86                     87
                      A                      A                      A
 Frequencies --   1527.7755              1538.5134              1560.7132
 Red. masses --      1.0962                 1.0920                 1.0554
 Frc consts  --      1.5076                 1.5229                 1.5147
 IR Inten    --      0.3723                 2.9953                 6.3898

                     88                     89                     90
                      A                      A                      A
 Frequencies --   1601.5011              1701.7587              2963.4860
 Red. masses --      4.7556                 1.0867                 1.0591
 Frc consts  --      7.1863                 1.8542                 5.4803
 IR Inten    --      0.4825                40.2796                61.2144

                     91                     92                     93
                      A                      A                      A
 Frequencies --   2991.4109              3003.2613              3020.5344
 Red. masses --      1.0711                 1.0837                 1.0728
 Frc consts  --      5.6473                 5.7590                 5.7670
 IR Inten    --     60.9399                37.4401                35.6010

                     94                     95                     96
                      A                      A                      A
 Frequencies --   3042.2688              3048.1365              3050.9123
 Red. masses --      1.0699                 1.0732                 1.0671
 Frc consts  --      5.8342                 5.8749                 5.8521
 IR Inten    --     35.8822                60.1798                38.2295

                     97                     98                     99
                      A                      A                      A
 Frequencies --   3058.8388              3062.6878              3088.4805
 Red. masses --      1.0628                 1.0651                 1.0995
 Frc consts  --      5.8588                 5.8863                 6.1790
 IR Inten    --     84.5948                 6.3265                32.2792

                    100                    101                    102
                      A                      A                      A
 Frequencies --   3088.8831              3093.5946              3100.2097
 Red. masses --      1.0970                 1.0946                 1.1016
 Frc consts  --      6.1667                 6.1722                 6.2380
 IR Inten    --     10.5421                60.4781                36.9959

                    103                    104                    105
                      A                      A                      A
 Frequencies --   3114.1155              3116.2404              3126.1970
 Red. masses --      1.0892                 1.0921                 1.0953
 Frc consts  --      6.2237                 6.2484                 6.3070
 IR Inten    --      9.4459                26.0844                25.9264

                    106                    107                    108
                      A                      A                      A
 Frequencies --   3220.7127              3246.6374              3273.6590
 Red. masses --      1.0895                 1.0936                 1.0971
 Frc consts  --      6.6588                 6.7920                 6.9274
 IR Inten    --      8.2435                 4.2136                 1.1384

                    109                    110                    111
                      A                      A                      A
 Frequencies --   3479.1163              3559.1624              3711.1113
 Red. masses --      1.0502                 1.0923                 1.0658
 Frc consts  --      7.4898                 8.1525                 8.6487
 IR Inten    --      1.6422                 0.2817                60.7046

 - Thermochemistry -
 -------------------
 Temperature   298.150 Kelvin.  Pressure   1.00000 Atm.
 Atom     1 has atomic number  6 and mass  12.00000

 Molecular mass:   254.14529 amu.
 Principal axes and moments of inertia in atomic units:
                           1         2         3
     Eigenvalues --  3015.987194960.434616465.89783
           X            0.99978   0.02025   0.00614
           Y           -0.02025   0.99979  -0.00061
           Z           -0.00615   0.00049   0.99998
 This molecule is an asymmetric top.
 Rotational symmetry number  1.
 Warning -- assumption of classical behavior for rotation
           may cause significant error
 Rotational temperatures (Kelvin)      0.02872     0.01746     0.01340
 Rotational constants (GHZ):           0.59839     0.36383     0.27912
 Zero-point vibrational energy     902975.4 (Joules/Mol)
                                  215.81630 (Kcal/Mol)
 Warning -- explicit consideration of  28 degrees of freedom as
           vibrations may cause significant error
 Vibrational temperatures:     62.57    77.26   104.77   125.20   138.65
          (Kelvin)            213.55   225.15   249.61   302.86   343.07
                              357.06   380.42   390.60   422.34   455.12
                              506.23   523.85   534.47   597.68   616.42
                              635.64   643.78   681.15   693.14   703.82
                              808.08   824.41   860.00   961.96  1005.82
                             1017.59  1055.91  1071.26  1094.90  1161.57
                             1208.39  1236.29  1246.14  1264.06  1311.62
                             1315.85  1358.14  1374.16  1404.65  1418.25
                             1457.38  1513.74  1528.65  1548.08  1561.02
                             1581.28  1586.94  1623.48  1632.03  1649.45
                             1664.28  1674.39  1707.18  1732.80  1755.09
                             1793.39  1830.76  1858.54  1865.35  1908.90
                             1953.34  1962.43  1984.21  1992.78  1999.84
                             2011.56  2018.26  2028.43  2049.11  2061.71
                             2087.53  2105.02  2132.57  2149.92  2161.02
                             2162.24  2174.27  2182.85  2185.87  2198.13
                             2213.58  2245.52  2304.20  2448.45  4263.80
                             4303.97  4321.02  4345.88  4377.15  4385.59
                             4389.58  4400.99  4406.52  4443.63  4444.21
                             4450.99  4460.51  4480.52  4483.57  4497.90
                             4633.89  4671.19  4710.07  5005.67  5120.84
                             5339.46

 Zero-point correction=                           0.343925 (Hartree/Particle)
 Thermal correction to Energy=                    0.361068
 Thermal correction to Enthalpy=                  0.362012
 Thermal correction to Gibbs Free Energy=         0.299882
 Sum of electronic and zero-point Energies=          -1091.234721
 Sum of electronic and thermal Energies=             -1091.217578
 Sum of electronic and thermal Enthalpies=           -1091.216634
 Sum of electronic and thermal Free Energies=        -1091.278764

                     E (Thermal)             CV                S
                      KCal/Mol        Cal/Mol-Kelvin    Cal/Mol-Kelvin
 Total                  226.574             68.060            130.765
 Electronic               0.000              0.000              0.000
 Translational            0.889              2.981             42.498
 Rotational               0.889              2.981             32.936
 Vibrational            224.796             62.099             55.330
 Vibration     1          0.595              1.980              5.093
 Vibration     2          0.596              1.976              4.676
 Vibration     3          0.599              1.967              4.076
 Vibration     4          0.601              1.958              3.726
 Vibration     5          0.603              1.952              3.527
 Vibration     6          0.618              1.904              2.692
 Vibration     7          0.620              1.895              2.592
 Vibration     8          0.627              1.875              2.397
 Vibration     9          0.643              1.825              2.039
 Vibration    10          0.656              1.782              1.814
 Vibration    11          0.662              1.766              1.744
 Vibration    12          0.671              1.738              1.633
 Vibration    13          0.675              1.726              1.587
 Vibration    14          0.688              1.686              1.453
 Vibration    15          0.703              1.642              1.329
 Vibration    16          0.728              1.571              1.158
 Vibration    17          0.738              1.546              1.105
 Vibration    18          0.743              1.531              1.074
 Vibration    19          0.779              1.437              0.908
 Vibration    20          0.790              1.408              0.864
 Vibration    21          0.802              1.379              0.821
 Vibration    22          0.807              1.367              0.804
 Vibration    23          0.830              1.309              0.728
 Vibration    24          0.838              1.291              0.705
 Vibration    25          0.845              1.274              0.686
 Vibration    26          0.917              1.114              0.521
 Vibration    27          0.929              1.090              0.499
 Vibration    28          0.956              1.037              0.454

 Optimization completed.
    -- Stationary point found.
 Normal termination of Gaussian 16 at Sun Dec 13 16:32:15 2020.

 ----------------------------------------------------------------------
 # B3LYP/6-311++G(d,p) empiricaldispersion=gd3bj scf=xqc pop=npa geom=c
 heck
 ----------------------------------------------------------------------

 ---------------------------------------
 CID_117039388_JID_7660_Energie_neutraal
 ---------------------------------------
 Structure from the checkpoint file:  "JID_7660.chk"
 Charge =  0 Multiplicity = 1

 SCF Done:  E(RB3LYP) =  -1091.81185803     A.U. after   16 cycles
 Normal termination of Gaussian 16 at Sun Dec 13 16:42:57 2020.

 ----------------------------------------------------------------------
 # B3LYP/6-311++G(d,p) empiricaldispersion=gd3bj scf=xqc pop=npa geom=c
 heck
 ----------------------------------------------------------------------

 -------------------------------------
 CID_117039388_JID_7660_Energie_kation
 -------------------------------------
 Structure from the checkpoint file:  "JID_7660.chk"
 Charge =  1 Multiplicity = 2

 SCF Done:  E(UB3LYP) =  -1091.53931660     A.U. after   26 cycles
 Normal termination of Gaussian 16 at Sun Dec 13 17:06:57 2020.
 Gaussian 16:  ES64L-G16RevA.03 25-Dec-2016

 ----------------------------------------------------------------------
 # B3LYP/6-311++G(d,p) empiricaldispersion=gd3bj scf=xqc pop=npa geom=c
 heck
 ----------------------------------------------------------------------

 ------------------------------------
 CID_117039388_JID_7660_Energie_anion
 ------------------------------------
 Structure from the checkpoint file:  "JID_7660.chk"
 Charge = -1 Multiplicity = 2

                         Standard orientation:
 ---------------------------------------------------------------------
 Center     Atomic      Atomic             Coordinates (Angstroms)
 Number     Number       Type             X           Y           Z
 ---------------------------------------------------------------------
      1          6           0        1.046648    3.194287    0.486135
      2          7           0        0.454223    2.245457   -0.431268
      3          6           0        1.377443    1.358516   -1.110155
      4          6           0        2.036001    0.245287   -0.311091
      5          6           0        2.627554    0.281615    0.925330
      6          6           0        3.141321   -0.981663    1.356183
      7          6           0        2.954297   -1.974701    0.437190
      8         16           0        2.143128   -1.373488   -0.976355
      9          6           0       -0.925057    1.859154   -0.093374
     10          6           0       -1.140931    1.096213    1.239564
     11          6           0       -0.970019   -0.427491    1.162908
     12          6           0       -1.721510   -1.123016    0.010511
     13          6           0       -1.502407   -0.366500   -1.315258
     14          6           0       -1.677008    1.158260   -1.238714
     15          6           0       -3.208796   -1.378817    0.315244
     16          7           0       -4.012110   -0.162870    0.499938
     17          8           0       -1.222088   -2.464273   -0.127119
     18          1           0        1.985194    3.572723    0.064809
     19          1           0        1.268724    2.801148    1.494068
     20          1           0        0.366017    4.045389    0.618455
     21          1           0        0.869317    0.922448   -1.974061
     22          1           0        2.175250    1.991080   -1.525276
     23          1           0        2.691849    1.182447    1.522434
     24          1           0        3.629405   -1.138556    2.311922
     25          1           0        3.246463   -3.013928    0.498343
     26          1           0       -1.420540    2.831011    0.043789
     27          1           0       -2.155597    1.338669    1.573280
     28          1           0       -0.468252    1.493891    2.008784
     29          1           0       -1.271380   -0.890032    2.112286
     30          1           0        0.094049   -0.652656    1.044934
     31          1           0       -0.493384   -0.618896   -1.657353
     32          1           0       -2.184647   -0.775177   -2.070477
     33          1           0       -2.740322    1.356839   -1.082325
     34          1           0       -1.391744    1.621620   -2.191513
     35          1           0       -3.615145   -1.923637   -0.543419
     36          1           0       -3.244534   -2.068453    1.174223
     37          1           0       -4.997386   -0.397274    0.398814
     38          1           0       -3.907387    0.178040    1.453028
     39          1           0       -0.269311   -2.391675   -0.303643
 ---------------------------------------------------------------------

 SCF Done:  E(UB3LYP) =  -1091.80026640     A.U. after   33 cycles
 SCF Done:  E(UB3LYP) =  -1091.80026640     a.u. after    1 cycles

 The electronic state is 2-A.
 Alpha  occ. eigenvalues --  -88.77614 -19.01293 -14.20123 -14.19146 -10.11944
 Alpha  occ. eigenvalues --  -10.10850 -10.09751 -10.09638 -10.09576 -10.08678
 Alpha  occ. eigenvalues --  -10.08622 -10.07955 -10.07120 -10.06093 -10.05777
 Alpha  occ. eigenvalues --  -10.05750 -10.05591  -7.86256  -5.82531  -5.82173
 Alpha  occ. eigenvalues --   -5.81877  -0.91810  -0.82436  -0.78189  -0.77941
 Alpha  occ. eigenvalues --   -0.70973  -0.66028  -0.64207  -0.63666  -0.63190
 Alpha  occ. eigenvalues --   -0.59506  -0.57438  -0.53090  -0.51607  -0.47533
 Alpha  occ. eigenvalues --   -0.46548  -0.44693  -0.43064  -0.41092  -0.40290
 Alpha  occ. eigenvalues --   -0.39392  -0.38592  -0.36221  -0.34598  -0.34179
 Alpha  occ. eigenvalues --   -0.33463  -0.32907  -0.31936  -0.31221  -0.30832
 Alpha  occ. eigenvalues --   -0.29847  -0.29415  -0.28839  -0.28256  -0.27363
 Alpha  occ. eigenvalues --   -0.26838  -0.26171  -0.26066  -0.25296  -0.24401
 Alpha  occ. eigenvalues --   -0.23041  -0.22321  -0.21526  -0.20567  -0.16472
 Alpha  occ. eigenvalues --   -0.16023  -0.14168  -0.13812  -0.10406   0.04311
 Alpha virt. eigenvalues --    0.05889   0.06758   0.07054   0.07926   0.08356
 Alpha virt. eigenvalues --    0.08802   0.09008   0.09397   0.10133   0.10764
 Alpha virt. eigenvalues --    0.11180   0.11451   0.11665   0.12045   0.12574

  Beta  occ. eigenvalues --  -88.77602 -19.01287 -14.20116 -14.19098 -10.11945
  Beta  occ. eigenvalues --  -10.10849 -10.09633 -10.09570 -10.09533 -10.08647
  Beta  occ. eigenvalues --  -10.08609 -10.07950 -10.07099 -10.06090 -10.05770
  Beta  occ. eigenvalues --  -10.05734 -10.05584  -7.86245  -5.82527  -5.82169
  Beta  occ. eigenvalues --   -5.81834  -0.91796  -0.82408  -0.78110  -0.77829
  Beta  occ. eigenvalues --   -0.70950  -0.65913  -0.64181  -0.63603  -0.63113
  Beta  occ. eigenvalues --   -0.59419  -0.57387  -0.53030  -0.51585  -0.47480
  Beta  occ. eigenvalues --   -0.46420  -0.44612  -0.42982  -0.41061  -0.40227
  Beta  occ. eigenvalues --   -0.39352  -0.38528  -0.36191  -0.34560  -0.34144
  Beta  occ. eigenvalues --   -0.33419  -0.32870  -0.31847  -0.31169  -0.30784
  Beta  occ. eigenvalues --   -0.29773  -0.29366  -0.28783  -0.28141  -0.27336
  Beta  occ. eigenvalues --   -0.26807  -0.26131  -0.25941  -0.25248  -0.24345
  Beta  occ. eigenvalues --   -0.23014  -0.22299  -0.21499  -0.20543  -0.16459
  Beta  occ. eigenvalues --   -0.15798  -0.14110  -0.13273  -0.10347
  Beta virt. eigenvalues --    0.06493   0.06975   0.07220   0.07665   0.08176
  Beta virt. eigenvalues --    0.08631   0.09177   0.09405   0.09659   0.10362
  Beta virt. eigenvalues --    0.10889   0.11285   0.11625   0.12014   0.12274

 Mulliken charges and spin densities:
               1          2
     1  C    0.499380  -0.711337
     2  N    0.123282   0.110574
     3  C    1.327552  -2.299418
     4  C   -0.829399   1.564601
     5  C   -0.132131  -0.419068
     6  C    0.201358  -0.329582
     7  C   -0.422983  -0.093756
     8  S   -0.230784   0.508668
     9  C   -0.974637   0.959885
    10  C    0.915536  -1.304352
    11  C   -0.611593   0.523782
    12  C   -0.299179  -0.052256
    13  C   -0.015424   0.291798
    14  C   -0.360454  -0.597652
    15  C    0.432782  -0.992466
    16  N   -0.390551  -0.011742
    17  O   -0.162572   0.004077
    18  H   -0.244611   0.383148
    19  H   -0.021202   0.116747
    20  H   -0.212345   0.357470
    21  H    0.194371  -0.049550
    22  H   -0.148756   0.356375
    23  H   -0.280921   0.431515
    24  H   -0.197324   0.352259
    25  H    0.131557   0.084908
    26  H   -0.040891   0.238963
    27  H   -0.112348   0.198942
    28  H    0.120649   0.028241
    29  H    0.022282   0.181888
    30  H    0.231824  -0.112794
    31  H    0.036062   0.060963
    32  H    0.155842   0.014711
    33  H    0.196076   0.039003
    34  H    0.039010   0.122831
    35  H    0.062749   0.116140
    36  H    0.021153   0.160267
    37  H   -0.219120   0.481111
    38  H   -0.069704   0.294263
    39  H    0.265463  -0.009158
 Sum of Mulliken charges =  -1.00000   1.00000

 Dipole moment (field-independent basis, Debye):
    X=              2.5622    Y=             -2.7381    Z=             -2.1201  Tot=              4.3078
 Quadrupole moment (field-independent basis, Debye-Ang):
   XX=           -190.9172   YY=           -159.2988   ZZ=           -142.9938
   XY=             -9.0795   XZ=              4.7233   YZ=              0.3361

 Summary of Natural Population Analysis:

                                       Natural Population
                Natural  -----------------------------------------------
    Atom  No    Charge         Core      Valence    Rydberg      Total
 -----------------------------------------------------------------------
      C    1   -0.17330      0.99963     2.16534    0.00833     3.17330
      N    2   -0.28021      0.99971     2.76545    0.01505     3.78021
      C    3   -0.09768      0.99954     2.08350    0.01464     3.09768
      C    4   -0.08615      0.99949     2.07309    0.01356     3.08615
      C    5   -0.13287      0.99945     2.12271    0.01071     3.13287
      C    6   -0.12459      0.99953     2.11406    0.01099     3.12459
      C    7   -0.18498      0.99953     2.17473    0.01072     3.18498
      S    8    0.18803      4.99939     2.79261    0.01996     7.81197
      C    9    0.00437      0.99956     1.98223    0.01384     2.99563
      C   10   -0.19821      0.99960     2.18928    0.00933     3.19821
      C   11   -0.20808      0.99957     2.19785    0.01065     3.20808
      C   12    0.13067      0.99950     1.85505    0.01478     2.86933
      C   13   -0.20113      0.99957     2.19180    0.00976     3.20113
      C   14   -0.20148      0.99960     2.19333    0.00855     3.20148
      C   15   -0.09026      0.99956     2.07706    0.01365     3.09026
      N   16   -0.42533      0.99977     2.91460    0.01096     3.92533
      O   17   -0.38260      0.99989     3.37646    0.00625     4.38260
      H   18    0.09622      0.00000     0.40257    0.00121     0.40378
      H   19    0.07923      0.00000     0.41889    0.00188     0.42077
      H   20    0.09291      0.00000     0.40594    0.00115     0.40709
      H   21    0.10035      0.00000     0.39837    0.00128     0.39965
      H   22    0.10457      0.00000     0.39394    0.00149     0.39543
      H   23    0.10973      0.00000     0.38883    0.00144     0.39027
      H   24    0.10495      0.00000     0.39420    0.00084     0.39505
      H   25    0.10648      0.00000     0.39279    0.00073     0.39352
      H   26    0.09502      0.00000     0.40364    0.00134     0.40498
      H   27    0.09795      0.00000     0.40032    0.00173     0.40205
      H   28    0.10003      0.00000     0.39883    0.00114     0.39997
      H   29    0.10057      0.00000     0.39838    0.00105     0.39943
      H   30    0.10522      0.00000     0.39202    0.00276     0.39478
      H   31    0.09399      0.00000     0.40417    0.00184     0.40601
      H   32    0.10017      0.00000     0.39888    0.00095     0.39983
      H   33    0.11647      0.00000     0.38192    0.00161     0.38353
      H   34    0.09841      0.00000     0.40054    0.00105     0.40159
      H   35    0.09250      0.00000     0.40634    0.00116     0.40750
      H   36    0.08490      0.00000     0.41362    0.00148     0.41510
      H   37    0.17768      0.00000     0.31958    0.00273     0.32232
      H   38    0.17508      0.00000     0.32184    0.00308     0.32492
      H   39    0.23133      0.00000     0.26567    0.00299     0.26867
 =======================================================================
   * Total *   -0.00000     20.99289    47.77044    0.23667    69.00000

 Normal termination of Gaussian 16 at Sun Dec 13 17:35:43 2020.
