 Gaussian 16, Revision A.03,

 -----------------------------------------------------------
 # opt freq B3LYP/6-31G(d) empiricaldispersion=gd3bj scf=xqc
 -----------------------------------------------------------

 -------------------------------
 CID_147069229_JID_1426_neutraal
 -------------------------------
 Symbolic Z-matrix:
 Charge =  0 Multiplicity = 1

 SCF Done:  E(RB3LYP) =  -501.822249931     A.U. after   14 cycles
 SCF Done:  E(RB3LYP) =  -501.825567262     A.U. after   11 cycles
 SCF Done:  E(RB3LYP) =  -501.826558328     A.U. after   11 cycles
 SCF Done:  E(RB3LYP) =  -501.827144201     A.U. after   12 cycles
 SCF Done:  E(RB3LYP) =  -501.827409320     A.U. after   11 cycles
 SCF Done:  E(RB3LYP) =  -501.827585302     A.U. after   11 cycles
 SCF Done:  E(RB3LYP) =  -501.827763348     A.U. after   11 cycles
 SCF Done:  E(RB3LYP) =  -501.827985410     A.U. after   11 cycles
 SCF Done:  E(RB3LYP) =  -501.828228623     A.U. after   12 cycles
 SCF Done:  E(RB3LYP) =  -501.828253733     A.U. after   10 cycles
 SCF Done:  E(RB3LYP) =  -501.828422886     A.U. after   11 cycles
 SCF Done:  E(RB3LYP) =  -501.828424761     A.U. after    9 cycles
 SCF Done:  E(RB3LYP) =  -501.828425234     A.U. after    8 cycles
 SCF Done:  E(RB3LYP) =  -501.828425281     A.U. after    8 cycles
 SCF Done:  E(RB3LYP) =  -501.828425286     A.U. after    7 cycles
 Optimization completed.
    -- Stationary point found.

 1\1\GINC-NODE315\FOpt\RB3LYP\6-31G(d)\C9H14O2\VSC10255\08-Dec-2020\0\\
 # opt freq B3LYP/6-31G(d) empiricaldispersion=gd3bj scf=xqc\\CID_14706
 9229_JID_1426_neutraal\\0,1\C,0.9691143928,0.0325094851,-0.1957616134\
 C,2.2444620619,0.8348876332,-0.0265113947\O,2.4457167934,1.5846114023,
 -1.2421503636\C,3.5954118909,2.3243754936,-1.3070225979\C,3.5525504638
 ,3.6506007011,-1.5152779258\C,4.7816075285,4.4376679156,-1.6865812809\
 C,5.9447424467,3.8015546936,-1.9138577876\C,5.9927312173,2.298461169,-
 2.0323648009\C,4.9309609024,1.6028422882,-1.1708712529\O,4.8325466836,

 Normal termination of Gaussian 16 at Tue Dec  8 20:01:40 2020.

 --------------------------------------------------------------------
 #N Geom=AllCheck Guess=TCheck SCRF=Check GenChk RB3LYP/6-31G(d) Freq
 --------------------------------------------------------------------

 Structure from the checkpoint file:  "JID_1426.chk"
 -------------------------------
 CID_147069229_JID_1426_neutraal
 -------------------------------
 Charge =  0 Multiplicity = 1

 SCF Done:  E(RB3LYP) =  -501.828425286     A.U. after    1 cycles

  Exact polarizability: 131.287   1.421 104.440  -0.476   1.331  68.805
 Approx polarizability: 168.669   1.610 157.553  -2.759   4.738 104.974

                      1                      2                      3
                      A                      A                      A
 Frequencies --     45.3013                67.2852                93.7659
 Red. masses --      2.2586                 2.7811                 3.0346
 Frc consts  --      0.0027                 0.0074                 0.0157
 IR Inten    --      0.8744                12.3023                 4.0280

                      4                      5                      6
                      A                      A                      A
 Frequencies --    136.5948               175.8898               184.7186
 Red. masses --      2.4406                 1.0817                 1.3886
 Frc consts  --      0.0268                 0.0197                 0.0279
 IR Inten    --     24.6349                 4.1453                41.5152

                      7                      8                      9
                      A                      A                      A
 Frequencies --    225.2915               252.9207               271.2669
 Red. masses --      3.1875                 1.2648                 2.0024
 Frc consts  --      0.0953                 0.0477                 0.0868
 IR Inten    --      8.2443                 0.6368                 1.6584

                     10                     11                     12
                      A                      A                      A
 Frequencies --    288.5243               316.1339               348.0525
 Red. masses --      3.4063                 2.7985                 3.0852
 Frc consts  --      0.1671                 0.1648                 0.2202
 IR Inten    --      9.5271                17.5641                 9.5552

                     13                     14                     15
                      A                      A                      A
 Frequencies --    383.8012               421.5868               480.5458
 Red. masses --      3.5480                 5.0364                 3.8094
 Frc consts  --      0.3079                 0.5274                 0.5183
 IR Inten    --      2.3249                 3.9923                 4.5565

                     16                     17                     18
                      A                      A                      A
 Frequencies --    558.8606               591.1643               647.4641
 Red. masses --      3.4570                 3.3374                 4.1012
 Frc consts  --      0.6362                 0.6872                 1.0130
 IR Inten    --      8.2426                 1.1570                 5.1826

                     19                     20                     21
                      A                      A                      A
 Frequencies --    700.0118               760.6898               798.6727
 Red. masses --      4.0384                 2.7720                 1.2461
 Frc consts  --      1.1659                 0.9451                 0.4683
 IR Inten    --     14.0675                 4.1949                22.4844

                     22                     23                     24
                      A                      A                      A
 Frequencies --    836.6110               862.8247               897.6981
 Red. masses --      1.0955                 2.4691                 1.4753
 Frc consts  --      0.4517                 1.0830                 0.7005
 IR Inten    --      0.5311                 1.1773                14.8246

                     25                     26                     27
                      A                      A                      A
 Frequencies --    945.2050               995.3611              1012.2180
 Red. masses --      2.2209                 2.0530                 2.2118
 Frc consts  --      1.1690                 1.1984                 1.3352
 IR Inten    --     40.6943                 0.2669                16.3231

                     28                     29                     30
                      A                      A                      A
 Frequencies --   1057.8149              1063.7160              1081.4199
 Red. masses --      2.5701                 2.2658                 1.5275
 Frc consts  --      1.6944                 1.5105                 1.0525
 IR Inten    --     55.6400                 5.2914                 5.5469

                     31                     32                     33
                      A                      A                      A
 Frequencies --   1095.2703              1113.4514              1144.6178
 Red. masses --      4.6986                 2.7094                 2.1217
 Frc consts  --      3.3209                 1.9791                 1.6378
 IR Inten    --     24.5357               117.5708                33.3199

                     34                     35                     36
                      A                      A                      A
 Frequencies --   1177.5184              1194.0846              1199.2553
 Red. masses --      1.6575                 1.5037                 1.2304
 Frc consts  --      1.3541                 1.2632                 1.0426
 IR Inten    --     63.7105                 2.6228                11.3432

                     37                     38                     39
                      A                      A                      A
 Frequencies --   1259.9880              1284.9322              1316.6337
 Red. masses --      2.0259                 1.7752                 1.1267
 Frc consts  --      1.8950                 1.7268                 1.1508
 IR Inten    --     84.2992                76.5157                 3.0442

                     40                     41                     42
                      A                      A                      A
 Frequencies --   1327.4682              1360.1913              1388.3972
 Red. masses --      1.3462                 1.7042                 1.5004
 Frc consts  --      1.3976                 1.8576                 1.7040
 IR Inten    --     14.2219                30.2287                 1.8661

                     43                     44                     45
                      A                      A                      A
 Frequencies --   1402.2717              1420.6710              1438.5971
 Red. masses --      2.1067                 1.2526                 1.3661
 Frc consts  --      2.4407                 1.4895                 1.6657
 IR Inten    --      2.6788                 5.6868               102.7386

                     46                     47                     48
                      A                      A                      A
 Frequencies --   1443.8284              1449.1584              1500.6330
 Red. masses --      1.2941                 1.3546                 1.0953
 Frc consts  --      1.5895                 1.6761                 1.4532
 IR Inten    --      5.3454                30.9055                 3.1890

                     49                     50                     51
                      A                      A                      A
 Frequencies --   1508.6765              1513.9376              1522.8503
 Red. masses --      1.0449                 1.0403                 1.0626
 Frc consts  --      1.4013                 1.4048                 1.4518
 IR Inten    --      6.4154                 5.1807                 6.5238

                     52                     53                     54
                      A                      A                      A
 Frequencies --   1532.1274              1552.2307              1681.0850
 Red. masses --      1.0494                 1.0956                 7.9415
 Frc consts  --      1.4514                 1.5553                13.2230
 IR Inten    --      2.1519                 1.2945                53.5257

                     55                     56                     57
                      A                      A                      A
 Frequencies --   1741.4386              2971.3968              3019.2207
 Red. masses --      6.8695                 1.0728                 1.0824
 Frc consts  --     12.2742                 5.5807                 5.8132
 IR Inten    --     42.7112                33.0826                27.0308

                     58                     59                     60
                      A                      A                      A
 Frequencies --   3031.0516              3033.3187              3060.6177
 Red. masses --      1.0670                 1.0387                 1.0350
 Frc consts  --      5.7758                 5.6310                 5.7123
 IR Inten    --     50.6347                37.3245                20.4975

                     61                     62                     63
                      A                      A                      A
 Frequencies --   3080.0368              3098.1615              3106.0891
 Red. masses --      1.1002                 1.0889                 1.0975
 Frc consts  --      6.1492                 6.1580                 6.2388
 IR Inten    --     25.2748                25.3649                 5.7543

                     64                     65                     66
                      A                      A                      A
 Frequencies --   3127.2848              3132.2328              3139.4317
 Red. masses --      1.0999                 1.1024                 1.1038
 Frc consts  --      6.3377                 6.3723                 6.4096
 IR Inten    --     20.8139                28.4853                32.4506

                     67                     68                     69
                      A                      A                      A
 Frequencies --   3181.3945              3193.3109              3733.3625
 Red. masses --      1.0906                 1.0906                 1.0659
 Frc consts  --      6.5033                 6.5522                 8.7529
 IR Inten    --     22.8014                11.0076                17.2636

 - Thermochemistry -
 -------------------
 Temperature   298.150 Kelvin.  Pressure   1.00000 Atm.
 Atom     1 has atomic number  6 and mass  12.00000

 Molecular mass:   154.09938 amu.
 Principal axes and moments of inertia in atomic units:
                           1         2         3
     Eigenvalues --   934.681582612.629233393.92063
           X            1.00000  -0.00239   0.00153
           Y            0.00240   0.99997  -0.00721
           Z           -0.00151   0.00722   0.99997
 This molecule is an asymmetric top.
 Rotational symmetry number  1.
 Warning -- assumption of classical behavior for rotation
           may cause significant error
 Rotational temperatures (Kelvin)      0.09267     0.03315     0.02552
 Rotational constants (GHZ):           1.93086     0.69078     0.53176
 Zero-point vibrational energy     568092.4 (Joules/Mol)
                                  135.77735 (Kcal/Mol)
 Warning -- explicit consideration of  17 degrees of freedom as
           vibrations may cause significant error
 Vibrational temperatures:     65.18    96.81   134.91   196.53   253.07
          (Kelvin)            265.77   324.14   363.90   390.29   415.12
                              454.85   500.77   552.20   606.57   691.40
                              804.08   850.55   931.56  1007.16  1094.46
                             1149.11  1203.70  1241.41  1291.59  1359.94
                             1432.10  1456.36  1521.96  1530.45  1555.92
                             1575.85  1602.01  1646.85  1694.19  1718.02
                             1725.46  1812.84  1848.73  1894.34  1909.93
                             1957.01  1997.59  2017.56  2044.03  2069.82
                             2077.35  2085.02  2159.08  2170.65  2178.22
                             2191.04  2204.39  2233.31  2418.71  2505.54
                             4275.18  4343.99  4361.01  4364.27  4403.55
                             4431.49  4457.56  4468.97  4499.47  4506.58
                             4516.94  4577.32  4594.46  5371.48

 Zero-point correction=                           0.216375 (Hartree/Particle)
 Thermal correction to Energy=                    0.228366
 Thermal correction to Enthalpy=                  0.229310
 Thermal correction to Gibbs Free Energy=         0.178292
 Sum of electronic and zero-point Energies=           -501.612050
 Sum of electronic and thermal Energies=              -501.600059
 Sum of electronic and thermal Enthalpies=            -501.599115
 Sum of electronic and thermal Free Energies=         -501.650133

                     E (Thermal)             CV                S
                      KCal/Mol        Cal/Mol-Kelvin    Cal/Mol-Kelvin
 Total                  143.302             44.233            107.377
 Electronic               0.000              0.000              0.000
 Translational            0.889              2.981             41.007
 Rotational               0.889              2.981             30.495
 Vibrational            141.525             38.272             35.875
 Vibration     1          0.595              1.979              5.013
 Vibration     2          0.598              1.970              4.231
 Vibration     3          0.603              1.954              3.580
 Vibration     4          0.614              1.917              2.851
 Vibration     5          0.628              1.872              2.372
 Vibration     6          0.631              1.861              2.280
 Vibration     7          0.650              1.803              1.916
 Vibration     8          0.664              1.758              1.710
 Vibration     9          0.675              1.726              1.588
 Vibration    10          0.685              1.695              1.483
 Vibration    11          0.703              1.643              1.330
 Vibration    12          0.726              1.579              1.175
 Vibration    13          0.753              1.505              1.024
 Vibration    14          0.784              1.423              0.887
 Vibration    15          0.837              1.293              0.709
 Vibration    16          0.914              1.120              0.526
 Vibration    17          0.949              1.051              0.465

 Optimization completed.
    -- Stationary point found.

 1\1\GINC-NODE315\Freq\RB3LYP\6-31G(d)\C9H14O2\VSC10255\08-Dec-2020\0\\
 #N Geom=AllCheck Guess=TCheck SCRF=Check GenChk RB3LYP/6-31G(d) Freq\\
 CID_147069229_JID_1426_neutraal\\0,1\C,0.9691143928,0.0325094851,-0.19
 57616134\C,2.2444620619,0.8348876332,-0.0265113947\O,2.4457167934,1.58
 46114023,-1.2421503636\C,3.5954118909,2.3243754936,-1.3070225979\C,3.5
 525504638,3.6506007011,-1.5152779258\C,4.7816075285,4.4376679156,-1.68
 65812809\C,5.9447424467,3.8015546936,-1.9138577876\C,5.9927312173,2.29
 8461169,-2.0323648009\C,4.9309609024,1.6028422882,-1.1708712529\O,4.83

 Normal termination of Gaussian 16 at Tue Dec  8 20:06:40 2020.

 ----------------------------------------------------------------------
 # B3LYP/6-311++G(d,p) empiricaldispersion=gd3bj scf=xqc pop=npa geom=c
 heck
 ----------------------------------------------------------------------

 ---------------------------------------
 CID_147069229_JID_1426_Energie_neutraal
 ---------------------------------------
 Structure from the checkpoint file:  "JID_1426.chk"
 Charge =  0 Multiplicity = 1

 SCF Done:  E(RB3LYP) =  -501.979206194     A.U. after   14 cycles
 Normal termination of Gaussian 16 at Tue Dec  8 20:08:28 2020.

 ----------------------------------------------------------------------
 # B3LYP/6-311++G(d,p) empiricaldispersion=gd3bj scf=xqc pop=npa geom=c
 heck
 ----------------------------------------------------------------------

 -------------------------------------
 CID_147069229_JID_1426_Energie_kation
 -------------------------------------
 Structure from the checkpoint file:  "JID_1426.chk"
 Charge =  1 Multiplicity = 2

 SCF Done:  E(UB3LYP) =  -501.699416926     A.U. after   20 cycles
 Normal termination of Gaussian 16 at Tue Dec  8 20:12:29 2020.
 Gaussian 16:  ES64L-G16RevA.03 25-Dec-2016

 ------------------------------------
 CID_147069229_JID_1426_Energie_anion
 ------------------------------------
 Structure from the checkpoint file:  "JID_1426.chk"
 Charge = -1 Multiplicity = 2

                         Standard orientation:
 ---------------------------------------------------------------------
 Center     Atomic      Atomic             Coordinates (Angstroms)
 Number     Number       Type             X           Y           Z
 ---------------------------------------------------------------------
      1          6           0        3.803278   -0.964044   -0.046709
      2          6           0        2.476042   -0.546147    0.555599
      3          8           0        1.483082   -0.636249   -0.486649
      4          6           0        0.220942   -0.228285   -0.149269
      5          6           0       -0.827964   -1.058989   -0.266775
      6          6           0       -2.199168   -0.600966   -0.003305
      7          6           0       -2.447118    0.717966    0.086792
      8          6           0       -1.344369    1.726891   -0.117292
      9          6           0        0.026154    1.204514    0.332377
     10          8           0        1.077233    2.067362   -0.094020
     11          6           0       -3.270951   -1.649247    0.129728
     12          1           0        3.742739   -1.980023   -0.449325
     13          1           0        4.589721   -0.935833    0.715071
     14          1           0        4.084386   -0.287030   -0.859853
     15          1           0        2.183586   -1.216435    1.375823
     16          1           0        2.519701    0.479287    0.934680
     17          1           0       -0.655319   -2.092102   -0.556179
     18          1           0       -3.461498    1.079509    0.236853
     19          1           0       -1.551265    2.666947    0.403751
     20          1           0       -1.272774    1.978228   -1.190854
     21          1           0        0.072459    1.220872    1.431258
     22          1           0        1.287557    1.824919   -1.010194
     23          1           0       -3.054129   -2.336383    0.958291
     24          1           0       -4.251828   -1.198613    0.308246
     25          1           0       -3.336927   -2.262400   -0.779080
 ---------------------------------------------------------------------

 SCF Done:  E(UB3LYP) =  -501.961944775     A.U. after   33 cycles
 SCF Done:  E(UB3LYP) =  -501.961944775     a.u. after    1 cycles

 The electronic state is 2-A.
 Alpha  occ. eigenvalues --  -19.03278 -19.02141 -10.12150 -10.11252 -10.11060
 Alpha  occ. eigenvalues --  -10.06741 -10.06506 -10.05916 -10.05808 -10.05047
 Alpha  occ. eigenvalues --  -10.05016  -0.95229  -0.91936  -0.73228  -0.66860
 Alpha  occ. eigenvalues --   -0.65048  -0.61797  -0.57360  -0.52523  -0.51039
 Alpha  occ. eigenvalues --   -0.47106  -0.43169  -0.40464  -0.37765  -0.36407
 Alpha  occ. eigenvalues --   -0.35059  -0.33990  -0.32977  -0.31130  -0.30740
 Alpha  occ. eigenvalues --   -0.28922  -0.28636  -0.28147  -0.26336  -0.25724
 Alpha  occ. eigenvalues --   -0.25172  -0.24196  -0.22697  -0.19014  -0.17986
 Alpha  occ. eigenvalues --   -0.16668  -0.09783   0.04922
 Alpha virt. eigenvalues --    0.06583   0.07372   0.08107   0.08557   0.08992
 Alpha virt. eigenvalues --    0.09467   0.10213   0.10813   0.11363   0.11881
 Alpha virt. eigenvalues --    0.12197   0.13062   0.13653   0.14477   0.15946

  Beta  occ. eigenvalues --  -19.03237 -19.02121 -10.12149 -10.11232 -10.10958
  Beta  occ. eigenvalues --  -10.06728 -10.06491 -10.05886 -10.05769 -10.05014
  Beta  occ. eigenvalues --  -10.04942  -0.95148  -0.91885  -0.73125  -0.66776
  Beta  occ. eigenvalues --   -0.64986  -0.61687  -0.57273  -0.52433  -0.50940
  Beta  occ. eigenvalues --   -0.46968  -0.43091  -0.40366  -0.37711  -0.36314
  Beta  occ. eigenvalues --   -0.34996  -0.33929  -0.32848  -0.31045  -0.30670
  Beta  occ. eigenvalues --   -0.28858  -0.28576  -0.28082  -0.26290  -0.25664
  Beta  occ. eigenvalues --   -0.25072  -0.24133  -0.22605  -0.18839  -0.17860
  Beta  occ. eigenvalues --   -0.16560  -0.09413
  Beta virt. eigenvalues --    0.07163   0.07647   0.08104   0.08555   0.08901
  Beta virt. eigenvalues --    0.09532   0.09940   0.10627   0.11145   0.11672
  Beta virt. eigenvalues --    0.12252   0.12497   0.13407   0.13958   0.14830

 Mulliken charges and spin densities:
               1          2
     1  C    1.294052  -1.794586
     2  C   -0.805569   0.672655
     3  O   -0.151167   0.033941
     4  C   -0.847804   0.713561
     5  C   -0.750982   0.631490
     6  C   -0.204839   0.823380
     7  C   -0.843335   0.351370
     8  C    0.749329  -1.272462
     9  C    0.260634  -0.382632
    10  O   -0.188334  -0.007255
    11  C    2.401704  -2.946619
    12  H   -0.200449   0.348492
    13  H   -0.553138   0.693601
    14  H   -0.224531   0.367802
    15  H   -0.079367   0.217768
    16  H    0.087244   0.099682
    17  H   -0.073047   0.257020
    18  H   -0.466059   0.619202
    19  H   -0.000247   0.152170
    20  H    0.024289   0.107932
    21  H    0.000878   0.174803
    22  H    0.179010   0.101110
    23  H   -0.075534   0.226571
    24  H   -0.433702   0.574124
    25  H   -0.099036   0.236879
 Sum of Mulliken charges =  -1.00000   1.00000

 Dipole moment (field-independent basis, Debye):
    X=             -0.9449    Y=              1.7242    Z=             -0.7089  Tot=              2.0900
 Quadrupole moment (field-independent basis, Debye-Ang):
   XX=           -152.9294   YY=           -104.9975   ZZ=            -90.1901
   XY=              1.1206   XZ=             -3.0143   YZ=             -0.5490

 Summary of Natural Population Analysis:

                                       Natural Population
                Natural  -----------------------------------------------
    Atom  No    Charge         Core      Valence    Rydberg      Total
 -----------------------------------------------------------------------
      C    1   -0.29299      0.99966     2.28775    0.00558     3.29299
      C    2   -0.01259      0.99957     2.00075    0.01227     3.01259
      O    3   -0.29306      0.99986     3.28126    0.01194     4.29306
      C    4    0.17995      0.99936     1.80628    0.01442     2.82005
      C    5   -0.13869      0.99944     2.12853    0.01072     3.13869
      C    6   -0.02199      0.99949     2.01196    0.01055     3.02199
      C    7   -0.09006      0.99947     2.08028    0.01031     3.09006
      C    8   -0.20779      0.99961     2.19895    0.00924     3.20779
      C    9    0.04319      0.99951     1.94470    0.01260     2.95681
      O   10   -0.37062      0.99990     3.36352    0.00720     4.37062
      C   11   -0.28854      0.99963     2.28374    0.00516     3.28854
      H   12    0.09987      0.00000     0.39845    0.00167     0.40013
      H   13    0.10226      0.00000     0.39584    0.00190     0.39774
      H   14    0.09936      0.00000     0.39921    0.00143     0.40064
      H   15    0.07914      0.00000     0.41935    0.00151     0.42086
      H   16    0.09121      0.00000     0.40685    0.00195     0.40879
      H   17    0.10289      0.00000     0.39547    0.00165     0.39711
      H   18    0.09431      0.00000     0.40462    0.00107     0.40569
      H   19    0.10340      0.00000     0.39489    0.00172     0.39660
      H   20    0.09873      0.00000     0.39947    0.00181     0.40127
      H   21    0.08906      0.00000     0.40898    0.00196     0.41094
      H   22    0.22996      0.00000     0.26676    0.00328     0.27004
      H   23    0.10068      0.00000     0.39791    0.00141     0.39932
      H   24    0.10197      0.00000     0.39657    0.00145     0.39803
      H   25    0.10038      0.00000     0.39794    0.00168     0.39962
 =======================================================================
   * Total *    0.00000     10.99551    30.87003    0.13446    42.00000

 Normal termination of Gaussian 16 at Tue Dec  8 20:19:34 2020.
