 Gaussian 16, Revision A.03,

 -----------------------------------------------------------
 # opt freq B3LYP/6-31G(d) empiricaldispersion=gd3bj scf=xqc
 -----------------------------------------------------------

 ------------------------------
 CID_20158231_JID_7009_neutraal
 ------------------------------
 Symbolic Z-matrix:
 Charge =  0 Multiplicity = 1

 SCF Done:  E(RB3LYP) =  -802.175692227     A.U. after   15 cycles
 SCF Done:  E(RB3LYP) =  -802.180137784     A.U. after   12 cycles
 SCF Done:  E(RB3LYP) =  -802.180642442     A.U. after   12 cycles
 SCF Done:  E(RB3LYP) =  -802.180616812     A.U. after   12 cycles
 SCF Done:  E(RB3LYP) =  -802.180916144     A.U. after   12 cycles
 SCF Done:  E(RB3LYP) =  -802.181010335     A.U. after   10 cycles
 SCF Done:  E(RB3LYP) =  -802.181180571     A.U. after   13 cycles
 SCF Done:  E(RB3LYP) =  -802.181252881     A.U. after   11 cycles
 SCF Done:  E(RB3LYP) =  -802.181372142     A.U. after   12 cycles
 SCF Done:  E(RB3LYP) =  -802.181456327     A.U. after   12 cycles
 SCF Done:  E(RB3LYP) =  -802.181505761     A.U. after   11 cycles
 SCF Done:  E(RB3LYP) =  -802.181506824     A.U. after   10 cycles
 SCF Done:  E(RB3LYP) =  -802.181507242     A.U. after   10 cycles
 SCF Done:  E(RB3LYP) =  -802.181507321     A.U. after    8 cycles
 SCF Done:  E(RB3LYP) =  -802.181507378     A.U. after    8 cycles
 Optimization completed.
    -- Stationary point found.
 Normal termination of Gaussian 16 at Sun Dec 13 16:06:08 2020.

 --------------------------------------------------------------------
 #N Geom=AllCheck Guess=TCheck SCRF=Check GenChk RB3LYP/6-31G(d) Freq
 --------------------------------------------------------------------

 Structure from the checkpoint file:  "JID_7009.chk"
 ------------------------------
 CID_20158231_JID_7009_neutraal
 ------------------------------
 Charge =  0 Multiplicity = 1

 SCF Done:  E(RB3LYP) =  -802.181507378     A.U. after    1 cycles

  Exact polarizability: 216.811  -3.520 137.201  -3.762   5.089  97.291
 Approx polarizability: 258.384  -6.806 238.854  -7.539  11.754 148.000

                      1                      2                      3
                      A                      A                      A
 Frequencies --     22.3907                49.2707                57.0559
 Red. masses --      4.9099                 3.6160                 3.6586
 Frc consts  --      0.0015                 0.0052                 0.0070
 IR Inten    --      0.4313                 1.6580                 0.5623

                      4                      5                      6
                      A                      A                      A
 Frequencies --     72.5513                90.8661               110.1419
 Red. masses --      5.4944                 4.1208                 4.2732
 Frc consts  --      0.0170                 0.0200                 0.0305
 IR Inten    --      0.2339                 1.9518                 1.1228

                      7                      8                      9
                      A                      A                      A
 Frequencies --    122.8588               156.6047               196.3429
 Red. masses --      3.2908                 4.6493                 1.0649
 Frc consts  --      0.0293                 0.0672                 0.0242
 IR Inten    --      3.0020                 2.1365                 0.4240

                     10                     11                     12
                      A                      A                      A
 Frequencies --    217.4065               227.5627               251.6589
 Red. masses --      3.2291                 1.3720                 3.5048
 Frc consts  --      0.0899                 0.0419                 0.1308
 IR Inten    --      1.0710                 3.7292                 1.1408

                     13                     14                     15
                      A                      A                      A
 Frequencies --    293.6796               300.8447               325.0293
 Red. masses --      3.9385                 2.6070                 2.6830
 Frc consts  --      0.2001                 0.1390                 0.1670
 IR Inten    --      3.6282                 9.8876                11.5525

                     16                     17                     18
                      A                      A                      A
 Frequencies --    363.8789               385.5859               397.7739
 Red. masses --      4.7703                 2.1154                 4.0685
 Frc consts  --      0.3721                 0.1853                 0.3793
 IR Inten    --      9.3063                 0.7071                 9.6795

                     19                     20                     21
                      A                      A                      A
 Frequencies --    448.2585               489.4280               524.1376
 Red. masses --      3.8242                 3.3623                 3.9903
 Frc consts  --      0.4527                 0.4745                 0.6459
 IR Inten    --      3.3359                 2.5087                 5.5501

                     22                     23                     24
                      A                      A                      A
 Frequencies --    560.7767               566.8754               591.7151
 Red. masses --      2.2217                 2.3860                 4.4387
 Frc consts  --      0.4116                 0.4517                 0.9157
 IR Inten    --     28.7187                34.5666                12.9961

                     25                     26                     27
                      A                      A                      A
 Frequencies --    594.1037               632.7906               664.5168
 Red. masses --      3.0918                 2.6518                 3.1123
 Frc consts  --      0.6430                 0.6256                 0.8097
 IR Inten    --      5.7131                 9.7534                 0.5464

                     28                     29                     30
                      A                      A                      A
 Frequencies --    694.9203               746.7302               752.2245
 Red. masses --      3.6597                 2.6946                 6.0502
 Frc consts  --      1.0413                 0.8853                 2.0170
 IR Inten    --      2.1343                 4.7403                27.9840

                     31                     32                     33
                      A                      A                      A
 Frequencies --    757.1812               789.6293               846.1830
 Red. masses --      3.0348                 1.7894                 1.4207
 Frc consts  --      1.0251                 0.6574                 0.5993
 IR Inten    --      4.1116                 4.0970                13.5824

                     34                     35                     36
                      A                      A                      A
 Frequencies --    849.3630               889.7314               941.7995
 Red. masses --      1.9624                 2.7547                 2.2429
 Frc consts  --      0.8341                 1.2848                 1.1721
 IR Inten    --      2.1092                 4.8071                21.9200

                     37                     38                     39
                      A                      A                      A
 Frequencies --    958.4004               979.7252               999.7904
 Red. masses --      2.3995                 2.2718                 4.5476
 Frc consts  --      1.2985                 1.2848                 2.6782
 IR Inten    --      0.4645                 0.4091                13.7619

                     40                     41                     42
                      A                      A                      A
 Frequencies --   1013.8301              1047.2922              1054.6898
 Red. masses --      1.7832                 1.8640                 3.6556
 Frc consts  --      1.0799                 1.2046                 2.3958
 IR Inten    --     24.1765                35.6029                75.3588

                     43                     44                     45
                      A                      A                      A
 Frequencies --   1063.2187              1107.4734              1126.5924
 Red. masses --      1.7135                 2.0131                 1.7869
 Frc consts  --      1.1412                 1.4547                 1.3362
 IR Inten    --      3.3617                 2.0699                13.5723

                     46                     47                     48
                      A                      A                      A
 Frequencies --   1141.8346              1179.7658              1206.6033
 Red. masses --      1.7681                 3.4855                 1.7949
 Frc consts  --      1.3582                 2.8583                 1.5396
 IR Inten    --     44.8445                22.9040                23.4334

                     49                     50                     51
                      A                      A                      A
 Frequencies --   1209.6411              1214.8564              1238.3541
 Red. masses --      1.5905                 1.8406                 1.3968
 Frc consts  --      1.3711                 1.6005                 1.2621
 IR Inten    --     24.6731                89.8109                31.1419

                     52                     53                     54
                      A                      A                      A
 Frequencies --   1265.8434              1270.1790              1288.2879
 Red. masses --      2.3825                 1.6818                 2.0193
 Frc consts  --      2.2493                 1.5987                 1.9746
 IR Inten    --    700.7067               125.7807                20.7471

                     55                     56                     57
                      A                      A                      A
 Frequencies --   1343.6659              1352.4217              1359.5161
 Red. masses --      1.1398                 1.7566                 1.5154
 Frc consts  --      1.2124                 1.8930                 1.6502
 IR Inten    --      5.5569                65.0701                83.3676

                     58                     59                     60
                      A                      A                      A
 Frequencies --   1399.8486              1414.5926              1418.6167
 Red. masses --      1.5809                 1.2555                 1.3168
 Frc consts  --      1.8252                 1.4802                 1.5613
 IR Inten    --     40.5278                 6.9092                30.1000

                     61                     62                     63
                      A                      A                      A
 Frequencies --   1432.6697              1443.0002              1457.8552
 Red. masses --      2.2429                 1.4416                 4.1382
 Frc consts  --      2.7124                 1.7686                 5.1820
 IR Inten    --     11.4857                20.7960                46.1104

                     64                     65                     66
                      A                      A                      A
 Frequencies --   1472.2496              1499.7148              1512.4980
 Red. masses --      2.7074                 1.0871                 1.1731
 Frc consts  --      3.4575                 1.4406                 1.5812
 IR Inten    --    274.4998                 7.4819                 1.2011

                     67                     68                     69
                      A                      A                      A
 Frequencies --   1513.6563              1515.9334              1519.4328
 Red. masses --      1.4100                 1.1251                 1.1117
 Frc consts  --      1.9034                 1.5233                 1.5122
 IR Inten    --     19.9701                15.5423                 4.3122

                     70                     71                     72
                      A                      A                      A
 Frequencies --   1520.4572              1529.3537              1535.2979
 Red. masses --      1.0880                 1.7190                 1.1757
 Frc consts  --      1.4819                 2.3689                 1.6328
 IR Inten    --     26.2473                81.8157                 6.2144

                     73                     74                     75
                      A                      A                      A
 Frequencies --   1538.9566              1551.2454              1631.0451
 Red. masses --      1.1233                 5.6410                 4.6378
 Frc consts  --      1.5674                 7.9978                 7.2693
 IR Inten    --     15.8228                78.7232                 7.6471

                     76                     77                     78
                      A                      A                      A
 Frequencies --   1765.8675              1771.3564              2997.9048
 Red. masses --      9.9072                11.1751                 1.0734
 Frc consts  --     18.2020                20.6591                 5.6838
 IR Inten    --    237.8911               414.6205                46.4076

                     79                     80                     81
                      A                      A                      A
 Frequencies --   3025.3014              3046.7182              3059.8437
 Red. masses --      1.0672                 1.0721                 1.0395
 Frc consts  --      5.7546                 5.8632                 5.7344
 IR Inten    --     36.2395                29.9077                 5.1322

                     82                     83                     84
                      A                      A                      A
 Frequencies --   3061.1931              3074.4673              3093.0708
 Red. masses --      1.0364                 1.0967                 1.0588
 Frc consts  --      5.7221                 6.1079                 5.9682
 IR Inten    --     20.3534                43.4752                33.0068

                     85                     86                     87
                      A                      A                      A
 Frequencies --   3120.7053              3122.9827              3127.1459
 Red. masses --      1.1012                 1.0879                 1.1018
 Frc consts  --      6.3186                 6.2516                 6.3479
 IR Inten    --     12.3812                 9.4679                28.9564

                     88                     89                     90
                      A                      A                      A
 Frequencies --   3139.3035              3159.3070              3164.2628
 Red. masses --      1.1046                 1.1069                 1.0918
 Frc consts  --      6.4141                 6.5092                 6.4407
 IR Inten    --      8.4896                28.8224                27.7310

                     91                     92                     93
                      A                      A                      A
 Frequencies --   3180.2934              3272.6630              3643.4523
 Red. masses --      1.0997                 1.0961                 1.0801
 Frc consts  --      6.5532                 6.9170                 8.4478
 IR Inten    --      6.6853                 1.2934                82.7125

 - Thermochemistry -
 -------------------
 Temperature   298.150 Kelvin.  Pressure   1.00000 Atm.
 Atom     1 has atomic number  6 and mass  12.00000

 Molecular mass:   236.11609 amu.
 Principal axes and moments of inertia in atomic units:
                           1         2         3
     Eigenvalues --  1306.681479648.31032**********
           X            0.99995  -0.00857   0.00580
           Y            0.00846   0.99981   0.01762
           Z           -0.00595  -0.01757   0.99983
 This molecule is an asymmetric top.
 Rotational symmetry number  1.
 Warning -- assumption of classical behavior for rotation
           may cause significant error
 Rotational temperatures (Kelvin)      0.06629     0.00898     0.00849
 Rotational constants (GHZ):           1.38116     0.18705     0.17691
 Zero-point vibrational energy     724554.9 (Joules/Mol)
                                  173.17277 (Kcal/Mol)
 Warning -- explicit consideration of  25 degrees of freedom as
           vibrations may cause significant error
 Vibrational temperatures:     32.22    70.89    82.09   104.39   130.74
          (Kelvin)            158.47   176.77   225.32   282.49   312.80
                              327.41   362.08   422.54   432.85   467.64
                              523.54   554.77   572.31   644.94   704.18
                              754.12   806.83   815.61   851.35   854.78
                              910.44   956.09   999.84  1074.38  1082.28
                             1089.41  1136.10  1217.47  1222.04  1280.13
                             1355.04  1378.92  1409.61  1438.48  1458.68
                             1506.82  1517.46  1529.73  1593.41  1620.92
                             1642.85  1697.42  1736.03  1740.40  1747.91
                             1781.72  1821.27  1827.50  1853.56  1933.24
                             1945.83  1956.04  2014.07  2035.28  2041.07
                             2061.29  2076.16  2097.53  2118.24  2157.76
                             2176.15  2177.81  2181.09  2186.12  2187.60
                             2200.40  2208.95  2214.22  2231.90  2346.71
                             2540.69  2548.59  4313.32  4352.73  4383.55
                             4402.43  4404.37  4423.47  4450.24  4490.00
                             4493.28  4499.27  4516.76  4545.54  4552.67
                             4575.73  4708.63  5242.12

 Zero-point correction=                           0.275968 (Hartree/Particle)
 Thermal correction to Energy=                    0.292181
 Thermal correction to Enthalpy=                  0.293125
 Thermal correction to Gibbs Free Energy=         0.230880
 Sum of electronic and zero-point Energies=           -801.905539
 Sum of electronic and thermal Energies=              -801.889326
 Sum of electronic and thermal Enthalpies=            -801.888382
 Sum of electronic and thermal Free Energies=         -801.950627

                     E (Thermal)             CV                S
                      KCal/Mol        Cal/Mol-Kelvin    Cal/Mol-Kelvin
 Total                  183.346             60.751            131.006
 Electronic               0.000              0.000              0.000
 Translational            0.889              2.981             42.279
 Rotational               0.889              2.981             33.219
 Vibrational            181.569             54.789             55.507
 Vibration     1          0.593              1.985              6.410
 Vibration     2          0.595              1.978              4.846
 Vibration     3          0.596              1.975              4.557
 Vibration     4          0.599              1.967              4.083
 Vibration     5          0.602              1.956              3.641
 Vibration     6          0.606              1.941              3.266
 Vibration     7          0.610              1.930              3.055
 Vibration     8          0.620              1.895              2.590
 Vibration     9          0.636              1.845              2.167
 Vibration    10          0.646              1.815              1.981
 Vibration    11          0.651              1.799              1.898
 Vibration    12          0.664              1.760              1.719
 Vibration    13          0.688              1.686              1.453
 Vibration    14          0.693              1.672              1.412
 Vibration    15          0.709              1.625              1.285
 Vibration    16          0.737              1.547              1.105
 Vibration    17          0.754              1.501              1.017
 Vibration    18          0.764              1.475              0.971
 Vibration    19          0.807              1.365              0.801
 Vibration    20          0.845              1.273              0.685
 Vibration    21          0.879              1.197              0.600
 Vibration    22          0.916              1.116              0.522
 Vibration    23          0.923              1.103              0.510
 Vibration    24          0.949              1.049              0.464
 Vibration    25          0.952              1.044              0.460

 Optimization completed.
    -- Stationary point found.
 Normal termination of Gaussian 16 at Sun Dec 13 16:16:40 2020.

 ----------------------------------------------------------------------
 # B3LYP/6-311++G(d,p) empiricaldispersion=gd3bj scf=xqc pop=npa geom=c
 heck
 ----------------------------------------------------------------------

 --------------------------------------
 CID_20158231_JID_7009_Energie_neutraal
 --------------------------------------
 Structure from the checkpoint file:  "JID_7009.chk"
 Charge =  0 Multiplicity = 1

 SCF Done:  E(RB3LYP) =  -802.408604471     A.U. after   15 cycles
 Normal termination of Gaussian 16 at Sun Dec 13 16:21:53 2020.

 ----------------------------------------------------------------------
 # B3LYP/6-311++G(d,p) empiricaldispersion=gd3bj scf=xqc pop=npa geom=c
 heck
 ----------------------------------------------------------------------

 ------------------------------------
 CID_20158231_JID_7009_Energie_kation
 ------------------------------------
 Structure from the checkpoint file:  "JID_7009.chk"
 Charge =  1 Multiplicity = 2

 SCF Done:  E(UB3LYP) =  -802.116729886     A.U. after   26 cycles
 Normal termination of Gaussian 16 at Sun Dec 13 16:34:52 2020.
 Gaussian 16:  ES64L-G16RevA.03 25-Dec-2016

 ----------------------------------------------------------------------
 # B3LYP/6-311++G(d,p) empiricaldispersion=gd3bj scf=xqc pop=npa geom=c
 heck
 ----------------------------------------------------------------------

 -----------------------------------
 CID_20158231_JID_7009_Energie_anion
 -----------------------------------
 Structure from the checkpoint file:  "JID_7009.chk"
 Charge = -1 Multiplicity = 2

                         Standard orientation:
 ---------------------------------------------------------------------
 Center     Atomic      Atomic             Coordinates (Angstroms)
 Number     Number       Type             X           Y           Z
 ---------------------------------------------------------------------
      1          6           0        5.542317   -0.272629    1.366150
      2          6           0        5.142562    0.381857    0.053270
      3          8           0        3.731325    0.691659    0.030625
      4          6           0        2.907181   -0.326391   -0.303487
      5          8           0        3.283467   -1.452230   -0.598542
      6          6           0        1.508386    0.066754   -0.278524
      7          6           0        0.844573    1.251245    0.015521
      8          6           0       -0.541854    1.005136   -0.136661
      9          6           0       -0.685560   -0.326053   -0.515120
     10          7           0        0.554514   -0.879846   -0.602108
     11          6           0       -1.982032   -1.019073   -0.800168
     12          7           0       -3.080044   -0.149320   -0.378304
     13          6           0       -2.928369    1.263994   -0.721819
     14          6           0       -1.739236    1.897920    0.022917
     15          6           0       -4.012758   -0.657091    0.497785
     16          8           0       -4.008986   -1.836525    0.834162
     17          6           0       -5.070246    0.303817    1.021266
     18          1           0        5.262886    0.360014    2.214791
     19          1           0        6.627056   -0.426980    1.391701
     20          1           0        5.052667   -1.244277    1.471013
     21          1           0        5.632008    1.349518   -0.079728
     22          1           0        5.375879   -0.263572   -0.796998
     23          1           0        1.322032    2.177768    0.301309
     24          1           0        0.798910   -1.831329   -0.839623
     25          1           0       -2.090001   -1.956434   -0.248865
     26          1           0       -2.079850   -1.250753   -1.872799
     27          1           0       -2.754927    1.330284   -1.803927
     28          1           0       -3.855943    1.794097   -0.509550
     29          1           0       -1.548590    2.900774   -0.379207
     30          1           0       -2.000109    2.025592    1.083346
     31          1           0       -4.625206    1.141991    1.568674
     32          1           0       -5.679765    0.717245    0.210054
     33          1           0       -5.714568   -0.259934    1.695970
 ---------------------------------------------------------------------

 SCF Done:  E(UB3LYP) =  -802.401813683     A.U. after   33 cycles
 SCF Done:  E(UB3LYP) =  -802.401813683     a.u. after    1 cycles

 The electronic state is 2-A.
 Alpha  occ. eigenvalues --  -19.05219 -18.98824 -18.98338 -14.24599 -14.24484
 Alpha  occ. eigenvalues --  -10.17577 -10.17075 -10.13283 -10.11167 -10.11130
 Alpha  occ. eigenvalues --  -10.09246 -10.08449 -10.07878 -10.07790 -10.07584
 Alpha  occ. eigenvalues --  -10.05927 -10.05282  -0.98963  -0.94140  -0.90126
 Alpha  occ. eigenvalues --   -0.87478  -0.84167  -0.70041  -0.68531  -0.67184
 Alpha  occ. eigenvalues --   -0.64999  -0.63704  -0.58928  -0.55444  -0.54944
 Alpha  occ. eigenvalues --   -0.49460  -0.47454  -0.46378  -0.43623  -0.41754
 Alpha  occ. eigenvalues --   -0.39774  -0.39031  -0.38001  -0.37322  -0.35896
 Alpha  occ. eigenvalues --   -0.35458  -0.34142  -0.33478  -0.33108  -0.32010
 Alpha  occ. eigenvalues --   -0.31699  -0.31078  -0.30679  -0.29988  -0.29690
 Alpha  occ. eigenvalues --   -0.28940  -0.27631  -0.26671  -0.26448  -0.25622
 Alpha  occ. eigenvalues --   -0.25245  -0.24293  -0.19799  -0.16811  -0.16140
 Alpha  occ. eigenvalues --   -0.15086  -0.14107  -0.10991   0.04219
 Alpha virt. eigenvalues --    0.05587   0.06345   0.07851   0.08166   0.08620
 Alpha virt. eigenvalues --    0.08644   0.09207   0.10015   0.10358   0.10933
 Alpha virt. eigenvalues --    0.11185   0.11872   0.12307   0.12516   0.12705

  Beta  occ. eigenvalues --  -19.05183 -18.98815 -18.98175 -14.24487 -14.24484
  Beta  occ. eigenvalues --  -10.17573 -10.16858 -10.13283 -10.11166 -10.11106
  Beta  occ. eigenvalues --  -10.09133 -10.08431 -10.07844 -10.07771 -10.07562
  Beta  occ. eigenvalues --  -10.05977 -10.05180  -0.98773  -0.94124  -0.89884
  Beta  occ. eigenvalues --   -0.87298  -0.84139  -0.69981  -0.68401  -0.67115
  Beta  occ. eigenvalues --   -0.64887  -0.63592  -0.58754  -0.55388  -0.54869
  Beta  occ. eigenvalues --   -0.49199  -0.47402  -0.46262  -0.43534  -0.41702
  Beta  occ. eigenvalues --   -0.39714  -0.38962  -0.37947  -0.37092  -0.35725
  Beta  occ. eigenvalues --   -0.35205  -0.34060  -0.33347  -0.33045  -0.31915
  Beta  occ. eigenvalues --   -0.31633  -0.30850  -0.30560  -0.29945  -0.29608
  Beta  occ. eigenvalues --   -0.28736  -0.27550  -0.26469  -0.26276  -0.25524
  Beta  occ. eigenvalues --   -0.25175  -0.24224  -0.19262  -0.16664  -0.16104
  Beta  occ. eigenvalues --   -0.14969  -0.13664  -0.10397
  Beta virt. eigenvalues --    0.06151   0.06721   0.07796   0.08388   0.08533
  Beta virt. eigenvalues --    0.08789   0.09082   0.09338   0.10291   0.10696
  Beta virt. eigenvalues --    0.11030   0.11218   0.12008   0.12458   0.12551

 Mulliken charges and spin densities:
               1          2
     1  C    0.100480  -0.434678
     2  C   -0.327634   0.115495
     3  O   -0.034868   0.005174
     4  C   -0.248330   0.090756
     5  O   -0.338006   0.059391
     6  C    0.179184  -0.199795
     7  C    0.519215   0.112045
     8  C    0.987517   0.003236
     9  C   -0.986003   0.392436
    10  N   -0.147840   0.087427
    11  C   -0.138179  -0.688419
    12  N    0.094435   0.112452
    13  C   -0.234298  -0.178499
    14  C   -0.215074  -0.752453
    15  C   -0.565435   0.696304
    16  O   -0.366632   0.002654
    17  C    1.090892  -1.597197
    18  H    0.073200   0.061110
    19  H   -0.115448   0.238624
    20  H    0.082488   0.093127
    21  H    0.069157   0.071089
    22  H    0.178294  -0.012138
    23  H    0.159276   0.011704
    24  H    0.300944  -0.003929
    25  H    0.264101  -0.038095
    26  H   -0.205993   0.405262
    27  H   -0.185579   0.364653
    28  H   -0.650310   0.840808
    29  H   -0.118823   0.263289
    30  H    0.167094  -0.015351
    31  H   -0.197503   0.354336
    32  H   -0.388164   0.567411
    33  H    0.197840  -0.028228
 Sum of Mulliken charges =  -1.00000   1.00000

 Dipole moment (field-independent basis, Debye):
    X=              4.2840    Y=              0.0635    Z=              0.7923  Tot=              4.3571
 Quadrupole moment (field-independent basis, Debye-Ang):
   XX=           -204.6242   YY=           -134.8385   ZZ=           -125.1702
   XY=             10.4892   XZ=             -4.8909   YZ=              5.3750

 Summary of Natural Population Analysis:

                                       Natural Population
                Natural  -----------------------------------------------
    Atom  No    Charge         Core      Valence    Rydberg      Total
 -----------------------------------------------------------------------
      C    1   -0.30126      0.99966     2.29663    0.00497     3.30126
      C    2   -0.01830      0.99959     2.00604    0.01267     3.01830
      O    3   -0.27987      0.99986     3.27261    0.00740     4.27987
      C    4    0.40844      0.99960     1.56772    0.02424     2.59156
      O    5   -0.31942      0.99988     3.31477    0.00477     4.31942
      C    6    0.01255      0.99951     1.97509    0.01286     2.98745
      C    7   -0.09350      0.99949     2.08501    0.00900     3.09350
      C    8   -0.07055      0.99947     2.06163    0.00945     3.07055
      C    9    0.09563      0.99947     1.89399    0.01090     2.90437
      N   10   -0.24019      0.99962     2.73278    0.00778     3.74019
      C   11   -0.09906      0.99957     2.08893    0.01056     3.09906
      N   12   -0.25446      0.99965     2.74266    0.01215     3.75446
      C   13   -0.08028      0.99961     2.06948    0.01119     3.08028
      C   14   -0.19527      0.99959     2.18708    0.00859     3.19527
      C   15    0.34744      0.99965     1.63051    0.02240     2.65256
      O   16   -0.33058      0.99988     3.32512    0.00559     4.33058
      C   17   -0.33157      0.99963     2.32675    0.00520     3.33157
      H   18    0.09871      0.00000     0.40035    0.00094     0.40129
      H   19    0.09767      0.00000     0.40116    0.00116     0.40233
      H   20    0.10854      0.00000     0.39049    0.00097     0.39146
      H   21    0.08551      0.00000     0.41347    0.00102     0.41449
      H   22    0.09429      0.00000     0.40459    0.00113     0.40571
      H   23    0.10534      0.00000     0.39385    0.00081     0.39466
      H   24    0.20587      0.00000     0.29250    0.00163     0.29413
      H   25    0.12114      0.00000     0.37762    0.00124     0.37886
      H   26    0.09938      0.00000     0.39934    0.00127     0.40062
      H   27    0.09690      0.00000     0.40120    0.00190     0.40310
      H   28    0.10534      0.00000     0.39274    0.00192     0.39466
      H   29    0.10360      0.00000     0.39510    0.00130     0.39640
      H   30    0.09725      0.00000     0.40150    0.00125     0.40275
      H   31    0.10834      0.00000     0.39056    0.00110     0.39166
      H   32    0.11112      0.00000     0.38746    0.00142     0.38888
      H   33    0.11127      0.00000     0.38793    0.00080     0.38873
 =======================================================================
   * Total *    0.00000     16.99374    45.80668    0.19959    63.00000

 Normal termination of Gaussian 16 at Sun Dec 13 16:51:35 2020.
