 Gaussian 16, Revision A.03,

 -----------------------------------------------------------
 # opt freq B3LYP/6-31G(d) empiricaldispersion=gd3bj scf=xqc
 -----------------------------------------------------------

 -------------------------------
 CID_115198694_JID_5357_neutraal
 -------------------------------
 Symbolic Z-matrix:
 Charge =  0 Multiplicity = 1

 SCF Done:  E(RB3LYP) =  -618.191663856     A.U. after   13 cycles
 SCF Done:  E(RB3LYP) =  -618.195145018     A.U. after   11 cycles
 SCF Done:  E(RB3LYP) =  -618.195523598     A.U. after   12 cycles
 SCF Done:  E(RB3LYP) =  -618.195597400     A.U. after   11 cycles
 SCF Done:  E(RB3LYP) =  -618.195633961     A.U. after   10 cycles
 SCF Done:  E(RB3LYP) =  -618.195642999     A.U. after    9 cycles
 SCF Done:  E(RB3LYP) =  -618.195645626     A.U. after    9 cycles
 SCF Done:  E(RB3LYP) =  -618.195646813     A.U. after    8 cycles
 SCF Done:  E(RB3LYP) =  -618.195647297     A.U. after    7 cycles
 SCF Done:  E(RB3LYP) =  -618.195647469     A.U. after    7 cycles
 SCF Done:  E(RB3LYP) =  -618.195679492     A.U. after    8 cycles
 SCF Done:  E(RB3LYP) =  -618.195679698     A.U. after    7 cycles
 SCF Done:  E(RB3LYP) =  -618.195679768     A.U. after    6 cycles
 SCF Done:  E(RB3LYP) =  -618.195679802     A.U. after    6 cycles
 SCF Done:  E(RB3LYP) =  -618.195679794     A.U. after    6 cycles
 Optimization completed.
    -- Stationary point found.
 Normal termination of Gaussian 16 at Thu Dec 10 16:00:14 2020.

 --------------------------------------------------------------------
 #N Geom=AllCheck Guess=TCheck SCRF=Check GenChk RB3LYP/6-31G(d) Freq
 --------------------------------------------------------------------

 Structure from the checkpoint file:  "JID_5357.chk"
 -------------------------------
 CID_115198694_JID_5357_neutraal
 -------------------------------
 Charge =  0 Multiplicity = 1

 SCF Done:  E(RB3LYP) =  -618.195679794     A.U. after    1 cycles

  Exact polarizability: 164.047  26.740 143.115   6.941  -3.325 133.209
 Approx polarizability: 200.393  45.271 211.214  14.877  -8.938 228.808

                      1                      2                      3
                      A                      A                      A
 Frequencies --     19.1344                30.6129                35.3971
 Red. masses --      4.0061                 1.2439                 3.0976
 Frc consts  --      0.0009                 0.0007                 0.0023
 IR Inten    --      0.0759                 0.2029                 0.4936

                      4                      5                      6
                      A                      A                      A
 Frequencies --     39.3013                66.8110               101.3614
 Red. masses --      2.3324                 3.8981                 3.4222
 Frc consts  --      0.0021                 0.0103                 0.0207
 IR Inten    --      0.1497                 1.1842                 0.3060

                      7                      8                      9
                      A                      A                      A
 Frequencies --    119.0062               148.4876               197.0898
 Red. masses --      2.8084                 2.6969                 2.4989
 Frc consts  --      0.0234                 0.0350                 0.0572
 IR Inten    --      3.3136                 6.0137                 0.2868

                     10                     11                     12
                      A                      A                      A
 Frequencies --    215.6735               230.0258               258.5191
 Red. masses --      1.2719                 2.7717                 1.4277
 Frc consts  --      0.0349                 0.0864                 0.0562
 IR Inten    --      0.4329                 1.7261                27.4981

                     13                     14                     15
                      A                      A                      A
 Frequencies --    280.6753               308.9184               312.5634
 Red. masses --      1.8023                 2.2315                 2.0592
 Frc consts  --      0.0837                 0.1255                 0.1185
 IR Inten    --     28.1600                 8.1261                 5.9430

                     16                     17                     18
                      A                      A                      A
 Frequencies --    339.0573               393.9711               401.7971
 Red. masses --      2.8839                 2.1750                 2.1718
 Frc consts  --      0.1953                 0.1989                 0.2066
 IR Inten    --      1.0294                 0.1444                 2.9438

                     19                     20                     21
                      A                      A                      A
 Frequencies --    412.9044               420.2953               469.4421
 Red. masses --      3.0728                 3.0762                 3.6435
 Frc consts  --      0.3087                 0.3202                 0.4731
 IR Inten    --      0.8547                 0.2313                 1.0569

                     22                     23                     24
                      A                      A                      A
 Frequencies --    481.1932               547.6184               604.8486
 Red. masses --      2.8405                 2.8913                 2.7720
 Frc consts  --      0.3875                 0.5109                 0.5975
 IR Inten    --      8.3684                 6.4871                 6.0121

                     25                     26                     27
                      A                      A                      A
 Frequencies --    660.4865               717.0267               739.9640
 Red. masses --      6.6466                 3.4617                 2.8637
 Frc consts  --      1.7084                 1.0486                 0.9238
 IR Inten    --      0.0901                 2.5131                 3.2454

                     28                     29                     30
                      A                      A                      A
 Frequencies --    764.3479               822.3037               832.5496
 Red. masses --      1.7128                 1.4919                 2.6636
 Frc consts  --      0.5896                 0.5944                 1.0878
 IR Inten    --     48.4136                24.9708                14.9673

                     31                     32                     33
                      A                      A                      A
 Frequencies --    842.0719               854.9608               859.8213
 Red. masses --      2.6908                 1.3730                 1.2607
 Frc consts  --      1.1242                 0.5913                 0.5491
 IR Inten    --     23.2610                22.9042                25.7554

                     34                     35                     36
                      A                      A                      A
 Frequencies --    881.4681               916.5894               934.8639
 Red. masses --      1.3995                 1.4668                 1.9241
 Frc consts  --      0.6407                 0.7261                 0.9908
 IR Inten    --     52.3627                10.9180                12.9394

                     37                     38                     39
                      A                      A                      A
 Frequencies --    948.2567               962.0214               963.2753
 Red. masses --      1.3081                 1.3239                 1.3095
 Frc consts  --      0.6930                 0.7219                 0.7159
 IR Inten    --     26.1173                 0.1971                 1.1119

                     40                     41                     42
                      A                      A                      A
 Frequencies --    990.6463              1015.5074              1044.7569
 Red. masses --      2.0925                 1.4647                 2.7965
 Frc consts  --      1.2099                 0.8900                 1.7984
 IR Inten    --      9.3258                 0.4942                 1.0245

                     43                     44                     45
                      A                      A                      A
 Frequencies --   1057.0240              1071.8216              1076.2562
 Red. masses --      1.6968                 2.9969                 1.5193
 Frc consts  --      1.1170                 2.0285                 1.0369
 IR Inten    --      0.6151                 4.4240                10.3644

                     46                     47                     48
                      A                      A                      A
 Frequencies --   1087.3707              1095.8258              1151.4722
 Red. masses --      1.9014                 1.7208                 1.3563
 Frc consts  --      1.3246                 1.2175                 1.0595
 IR Inten    --      8.6167                 8.8923                 5.5031

                     49                     50                     51
                      A                      A                      A
 Frequencies --   1157.1726              1172.0032              1183.4444
 Red. masses --      2.6006                 2.0985                 2.2358
 Frc consts  --      2.0518                 1.6983                 1.8449
 IR Inten    --     25.3109                10.0786                33.3427

                     52                     53                     54
                      A                      A                      A
 Frequencies --   1212.0195              1220.3440              1224.7269
 Red. masses --      1.3021                 1.1390                 1.5429
 Frc consts  --      1.1269                 0.9994                 1.3636
 IR Inten    --      0.8167                 0.2094                 1.3913

                     55                     56                     57
                      A                      A                      A
 Frequencies --   1236.2491              1247.1520              1263.1196
 Red. masses --      2.5998                 2.4298                 1.3686
 Frc consts  --      2.3410                 2.2267                 1.2865
 IR Inten    --      0.2316                 3.1593                 5.4613

                     58                     59                     60
                      A                      A                      A
 Frequencies --   1319.2969              1343.4396              1353.1942
 Red. masses --      1.3121                 1.3347                 2.0007
 Frc consts  --      1.3455                 1.4193                 2.1585
 IR Inten    --      4.9692                 4.4671                 0.1080

                     61                     62                     63
                      A                      A                      A
 Frequencies --   1359.0080              1372.5056              1375.2340
 Red. masses --      1.9472                 1.2499                 1.4937
 Frc consts  --      2.1188                 1.3873                 1.6644
 IR Inten    --      0.5174                 3.1493                 1.8213

                     64                     65                     66
                      A                      A                      A
 Frequencies --   1380.0594              1412.0513              1418.0439
 Red. masses --      1.2739                 1.3248                 1.2908
 Frc consts  --      1.4295                 1.5563                 1.5293
 IR Inten    --      1.2523                 5.9220                13.0953

                     67                     68                     69
                      A                      A                      A
 Frequencies --   1441.3424              1443.1955              1450.1688
 Red. masses --      1.3527                 1.2536                 1.3456
 Frc consts  --      1.6558                 1.5384                 1.6673
 IR Inten    --      4.8369                 0.0681                16.0086

                     70                     71                     72
                      A                      A                      A
 Frequencies --   1462.5148              1511.4532              1513.9243
 Red. masses --      2.4054                 1.1094                 1.0851
 Frc consts  --      3.0314                 1.4932                 1.4653
 IR Inten    --      1.9631                 2.7933                 0.4222

                     73                     74                     75
                      A                      A                      A
 Frequencies --   1517.5915              1524.3103              1526.9952
 Red. masses --      1.0491                 1.1051                 1.0712
 Frc consts  --      1.4236                 1.5128                 1.4716
 IR Inten    --      5.6501                 8.9710                 7.5989

                     76                     77                     78
                      A                      A                      A
 Frequencies --   1531.6686              1536.5497              1539.7709
 Red. masses --      1.1748                 1.0980                 1.0496
 Frc consts  --      1.6239                 1.5274                 1.4661
 IR Inten    --     34.6315                 1.6531                 4.4956

                     79                     80                     81
                      A                      A                      A
 Frequencies --   1548.7241              1567.3063              1633.8476
 Red. masses --      1.0878                 2.5086                 5.5652
 Frc consts  --      1.5373                 3.6307                 8.7530
 IR Inten    --      9.5593                19.3287                 0.4627

                     82                     83                     84
                      A                      A                      A
 Frequencies --   1678.4714              1703.1329              2933.3710
 Red. masses --      5.8483                 1.0870                 1.0731
 Frc consts  --      9.7075                 1.8576                 5.4402
 IR Inten    --      0.6590                36.6667                71.8345

                     85                     86                     87
                      A                      A                      A
 Frequencies --   2955.7887              3014.0020              3036.2634
 Red. masses --      1.0718                 1.0646                 1.0419
 Frc consts  --      5.5170                 5.6982                 5.6590
 IR Inten    --     44.5653                50.3880                14.6871

                     88                     89                     90
                      A                      A                      A
 Frequencies --   3041.4420              3047.5486              3050.3248
 Red. masses --      1.0398                 1.0750                 1.0777
 Frc consts  --      5.6672                 5.8824                 5.9081
 IR Inten    --     37.9437                 9.7422                29.8616

                     91                     92                     93
                      A                      A                      A
 Frequencies --   3059.4008              3067.8610              3074.3252
 Red. masses --      1.0755                 1.0899                 1.0981
 Frc consts  --      5.9311                 6.0435                 6.1148
 IR Inten    --     67.5117                40.0056                40.4428

                     94                     95                     96
                      A                      A                      A
 Frequencies --   3097.0356              3100.1615              3101.8553
 Red. masses --      1.0968                 1.0991                 1.1029
 Frc consts  --      6.1985                 6.2241                 6.2521
 IR Inten    --     21.1831                31.7545                33.0966

                     97                     98                     99
                      A                      A                      A
 Frequencies --   3117.8951              3124.6612              3169.1798
 Red. masses --      1.1007                 1.1022                 1.0865
 Frc consts  --      6.3046                 6.3405                 6.4292
 IR Inten    --     26.0582                17.1119                13.5035

                    100                    101                    102
                      A                      A                      A
 Frequencies --   3174.4591              3186.6890              3192.9725
 Red. masses --      1.0870                 1.0941                 1.0943
 Frc consts  --      6.4538                 6.5460                 6.5729
 IR Inten    --     13.1050                32.7442                 9.6690

                    103                    104                    105
                      A                      A                      A
 Frequencies --   3473.2080              3499.8251              3554.3612
 Red. masses --      1.0501                 1.0729                 1.0920
 Frc consts  --      7.4632                 7.7428                 8.1285
 IR Inten    --      2.3606                 3.3060                 0.9134

 - Thermochemistry -
 -------------------
 Temperature   298.150 Kelvin.  Pressure   1.00000 Atm.
 Atom     1 has atomic number  6 and mass  12.00000

 Molecular mass:   206.17830 amu.
 Principal axes and moments of inertia in atomic units:
                           1         2         3
     Eigenvalues --  1756.029696500.438007381.64211
           X            0.99999   0.00532   0.00029
           Y           -0.00532   0.99996   0.00695
           Z           -0.00026  -0.00695   0.99998
 This molecule is an asymmetric top.
 Rotational symmetry number  1.
 Warning -- assumption of classical behavior for rotation
           may cause significant error
 Rotational temperatures (Kelvin)      0.04932     0.01332     0.01173
 Rotational constants (GHZ):           1.02774     0.27763     0.24449
 Zero-point vibrational energy     880320.3 (Joules/Mol)
                                  210.40159 (Kcal/Mol)
 Warning -- explicit consideration of  24 degrees of freedom as
           vibrations may cause significant error
 Vibrational temperatures:     27.53    44.05    50.93    56.55    96.13
          (Kelvin)            145.84   171.22   213.64   283.57   310.31
                              330.96   371.95   403.83   444.46   449.71
                              487.83   566.84   578.10   594.08   604.71
                              675.42   692.33   787.90   870.24   950.29
                             1031.64  1064.64  1099.73  1183.11  1197.85
                             1211.55  1230.10  1237.09  1268.24  1318.77
                             1345.06  1364.33  1384.13  1385.94  1425.32
                             1461.09  1503.17  1520.82  1542.11  1548.49
                             1564.48  1576.65  1656.71  1664.91  1686.25
                             1702.71  1743.83  1755.80  1762.11  1778.69
                             1794.37  1817.35  1898.17  1932.91  1946.94
                             1955.31  1974.73  1978.65  1985.60  2031.63
                             2040.25  2073.77  2076.44  2086.47  2104.23
                             2174.64  2178.20  2183.48  2193.14  2197.01
                             2203.73  2210.75  2215.39  2228.27  2255.00
                             2350.74  2414.95  2450.43  4220.47  4252.72
                             4336.48  4368.51  4375.96  4384.74  4388.74
                             4401.80  4413.97  4423.27  4455.94  4460.44
                             4462.88  4485.96  4495.69  4559.74  4567.34
                             4584.93  4593.98  4997.17  5035.47  5113.93

 Zero-point correction=                           0.335296 (Hartree/Particle)
 Thermal correction to Energy=                    0.351875
 Thermal correction to Enthalpy=                  0.352819
 Thermal correction to Gibbs Free Energy=         0.288701
 Sum of electronic and zero-point Energies=           -617.860384
 Sum of electronic and thermal Energies=              -617.843805
 Sum of electronic and thermal Enthalpies=            -617.842861
 Sum of electronic and thermal Free Energies=         -617.906979

                     E (Thermal)             CV                S
                      KCal/Mol        Cal/Mol-Kelvin    Cal/Mol-Kelvin
 Total                  220.805             61.693            134.948
 Electronic               0.000              0.000              0.000
 Translational            0.889              2.981             41.875
 Rotational               0.889              2.981             32.799
 Vibrational            219.027             55.731             60.274
 Vibration     1          0.593              1.986              6.722
 Vibration     2          0.594              1.984              5.789
 Vibration     3          0.594              1.982              5.501
 Vibration     4          0.594              1.981              5.294
 Vibration     5          0.598              1.970              4.245
 Vibration     6          0.604              1.948              3.428
 Vibration     7          0.609              1.933              3.116
 Vibration     8          0.618              1.904              2.692
 Vibration     9          0.636              1.844              2.160
 Vibration    10          0.645              1.817              1.995
 Vibration    11          0.652              1.795              1.879
 Vibration    12          0.667              1.748              1.672
 Vibration    13          0.680              1.709              1.530
 Vibration    14          0.698              1.657              1.368
 Vibration    15          0.701              1.650              1.349
 Vibration    16          0.719              1.597              1.217
 Vibration    17          0.761              1.483              0.985
 Vibration    18          0.767              1.466              0.956
 Vibration    19          0.777              1.442              0.916
 Vibration    20          0.783              1.426              0.891
 Vibration    21          0.827              1.318              0.739
 Vibration    22          0.837              1.292              0.707
 Vibration    23          0.903              1.145              0.549
 Vibration    24          0.963              1.022              0.441

 Optimization completed.
    -- Stationary point found.
 Normal termination of Gaussian 16 at Thu Dec 10 16:11:50 2020.

 ----------------------------------------------------------------------
 # B3LYP/6-311++G(d,p) empiricaldispersion=gd3bj scf=xqc pop=npa geom=c
 heck
 ----------------------------------------------------------------------

 ---------------------------------------
 CID_115198694_JID_5357_Energie_neutraal
 ---------------------------------------
 Structure from the checkpoint file:  "JID_5357.chk"
 Charge =  0 Multiplicity = 1

 SCF Done:  E(RB3LYP) =  -618.374245686     A.U. after   14 cycles
 Normal termination of Gaussian 16 at Thu Dec 10 16:18:18 2020.

 ----------------------------------------------------------------------
 # B3LYP/6-311++G(d,p) empiricaldispersion=gd3bj scf=xqc pop=npa geom=c
 heck
 ----------------------------------------------------------------------

 -------------------------------------
 CID_115198694_JID_5357_Energie_kation
 -------------------------------------
 Structure from the checkpoint file:  "JID_5357.chk"
 Charge =  1 Multiplicity = 2

 SCF Done:  E(UB3LYP) =  -618.089209725     A.U. after   24 cycles
 Normal termination of Gaussian 16 at Thu Dec 10 16:32:16 2020.
 Gaussian 16:  ES64L-G16RevA.03 25-Dec-2016

 ----------------------------------------------------------------------
 # B3LYP/6-311++G(d,p) empiricaldispersion=gd3bj scf=xqc pop=npa geom=c
 heck
 ----------------------------------------------------------------------

 ------------------------------------
 CID_115198694_JID_5357_Energie_anion
 ------------------------------------
 Structure from the checkpoint file:  "JID_5357.chk"
 Charge = -1 Multiplicity = 2

                         Standard orientation:
 ---------------------------------------------------------------------
 Center     Atomic      Atomic             Coordinates (Angstroms)
 Number     Number       Type             X           Y           Z
 ---------------------------------------------------------------------
      1          6           0       -4.376756   -2.031391   -0.229226
      2          6           0       -3.406295   -0.886152   -0.072488
      3          6           0       -3.071043   -0.066086   -1.153775
      4          6           0       -2.192373    1.007381   -0.999280
      5          6           0       -1.617427    1.295776    0.242902
      6          6           0       -1.953216    0.472815    1.327226
      7          6           0       -2.829578   -0.597687    1.172079
      8          6           0       -0.597375    2.400439    0.400324
      9          6           0        0.832464    1.838835    0.457187
     10          7           0        1.163923    1.170815   -0.795140
     11          6           0        2.444064    0.468798   -0.792434
     12          6           0        2.611851   -0.691638    0.215587
     13          6           0        1.463507   -1.700552    0.106179
     14          6           0        3.962382   -1.390830    0.010553
     15          7           0        5.090820   -0.475896    0.229272
     16          1           0       -4.467720   -2.337201   -1.276386
     17          1           0       -4.062754   -2.904956    0.352795
     18          1           0       -5.380173   -1.754162    0.119885
     19          1           0       -3.501388   -0.269480   -2.131635
     20          1           0       -1.941379    1.626822   -1.856805
     21          1           0       -1.517085    0.672873    2.303447
     22          1           0       -3.072486   -1.221035    2.029791
     23          1           0       -0.668943    3.101028   -0.438698
     24          1           0       -0.789028    2.963967    1.321670
     25          1           0        1.547461    2.658363    0.608635
     26          1           0        0.909801    1.183351    1.343588
     27          1           0        0.419659    0.514383   -1.022473
     28          1           0        2.602006    0.074651   -1.807727
     29          1           0        3.227179    1.216002   -0.612291
     30          1           0        2.624917   -0.274845    1.230797
     31          1           0        1.394494   -2.112009   -0.909920
     32          1           0        1.611666   -2.540907    0.794393
     33          1           0        0.497049   -1.246064    0.348366
     34          1           0        4.051267   -2.201863    0.743484
     35          1           0        3.964588   -1.869821   -0.987845
     36          1           0        5.957262   -1.009564    0.268533
     37          1           0        5.189186    0.147789   -0.569533
 ---------------------------------------------------------------------

 SCF Done:  E(UB3LYP) =  -618.359788662     A.U. after   33 cycles
 SCF Done:  E(UB3LYP) =  -618.359788662     a.u. after    1 cycles

 The electronic state is 2-A.
 Alpha  occ. eigenvalues --  -14.20231 -14.19774 -10.10379 -10.09518 -10.09493
 Alpha  occ. eigenvalues --  -10.09295 -10.09166 -10.08638 -10.08453 -10.08450
 Alpha  occ. eigenvalues --  -10.08319 -10.08273 -10.07588 -10.07352 -10.06403
 Alpha  occ. eigenvalues --   -0.81801  -0.78796  -0.77251  -0.70806  -0.68480
 Alpha  occ. eigenvalues --   -0.65779  -0.64880  -0.59589  -0.57616  -0.55550
 Alpha  occ. eigenvalues --   -0.52691  -0.51847  -0.48432  -0.46592  -0.40948
 Alpha  occ. eigenvalues --   -0.40781  -0.40063  -0.38330  -0.36992  -0.36693
 Alpha  occ. eigenvalues --   -0.35765  -0.34609  -0.33902  -0.33139  -0.33016
 Alpha  occ. eigenvalues --   -0.31675  -0.30610  -0.29705  -0.28782  -0.28380
 Alpha  occ. eigenvalues --   -0.27716  -0.27494  -0.25702  -0.25147  -0.24885
 Alpha  occ. eigenvalues --   -0.24351  -0.24159  -0.23448  -0.16747  -0.15188
 Alpha  occ. eigenvalues --   -0.15092  -0.13215   0.04104
 Alpha virt. eigenvalues --    0.05332   0.06300   0.06752   0.07089   0.07379
 Alpha virt. eigenvalues --    0.08090   0.08315   0.08450   0.09032   0.09342
 Alpha virt. eigenvalues --    0.09890   0.10920   0.10985   0.11213   0.11664

  Beta  occ. eigenvalues --  -14.20227 -14.19734 -10.10374 -10.09496 -10.09481
  Beta  occ. eigenvalues --  -10.09289 -10.09159 -10.08633 -10.08445 -10.08443
  Beta  occ. eigenvalues --  -10.08307 -10.08257 -10.07552 -10.07349 -10.06392
  Beta  occ. eigenvalues --   -0.81790  -0.78734  -0.77232  -0.70781  -0.68450
  Beta  occ. eigenvalues --   -0.65756  -0.64854  -0.59547  -0.57576  -0.55492
  Beta  occ. eigenvalues --   -0.52661  -0.51815  -0.48402  -0.46552  -0.40925
  Beta  occ. eigenvalues --   -0.40743  -0.40039  -0.38297  -0.36944  -0.36648
  Beta  occ. eigenvalues --   -0.35736  -0.34588  -0.33866  -0.33115  -0.32973
  Beta  occ. eigenvalues --   -0.31645  -0.30580  -0.29673  -0.28752  -0.28350
  Beta  occ. eigenvalues --   -0.27693  -0.27473  -0.25678  -0.25122  -0.24863
  Beta  occ. eigenvalues --   -0.24330  -0.24136  -0.23421  -0.16725  -0.15148
  Beta  occ. eigenvalues --   -0.15049  -0.13205
  Beta virt. eigenvalues --    0.06022   0.06544   0.06579   0.07046   0.07309
  Beta virt. eigenvalues --    0.07665   0.08374   0.08757   0.08889   0.09307
  Beta virt. eigenvalues --    0.09522   0.10355   0.11066   0.11251   0.11520

 Mulliken charges and spin densities:
               1          2
     1  C    2.883125  -3.556772
     2  C   -0.045020   0.507137
     3  C   -0.677550   0.173011
     4  C   -1.059451   0.588455
     5  C    1.588301  -0.824527
     6  C   -0.705020   0.524039
     7  C   -0.968588   0.749894
     8  C   -0.180774  -0.628172
     9  C   -0.077166  -0.111310
    10  N   -0.042913   0.045052
    11  C   -0.230516  -0.508177
    12  C   -0.227573   0.827628
    13  C   -0.325516  -0.282978
    14  C    0.519855  -1.255150
    15  N   -0.371227   0.035622
    16  H   -0.276224   0.422757
    17  H   -0.194082   0.341564
    18  H   -0.108988   0.274808
    19  H   -0.466108   0.640035
    20  H   -0.044047   0.213852
    21  H   -0.289679   0.453414
    22  H   -0.617419   0.808139
    23  H    0.114379   0.040707
    24  H    0.064584   0.105059
    25  H    0.063080   0.088854
    26  H    0.167229  -0.089003
    27  H    0.313070  -0.050189
    28  H   -0.026918   0.198869
    29  H    0.114042   0.016481
    30  H    0.046089   0.149047
    31  H    0.007670   0.136560
    32  H   -0.174174   0.294358
    33  H    0.757298  -0.600789
    34  H   -0.131780   0.286207
    35  H   -0.115273   0.240896
    36  H   -0.227587   0.475142
    37  H   -0.055130   0.269479
 Sum of Mulliken charges =  -1.00000   1.00000

 Dipole moment (field-independent basis, Debye):
    X=             -1.2492    Y=              4.0103    Z=             -0.2733  Tot=              4.2092
 Quadrupole moment (field-independent basis, Debye-Ang):
   XX=           -218.0192   YY=           -134.8108   ZZ=           -131.7417
   XY=             -4.5627   XZ=             -0.0140   YZ=              1.9050

 Summary of Natural Population Analysis:

                                       Natural Population
                Natural  -----------------------------------------------
    Atom  No    Charge         Core      Valence    Rydberg      Total
 -----------------------------------------------------------------------
      C    1   -0.29094      0.99964     2.28616    0.00515     3.29094
      C    2   -0.01737      0.99951     2.00759    0.01026     3.01737
      C    3   -0.09929      0.99951     2.08953    0.01025     3.09929
      C    4   -0.10320      0.99951     2.09363    0.01006     3.10320
      C    5   -0.02536      0.99950     2.01463    0.01122     3.02536
      C    6   -0.09946      0.99951     2.08934    0.01062     3.09946
      C    7   -0.09601      0.99951     2.08623    0.01027     3.09601
      C    8   -0.19886      0.99959     2.19044    0.00882     3.19886
      C    9   -0.08072      0.99962     2.07211    0.00899     3.08072
      N   10   -0.34308      0.99975     2.83224    0.01109     3.84308
      C   11   -0.08615      0.99960     2.07470    0.01184     3.08615
      C   12   -0.12634      0.99959     2.11731    0.00944     3.12634
      C   13   -0.29154      0.99964     2.28521    0.00669     3.29154
      C   14   -0.08522      0.99961     2.07324    0.01237     3.08522
      N   15   -0.42294      0.99977     2.91234    0.01083     3.92294
      H   16    0.10272      0.00000     0.39595    0.00134     0.39728
      H   17    0.10427      0.00000     0.39442    0.00131     0.39573
      H   18    0.10582      0.00000     0.39247    0.00171     0.39418
      H   19    0.10047      0.00000     0.39852    0.00101     0.39953
      H   20    0.10151      0.00000     0.39739    0.00110     0.39849
      H   21    0.10033      0.00000     0.39851    0.00117     0.39967
      H   22    0.10147      0.00000     0.39728    0.00125     0.39853
      H   23    0.10213      0.00000     0.39655    0.00132     0.39787
      H   24    0.10240      0.00000     0.39667    0.00093     0.39760
      H   25    0.09123      0.00000     0.40752    0.00125     0.40877
      H   26    0.07986      0.00000     0.41835    0.00179     0.42014
      H   27    0.17588      0.00000     0.32017    0.00395     0.32412
      H   28    0.09138      0.00000     0.40752    0.00110     0.40862
      H   29    0.09342      0.00000     0.40524    0.00134     0.40658
      H   30    0.09568      0.00000     0.40203    0.00228     0.40432
      H   31    0.09622      0.00000     0.40267    0.00111     0.40378
      H   32    0.10059      0.00000     0.39849    0.00092     0.39941
      H   33    0.10307      0.00000     0.39556    0.00137     0.39693
      H   34    0.09143      0.00000     0.40739    0.00117     0.40857
      H   35    0.07699      0.00000     0.42114    0.00188     0.42301
      H   36    0.17733      0.00000     0.31995    0.00272     0.32267
      H   37    0.17229      0.00000     0.32560    0.00211     0.32771
 =======================================================================
   * Total *    0.00000     14.99387    41.82410    0.18202    57.00000

 Normal termination of Gaussian 16 at Thu Dec 10 16:51:27 2020.
