 Gaussian 16, Revision A.03,

 -----------------------------------------------------------
 # opt freq B3LYP/6-31G(d) empiricaldispersion=gd3bj scf=xqc
 -----------------------------------------------------------

 ------------------------------
 CID_64382208_JID_9159_neutraal
 ------------------------------
 Symbolic Z-matrix:
 Charge =  0 Multiplicity = 1

 SCF Done:  E(RB3LYP) =  -1113.47572057     A.U. after   14 cycles
 SCF Done:  E(RB3LYP) =  -1113.47986995     A.U. after   12 cycles
 SCF Done:  E(RB3LYP) =  -1113.48026691     A.U. after   14 cycles
 SCF Done:  E(RB3LYP) =  -1113.48173703     A.U. after   12 cycles
 SCF Done:  E(RB3LYP) =  -1113.48279946     A.U. after   14 cycles
 SCF Done:  E(RB3LYP) =  -1113.48366948     A.U. after   14 cycles
 SCF Done:  E(RB3LYP) =  -1113.48384418     A.U. after   11 cycles
 SCF Done:  E(RB3LYP) =  -1113.48367448     A.U. after   12 cycles
 SCF Done:  E(RB3LYP) =  -1113.48385897     A.U. after   12 cycles
 SCF Done:  E(RB3LYP) =  -1113.48398365     A.U. after   11 cycles
 SCF Done:  E(RB3LYP) =  -1113.48399784     A.U. after    7 cycles
 SCF Done:  E(RB3LYP) =  -1113.48399799     A.U. after    7 cycles
 SCF Done:  E(RB3LYP) =  -1113.48399802     A.U. after    7 cycles
 SCF Done:  E(RB3LYP) =  -1113.48399802     A.U. after    6 cycles
 Optimization completed.
    -- Stationary point found.
 Normal termination of Gaussian 16 at Sat Dec 12 09:29:47 2020.

 --------------------------------------------------------------------
 #N Geom=AllCheck Guess=TCheck SCRF=Check GenChk RB3LYP/6-31G(d) Freq
 --------------------------------------------------------------------

 Structure from the checkpoint file:  "JID_9159.chk"
 ------------------------------
 CID_64382208_JID_9159_neutraal
 ------------------------------
 Charge =  0 Multiplicity = 1

 SCF Done:  E(RB3LYP) =  -1113.48399802     A.U. after    1 cycles

  Exact polarizability: 226.569  15.918 195.895  18.401 -18.603 154.496
 Approx polarizability: 330.617  39.630 316.404  48.139 -45.386 265.148

                      1                      2                      3
                      A                      A                      A
 Frequencies --     20.1373                25.5305                41.7772
 Red. masses --      4.3297                 3.3025                 3.9222
 Frc consts  --      0.0010                 0.0013                 0.0040
 IR Inten    --      0.0293                 0.0915                 0.0041

                      4                      5                      6
                      A                      A                      A
 Frequencies --     46.7958                74.2837                83.1913
 Red. masses --      3.9388                 3.8801                 3.8649
 Frc consts  --      0.0051                 0.0126                 0.0158
 IR Inten    --      0.2541                 0.0376                 0.1545

                      7                      8                      9
                      A                      A                      A
 Frequencies --    106.9531               136.3802               170.6838
 Red. masses --      3.9183                 2.1317                 3.8519
 Frc consts  --      0.0264                 0.0234                 0.0661
 IR Inten    --      1.9108                 1.5499                 0.7674

                     10                     11                     12
                      A                      A                      A
 Frequencies --    199.5411               224.3089               233.6526
 Red. masses --      2.9370                 3.0822                 1.1159
 Frc consts  --      0.0689                 0.0914                 0.0359
 IR Inten    --      1.7768                 0.6309                 0.3040

                     13                     14                     15
                      A                      A                      A
 Frequencies --    242.8878               260.6862               272.6665
 Red. masses --      3.0729                 1.5012                 2.5977
 Frc consts  --      0.1068                 0.0601                 0.1138
 IR Inten    --      0.3043                 1.1632                 1.4077

                     16                     17                     18
                      A                      A                      A
 Frequencies --    292.9283               308.5487               333.6023
 Red. masses --      1.1076                 4.7575                 3.7107
 Frc consts  --      0.0560                 0.2669                 0.2433
 IR Inten    --      0.5261                 1.0497                 0.3593

                     19                     20                     21
                      A                      A                      A
 Frequencies --    353.0122               408.0434               413.9700
 Red. masses --      4.5415                 4.3174                 2.9709
 Frc consts  --      0.3334                 0.4235                 0.3000
 IR Inten    --      1.0758                 1.1173                 0.1617

                     22                     23                     24
                      A                      A                      A
 Frequencies --    421.5294               445.0748               469.9686
 Red. masses --      3.0375                 4.6394                 4.1450
 Frc consts  --      0.3180                 0.5415                 0.5394
 IR Inten    --      0.3933                 1.3172                 7.8617

                     25                     26                     27
                      A                      A                      A
 Frequencies --    505.5171               521.8425               571.3157
 Red. masses --      3.7575                 3.5437                 2.9796
 Frc consts  --      0.5658                 0.5686                 0.5730
 IR Inten    --      4.2592                 2.5751                13.9036

                     28                     29                     30
                      A                      A                      A
 Frequencies --    606.1765               624.7066               638.5370
 Red. masses --      3.8460                 3.3167                 5.4032
 Frc consts  --      0.8326                 0.7626                 1.2980
 IR Inten    --      2.5298                26.1207                 3.7249

                     31                     32                     33
                      A                      A                      A
 Frequencies --    645.6526               657.1074               710.0022
 Red. masses --      3.9158                 4.5409                 1.7289
 Frc consts  --      0.9618                 1.1552                 0.5135
 IR Inten    --      7.5628                 3.7757                32.7497

                     34                     35                     36
                      A                      A                      A
 Frequencies --    745.0992               764.1407               782.8879
 Red. masses --      2.9533                 2.8649                 2.0393
 Frc consts  --      0.9660                 0.9856                 0.7364
 IR Inten    --     18.9302                68.1643                18.5455

                     37                     38                     39
                      A                      A                      A
 Frequencies --    797.3934               817.6058               848.2793
 Red. masses --      3.5413                 2.4818                 1.5569
 Frc consts  --      1.3267                 0.9775                 0.6601
 IR Inten    --      2.1669                72.5573                22.9115

                     40                     41                     42
                      A                      A                      A
 Frequencies --    854.9094               855.7924               909.9859
 Red. masses --      1.2706                 1.2805                 1.5142
 Frc consts  --      0.5472                 0.5525                 0.7388
 IR Inten    --      2.3678                 2.5346                 6.8143

                     43                     44                     45
                      A                      A                      A
 Frequencies --    922.6050               965.9614               968.1778
 Red. masses --      1.4066                 1.3530                 1.2889
 Frc consts  --      0.7054                 0.7438                 0.7119
 IR Inten    --      2.7482                 0.6965                 0.2735

                     46                     47                     48
                      A                      A                      A
 Frequencies --    971.8070               992.0240              1003.4298
 Red. masses --      1.3428                 1.2582                 1.8105
 Frc consts  --      0.7472                 0.7295                 1.0740
 IR Inten    --      0.3035                 0.4743                 4.5555

                     49                     50                     51
                      A                      A                      A
 Frequencies --   1022.0779              1023.4118              1039.4277
 Red. masses --      1.6937                 5.8584                 3.4737
 Frc consts  --      1.0425                 3.6152                 2.2112
 IR Inten    --     14.4710                 0.9870                 6.6361

                     52                     53                     54
                      A                      A                      A
 Frequencies --   1059.5067              1071.3908              1074.1683
 Red. masses --      2.1678                 1.5556                 1.6172
 Frc consts  --      1.4338                 1.0521                 1.0994
 IR Inten    --      6.8695                12.1725                 3.8321

                     55                     56                     57
                      A                      A                      A
 Frequencies --   1086.5006              1090.6161              1120.8965
 Red. masses --      1.9105                 2.4154                 3.0238
 Frc consts  --      1.3288                 1.6927                 2.2384
 IR Inten    --      1.9004                10.5001                 4.2196

                     58                     59                     60
                      A                      A                      A
 Frequencies --   1136.6202              1141.8758              1155.7577
 Red. masses --      1.6714                 1.4825                 2.9927
 Frc consts  --      1.2722                 1.1389                 2.3553
 IR Inten    --      4.1667                 6.0525                22.7386

                     61                     62                     63
                      A                      A                      A
 Frequencies --   1173.7426              1194.1999              1215.8179
 Red. masses --      1.4438                 1.0961                 1.7131
 Frc consts  --      1.1719                 0.9210                 1.4920
 IR Inten    --     14.9964                 0.0523                 1.0001

                     64                     65                     66
                      A                      A                      A
 Frequencies --   1219.6229              1220.3310              1228.9333
 Red. masses --      1.2762                 1.1798                 1.8649
 Frc consts  --      1.1185                 1.0352                 1.6594
 IR Inten    --      5.6081                 0.1705                 4.9313

                     67                     68                     69
                      A                      A                      A
 Frequencies --   1253.3569              1254.0291              1319.1934
 Red. masses --      1.5722                 2.1739                 2.3342
 Frc consts  --      1.4552                 2.0142                 2.3933
 IR Inten    --     16.3687                 7.8328                12.1966

                     70                     71                     72
                      A                      A                      A
 Frequencies --   1333.3636              1337.2951              1363.1010
 Red. masses --      1.7997                 1.9437                 1.3309
 Frc consts  --      1.8852                 2.0481                 1.4570
 IR Inten    --      0.6288                 3.6670                 2.9223

                     73                     74                     75
                      A                      A                      A
 Frequencies --   1369.9726              1384.3874              1389.7933
 Red. masses --      2.8156                 1.3802                 1.7336
 Frc consts  --      3.1135                 1.5585                 1.9729
 IR Inten    --      0.9340                 1.3185                 6.6447

                     76                     77                     78
                      A                      A                      A
 Frequencies --   1433.3247              1437.7421              1454.7300
 Red. masses --      1.2578                 1.2376                 2.2693
 Frc consts  --      1.5224                 1.5073                 2.8294
 IR Inten    --      4.8310                 5.6558                10.3631

                     79                     80                     81
                      A                      A                      A
 Frequencies --   1480.9178              1501.5419              1502.8540
 Red. masses --      1.1710                 1.1524                 2.2126
 Frc consts  --      1.5131                 1.5308                 2.9444
 IR Inten    --      0.6057                 8.6060                 7.2186

                     82                     83                     84
                      A                      A                      A
 Frequencies --   1517.9140              1518.3305              1524.6029
 Red. masses --      1.0546                 1.0522                 1.0684
 Frc consts  --      1.4316                 1.4292                 1.4631
 IR Inten    --      5.6041                 3.5396                12.3791

                     85                     86                     87
                      A                      A                      A
 Frequencies --   1528.8400              1536.2852              1541.0313
 Red. masses --      1.0775                 1.0756                 2.1686
 Frc consts  --      1.4839                 1.4957                 3.0343
 IR Inten    --      0.3063                 3.2011                 9.0585

                     88                     89                     90
                      A                      A                      A
 Frequencies --   1547.8804              1549.8504              1620.5833
 Red. masses --      1.0695                 2.0154                 6.1642
 Frc consts  --      1.5097                 2.8523                 9.5382
 IR Inten    --      7.8663                 7.9448                 0.1231

                     91                     92                     93
                      A                      A                      A
 Frequencies --   1646.0589              1656.8195              1666.6438
 Red. masses --      5.4331                 5.6694                 5.5508
 Frc consts  --      8.6734                 9.1693                 9.0843
 IR Inten    --      0.8149                 1.7138                 2.1789

                     94                     95                     96
                      A                      A                      A
 Frequencies --   2988.6913              3035.7299              3052.9083
 Red. masses --      1.0534                 1.0840                 1.0379
 Frc consts  --      5.5437                 5.8861                 5.6993
 IR Inten    --     68.8502                17.4618                22.2452

                     97                     98                     99
                      A                      A                      A
 Frequencies --   3054.6637              3074.6039              3075.1509
 Red. masses --      1.0385                 1.0852                 1.0805
 Frc consts  --      5.7094                 6.0440                 6.0201
 IR Inten    --     23.8005                12.1893                42.1475

                    100                    101                    102
                      A                      A                      A
 Frequencies --   3118.6351              3119.9110              3123.9279
 Red. masses --      1.0984                 1.1022                 1.0983
 Frc consts  --      6.2943                 6.3212                 6.3153
 IR Inten    --     29.6324                33.4505                19.2226

                    103                    104                    105
                      A                      A                      A
 Frequencies --   3141.9374              3144.1725              3173.5806
 Red. masses --      1.1039                 1.1028                 1.0878
 Frc consts  --      6.4209                 6.4231                 6.4549
 IR Inten    --     25.2584                21.7398                16.8173

                    106                    107                    108
                      A                      A                      A
 Frequencies --   3177.9857              3179.6908              3186.2950
 Red. masses --      1.0858                 1.0889                 1.0873
 Frc consts  --      6.4610                 6.4866                 6.5041
 IR Inten    --      3.4418                12.9231                 1.7953

                    109                    110                    111
                      A                      A                      A
 Frequencies --   3196.3611              3207.9890              3209.5496
 Red. masses --      1.0919                 1.0957                 1.0929
 Frc consts  --      6.5726                 6.6437                 6.6329
 IR Inten    --     24.7805                32.0134                 8.5775

                    112                    113                    114
                      A                      A                      A
 Frequencies --   3219.2542              3221.0743              3479.3031
 Red. masses --      1.0933                 1.0931                 1.0735
 Frc consts  --      6.6760                 6.6818                 7.6568
 IR Inten    --      7.9871                 5.7347                 1.0975

 - Thermochemistry -
 -------------------
 Temperature   298.150 Kelvin.  Pressure   1.00000 Atm.
 Atom     1 has atomic number  6 and mass  12.00000

 Molecular mass:   271.13947 amu.
 Principal axes and moments of inertia in atomic units:
                           1         2         3
     Eigenvalues --  3476.896067200.853418880.39961
           X            0.99999   0.00145  -0.00289
           Y           -0.00153   0.99963  -0.02702
           Z            0.00285   0.02702   0.99963
 This molecule is an asymmetric top.
 Rotational symmetry number  1.
 Warning -- assumption of classical behavior for rotation
           may cause significant error
 Rotational temperatures (Kelvin)      0.02491     0.01203     0.00975
 Rotational constants (GHZ):           0.51907     0.25063     0.20323
 Zero-point vibrational energy     899555.1 (Joules/Mol)
                                  214.99883 (Kcal/Mol)
 Warning -- explicit consideration of  28 degrees of freedom as
           vibrations may cause significant error
 Vibrational temperatures:     28.97    36.73    60.11    67.33   106.88
          (Kelvin)            119.69   153.88   196.22   245.58   287.10
                              322.73   336.17   349.46   375.07   392.31
                              421.46   443.93   479.98   507.91   587.08
                              595.61   606.49   640.36   676.18   727.33
                              750.81   822.00   872.15   898.81   918.71
                              928.95   945.43  1021.53  1072.03  1099.43
                             1126.40  1147.27  1176.35  1220.48  1230.02
                             1231.29  1309.27  1327.42  1389.80  1392.99
                             1398.21  1427.30  1443.71  1470.54  1472.46
                             1495.50  1524.39  1541.49  1545.49  1563.23
                             1569.15  1612.72  1635.34  1642.90  1662.88
                             1688.75  1718.19  1749.29  1754.77  1755.78
                             1768.16  1803.30  1804.27  1898.03  1918.41
                             1924.07  1961.20  1971.08  1991.82  1999.60
                             2062.23  2068.59  2093.03  2130.71  2160.38
                             2162.27  2183.94  2184.54  2193.56  2199.66
                             2210.37  2217.20  2227.05  2229.89  2331.66
                             2368.31  2383.79  2397.93  4300.06  4367.74
                             4392.45  4394.98  4423.67  4424.46  4487.02
                             4488.86  4494.64  4520.55  4523.76  4566.07
                             4572.41  4574.87  4584.37  4598.85  4615.58
                             4617.83  4631.79  4634.41  5005.94

 Zero-point correction=                           0.342622 (Hartree/Particle)
 Thermal correction to Energy=                    0.361408
 Thermal correction to Enthalpy=                  0.362353
 Thermal correction to Gibbs Free Energy=         0.293884
 Sum of electronic and zero-point Energies=          -1113.141376
 Sum of electronic and thermal Energies=             -1113.122590
 Sum of electronic and thermal Enthalpies=           -1113.121645
 Sum of electronic and thermal Free Energies=        -1113.190114

                     E (Thermal)             CV                S
                      KCal/Mol        Cal/Mol-Kelvin    Cal/Mol-Kelvin
 Total                  226.787             72.134            144.104
 Electronic               0.000              0.000              0.000
 Translational            0.889              2.981             42.691
 Rotational               0.889              2.981             33.763
 Vibrational            225.010             66.173             67.650
 Vibration     1          0.593              1.986              6.621
 Vibration     2          0.593              1.985              6.150
 Vibration     3          0.594              1.980              5.173
 Vibration     4          0.595              1.979              4.948
 Vibration     5          0.599              1.966              4.037
 Vibration     6          0.600              1.961              3.814
 Vibration     7          0.606              1.944              3.323
 Vibration     8          0.614              1.917              2.854
 Vibration     9          0.626              1.879              2.428
 Vibration    10          0.638              1.841              2.137
 Vibration    11          0.649              1.804              1.924
 Vibration    12          0.654              1.789              1.851
 Vibration    13          0.659              1.775              1.782
 Vibration    14          0.669              1.745              1.657
 Vibration    15          0.676              1.724              1.579
 Vibration    16          0.688              1.687              1.457
 Vibration    17          0.698              1.657              1.370
 Vibration    18          0.715              1.608              1.243
 Vibration    19          0.729              1.569              1.153
 Vibration    20          0.773              1.453              0.934
 Vibration    21          0.778              1.440              0.913
 Vibration    22          0.784              1.423              0.887
 Vibration    23          0.804              1.372              0.811
 Vibration    24          0.827              1.317              0.738
 Vibration    25          0.861              1.238              0.644
 Vibration    26          0.877              1.202              0.606
 Vibration    27          0.927              1.093              0.502
 Vibration    28          0.965              1.019              0.439

 Optimization completed.
    -- Stationary point found.
 Normal termination of Gaussian 16 at Sat Dec 12 09:51:25 2020.

 ----------------------------------------------------------------------
 # B3LYP/6-311++G(d,p) empiricaldispersion=gd3bj scf=xqc pop=npa geom=c
 heck
 ----------------------------------------------------------------------

 --------------------------------------
 CID_64382208_JID_9159_Energie_neutraal
 --------------------------------------
 Structure from the checkpoint file:  "JID_9159.chk"
 Charge =  0 Multiplicity = 1

 SCF Done:  E(RB3LYP) =  -1113.69989141     A.U. after   16 cycles
 Normal termination of Gaussian 16 at Sat Dec 12 10:00:35 2020.

 ----------------------------------------------------------------------
 # B3LYP/6-311++G(d,p) empiricaldispersion=gd3bj scf=xqc pop=npa geom=c
 heck
 ----------------------------------------------------------------------

 ------------------------------------
 CID_64382208_JID_9159_Energie_kation
 ------------------------------------
 Structure from the checkpoint file:  "JID_9159.chk"
 Charge =  1 Multiplicity = 2

 SCF Done:  E(UB3LYP) =  -1113.41412683     A.U. after   33 cycles
 SCF Done:  E(UB3LYP) =  -1113.41412683     a.u. after    1 cycles
 Normal termination of Gaussian 16 at Sat Dec 12 10:27:54 2020.
 Gaussian 16:  ES64L-G16RevA.03 25-Dec-2016

 ----------------------------------------------------------------------
 # B3LYP/6-311++G(d,p) empiricaldispersion=gd3bj scf=xqc pop=npa geom=c
 heck
 ----------------------------------------------------------------------

 -----------------------------------
 CID_64382208_JID_9159_Energie_anion
 -----------------------------------
 Structure from the checkpoint file:  "JID_9159.chk"
 Charge = -1 Multiplicity = 2

                         Standard orientation:
 ---------------------------------------------------------------------
 Center     Atomic      Atomic             Coordinates (Angstroms)
 Number     Number       Type             X           Y           Z
 ---------------------------------------------------------------------
      1          6           0        4.789919   -0.666550   -0.620115
      2          6           0        3.634351    0.308140   -0.377995
      3          6           0        2.274137   -0.373869   -0.486984
      4          6           0        1.925180   -1.421057    0.376324
      5          6           0        0.660891   -2.002026    0.324730
      6          6           0       -0.292737   -1.535284   -0.590483
      7          6           0        0.052806   -0.501483   -1.467047
      8          6           0        1.323102    0.068631   -1.410183
      9         16           0       -1.950962   -2.200065   -0.604330
     10          6           0       -2.771404   -1.068412    0.661254
     11          6           0       -2.406593   -1.482860    2.084960
     12          6           0       -2.509367    0.379593    0.326207
     13          6           0       -3.277670    1.011134   -0.661203
     14          6           0       -3.020480    2.326980   -1.037435
     15          6           0       -1.983069    3.038711   -0.429558
     16          6           0       -1.212738    2.421959    0.554591
     17          6           0       -1.473422    1.103024    0.928333
     18          7           0        3.849381    0.998578    0.900647
     19          6           0        2.837834    2.004043    1.211283
     20          1           0        4.803548   -1.458494    0.138690
     21          1           0        5.743577   -0.132975   -0.571231
     22          1           0        4.694480   -1.147891   -1.598380
     23          1           0        3.673850    1.085643   -1.152906
     24          1           0        2.646903   -1.786533    1.103462
     25          1           0        0.402446   -2.816686    0.993800
     26          1           0       -0.687296   -0.126294   -2.165502
     27          1           0        1.573930    0.885688   -2.082554
     28          1           0       -3.830453   -1.284285    0.483777
     29          1           0       -1.327144   -1.430712    2.253656
     30          1           0       -2.897003   -0.823785    2.811518
     31          1           0       -2.723765   -2.512119    2.271907
     32          1           0       -4.074972    0.454345   -1.147559
     33          1           0       -3.629469    2.798383   -1.803904
     34          1           0       -1.779478    4.065031   -0.721800
     35          1           0       -0.399716    2.962652    1.030994
     36          1           0       -0.850532    0.633629    1.681815
     37          1           0        3.876753    0.305329    1.647460
     38          1           0        1.803410    1.622036    1.243092
     39          1           0        3.072013    2.461269    2.177939
     40          1           0        2.874201    2.792717    0.450411
 ---------------------------------------------------------------------

 SCF Done:  E(UB3LYP) =  -1113.68954261     A.U. after   33 cycles
 SCF Done:  E(UB3LYP) =  -1113.68954261     a.u. after    1 cycles

 The electronic state is 2-A.
 Alpha  occ. eigenvalues --  -88.72578 -14.19603 -10.10158 -10.10150 -10.08261
 Alpha  occ. eigenvalues --  -10.08105 -10.07277 -10.07090 -10.06866 -10.06856
 Alpha  occ. eigenvalues --  -10.06689 -10.06546 -10.06497 -10.06474 -10.06389
 Alpha  occ. eigenvalues --  -10.06349 -10.06307 -10.06295 -10.06067  -7.81174
 Alpha  occ. eigenvalues --   -5.77554  -5.77226  -5.76551  -0.80794  -0.75976
 Alpha  occ. eigenvalues --   -0.74842  -0.70585  -0.67266  -0.64186  -0.64056
 Alpha  occ. eigenvalues --   -0.63841  -0.62402  -0.58236  -0.55836  -0.53287
 Alpha  occ. eigenvalues --   -0.51148  -0.50095  -0.49567  -0.47106  -0.45749
 Alpha  occ. eigenvalues --   -0.41369  -0.40078  -0.37037  -0.36713  -0.35980
 Alpha  occ. eigenvalues --   -0.35356  -0.34667  -0.33970  -0.33299  -0.33074
 Alpha  occ. eigenvalues --   -0.32130  -0.31703  -0.31511  -0.31153  -0.29156
 Alpha  occ. eigenvalues --   -0.28598  -0.27640  -0.27461  -0.26247  -0.26025
 Alpha  occ. eigenvalues --   -0.25532  -0.25042  -0.24329  -0.23814  -0.23198
 Alpha  occ. eigenvalues --   -0.22957  -0.20662  -0.15599  -0.15114  -0.14314
 Alpha  occ. eigenvalues --   -0.14026  -0.12454  -0.11783   0.04598
 Alpha virt. eigenvalues --    0.06701   0.06722   0.07384   0.07643   0.08130
 Alpha virt. eigenvalues --    0.08425   0.08921   0.09062   0.09264   0.09592
 Alpha virt. eigenvalues --    0.09973   0.10235   0.10713   0.11044   0.11608

  Beta  occ. eigenvalues --  -88.72558 -14.19573 -10.10165 -10.10053 -10.08173
  Beta  occ. eigenvalues --  -10.08093 -10.07205 -10.07080 -10.06853 -10.06851
  Beta  occ. eigenvalues --  -10.06685 -10.06494 -10.06465 -10.06453 -10.06368
  Beta  occ. eigenvalues --  -10.06346 -10.06259 -10.06184 -10.05970  -7.81152
  Beta  occ. eigenvalues --   -5.77503  -5.77211  -5.76536  -0.80731  -0.75841
  Beta  occ. eigenvalues --   -0.74704  -0.70427  -0.67121  -0.64103  -0.63948
  Beta  occ. eigenvalues --   -0.63710  -0.62298  -0.58087  -0.55798  -0.53129
  Beta  occ. eigenvalues --   -0.51057  -0.50046  -0.49507  -0.46961  -0.45629
  Beta  occ. eigenvalues --   -0.41301  -0.40004  -0.36979  -0.36629  -0.35895
  Beta  occ. eigenvalues --   -0.35252  -0.34575  -0.33885  -0.33218  -0.32984
  Beta  occ. eigenvalues --   -0.32076  -0.31644  -0.31472  -0.31113  -0.29059
  Beta  occ. eigenvalues --   -0.28556  -0.27566  -0.27280  -0.26134  -0.25930
  Beta  occ. eigenvalues --   -0.25467  -0.24826  -0.24212  -0.23721  -0.23104
  Beta  occ. eigenvalues --   -0.22849  -0.20485  -0.15337  -0.14755  -0.13974
  Beta  occ. eigenvalues --   -0.13645  -0.12231  -0.11660
  Beta virt. eigenvalues --    0.06672   0.07086   0.07549   0.07812   0.08041
  Beta virt. eigenvalues --    0.08447   0.08589   0.09050   0.09349   0.09423
  Beta virt. eigenvalues --    0.09693   0.10238   0.10410   0.10812   0.11118

 Mulliken charges and spin densities:
               1          2
     1  C    0.080132  -0.700801
     2  C   -0.977621   0.133057
     3  C    1.008558   0.109013
     4  C   -0.321178  -0.017287
     5  C   -0.160301  -0.493880
     6  C    1.210369  -0.437120
     7  C   -0.671811   0.365677
     8  C   -0.692837   0.282773
     9  S   -0.029220  -0.109149
    10  C   -0.164817  -0.107270
    11  C   -0.396853  -0.306678
    12  C    0.356057   0.114303
    13  C   -0.753810   0.347178
    14  C   -0.206597  -0.018483
    15  C   -0.166048  -0.265009
    16  C    0.201641  -0.449899
    17  C    0.505031  -0.143590
    18  N    0.027295  -0.000416
    19  C   -0.187858  -0.319888
    20  H    0.062792   0.078174
    21  H   -0.037351   0.188872
    22  H    0.078916   0.052273
    23  H    0.042732   0.103219
    24  H   -0.309840   0.453465
    25  H    0.036229   0.135763
    26  H    0.160401   0.020829
    27  H    0.074344   0.079883
    28  H    0.242890  -0.006926
    29  H   -0.051608   0.215862
    30  H   -0.009977   0.140619
    31  H    0.136839  -0.000875
    32  H    0.124245   0.006288
    33  H   -0.023624   0.180618
    34  H   -0.175887   0.309374
    35  H   -0.109236   0.293321
    36  H   -0.064788   0.207967
    37  H    0.068096   0.173095
    38  H    0.371013  -0.181705
    39  H   -0.285495   0.427570
    40  H    0.009175   0.139783
 Sum of Mulliken charges =  -1.00000   1.00000

 Dipole moment (field-independent basis, Debye):
    X=             -2.6877    Y=             -1.5808    Z=             -2.2148  Tot=              3.8247
 Quadrupole moment (field-independent basis, Debye-Ang):
   XX=           -182.2702   YY=           -166.9302   ZZ=           -155.5238
   XY=              0.5739   XZ=             -6.2391   YZ=             -5.3918

 Summary of Natural Population Analysis:

                                       Natural Population
                Natural  -----------------------------------------------
    Atom  No    Charge         Core      Valence    Rydberg      Total
 -----------------------------------------------------------------------
      C    1   -0.28097      0.99964     2.27650    0.00483     3.28097
      C    2   -0.01741      0.99957     2.00438    0.01346     3.01741
      C    3    0.00487      0.99949     1.98466    0.01098     2.99513
      C    4   -0.10543      0.99950     2.09608    0.00985     3.10543
      C    5   -0.09823      0.99949     2.08772    0.01102     3.09823
      C    6   -0.08778      0.99939     2.07473    0.01366     3.08778
      C    7   -0.07494      0.99949     2.06499    0.01046     3.07494
      C    8   -0.10656      0.99950     2.09835    0.00871     3.10656
      S    9    0.09823      4.99956     2.88578    0.01643     7.90177
      C   10   -0.14645      0.99952     2.13454    0.01238     3.14645
      C   11   -0.29192      0.99964     2.28534    0.00694     3.29192
      C   12   -0.01665      0.99948     2.00564    0.01152     3.01665
      C   13   -0.09569      0.99951     2.08699    0.00919     3.09569
      C   14   -0.10586      0.99956     2.09620    0.01009     3.10586
      C   15   -0.09436      0.99956     2.08495    0.00985     3.09436
      C   16   -0.09889      0.99956     2.08942    0.00991     3.09889
      C   17   -0.09284      0.99951     2.08274    0.01060     3.09284
      N   18   -0.33479      0.99975     2.82344    0.01160     3.83479
      C   19   -0.18015      0.99965     2.17235    0.00815     3.18015
      H   20    0.09611      0.00000     0.40291    0.00098     0.40389
      H   21    0.10148      0.00000     0.39737    0.00115     0.39852
      H   22    0.10001      0.00000     0.39930    0.00069     0.39999
      H   23    0.09014      0.00000     0.40810    0.00176     0.40986
      H   24    0.09698      0.00000     0.40124    0.00178     0.40302
      H   25    0.10171      0.00000     0.39687    0.00141     0.39829
      H   26    0.10441      0.00000     0.39422    0.00137     0.39559
      H   27    0.09714      0.00000     0.40144    0.00143     0.40286
      H   28    0.09888      0.00000     0.39955    0.00157     0.40112
      H   29    0.10469      0.00000     0.39407    0.00124     0.39531
      H   30    0.10049      0.00000     0.39857    0.00094     0.39951
      H   31    0.09999      0.00000     0.39913    0.00088     0.40001
      H   32    0.09718      0.00000     0.40184    0.00097     0.40282
      H   33    0.09651      0.00000     0.40270    0.00079     0.40349
      H   34    0.09767      0.00000     0.40149    0.00084     0.40233
      H   35    0.10007      0.00000     0.39828    0.00165     0.39993
      H   36    0.10416      0.00000     0.39342    0.00242     0.39584
      H   37    0.16962      0.00000     0.32723    0.00316     0.33038
      H   38    0.08629      0.00000     0.41135    0.00236     0.41371
      H   39    0.09325      0.00000     0.40580    0.00095     0.40675
      H   40    0.08904      0.00000     0.40974    0.00121     0.41096
 =======================================================================
   * Total *    0.00000     22.99138    49.77943    0.22919    73.00000

 Normal termination of Gaussian 16 at Sat Dec 12 10:54:15 2020.
