 Gaussian 16, Revision A.03,

 -----------------------------------------------------------
 # opt freq B3LYP/6-31G(d) empiricaldispersion=gd3bj scf=xqc
 -----------------------------------------------------------

 -----------------------------
 CID_89062247_JID_867_neutraal
 -----------------------------
 Symbolic Z-matrix:
 Charge =  0 Multiplicity = 1

 SCF Done:  E(RB3LYP) =  -516.779214209     A.U. after   14 cycles
 SCF Done:  E(RB3LYP) =  -516.782700786     A.U. after   13 cycles
 SCF Done:  E(RB3LYP) =  -516.783087357     A.U. after   13 cycles
 SCF Done:  E(RB3LYP) =  -516.784152174     A.U. after   12 cycles
 SCF Done:  E(RB3LYP) =  -516.784396254     A.U. after   12 cycles
 SCF Done:  E(RB3LYP) =  -516.784515212     A.U. after   12 cycles
 SCF Done:  E(RB3LYP) =  -516.784547757     A.U. after   10 cycles
 SCF Done:  E(RB3LYP) =  -516.784559454     A.U. after   10 cycles
 SCF Done:  E(RB3LYP) =  -516.784560216     A.U. after    8 cycles
 SCF Done:  E(RB3LYP) =  -516.784560385     A.U. after    7 cycles
 SCF Done:  E(RB3LYP) =  -516.784560398     A.U. after    7 cycles
 Optimization completed.
    -- Stationary point found.
 Normal termination of Gaussian 16 at Tue Dec  8 13:03:40 2020.

 --------------------------------------------------------------------
 #N Geom=AllCheck Guess=TCheck SCRF=Check GenChk RB3LYP/6-31G(d) Freq
 --------------------------------------------------------------------

 Structure from the checkpoint file:  "JID_867.chk"
 -----------------------------
 CID_89062247_JID_867_neutraal
 -----------------------------
 Charge =  0 Multiplicity = 1

 SCF Done:  E(RB3LYP) =  -516.784560398     A.U. after    1 cycles

  Exact polarizability:  86.768   0.647  82.246  -3.047  -7.322  70.949
 Approx polarizability: 117.836   1.744 114.302  -6.271 -10.904 104.658

                      1                      2                      3
                      A                      A                      A
 Frequencies --     28.9134                79.5940               119.9040
 Red. masses --      4.2673                 4.3283                 4.0001
 Frc consts  --      0.0021                 0.0162                 0.0339
 IR Inten    --      0.0268                 3.4277                 5.0214

                      4                      5                      6
                      A                      A                      A
 Frequencies --    160.6639               186.2783               194.2346
 Red. masses --      1.1207                 5.4182                 3.4753
 Frc consts  --      0.0170                 0.1108                 0.0772
 IR Inten    --    129.1254                12.2612                 0.4446

                      7                      8                      9
                      A                      A                      A
 Frequencies --    252.3809               298.3540               401.5352
 Red. masses --      1.9736                 3.0728                 1.9940
 Frc consts  --      0.0741                 0.1612                 0.1894
 IR Inten    --      3.5708                 7.7909                14.3884

                     10                     11                     12
                      A                      A                      A
 Frequencies --    416.2259               432.0142               456.9836
 Red. masses --      5.4953                 1.8180                 2.1577
 Frc consts  --      0.5609                 0.1999                 0.2655
 IR Inten    --      2.8683                 0.1907                 2.0248

                     13                     14                     15
                      A                      A                      A
 Frequencies --    481.2936               564.4965               605.8132
 Red. masses --      2.5660                 2.5788                 1.9292
 Frc consts  --      0.3502                 0.4842                 0.4172
 IR Inten    --      1.1546                 8.0563                22.0978

                     16                     17                     18
                      A                      A                      A
 Frequencies --    742.7864               836.8386               857.9743
 Red. masses --      2.8149                 3.4904                 1.7041
 Frc consts  --      0.9150                 1.4402                 0.7391
 IR Inten    --      1.5790                11.8336                 0.4546

                     19                     20                     21
                      A                      A                      A
 Frequencies --    859.1823               894.5669               910.0994
 Red. masses --      3.0715                 2.9755                 3.1586
 Frc consts  --      1.3359                 1.4029                 1.5414
 IR Inten    --      6.5422                16.3843                 9.3352

                     22                     23                     24
                      A                      A                      A
 Frequencies --    931.2309              1014.3628              1052.1611
 Red. masses --      2.4162                 2.6065                 2.4581
 Frc consts  --      1.2345                 1.5801                 1.6033
 IR Inten    --      7.7860                14.8694                22.4233

                     25                     26                     27
                      A                      A                      A
 Frequencies --   1055.9242              1099.9810              1115.6196
 Red. masses --      3.1097                 2.1099                 2.0622
 Frc consts  --      2.0429                 1.5041                 1.5122
 IR Inten    --     13.5276                 4.0683                18.2067

                     28                     29                     30
                      A                      A                      A
 Frequencies --   1122.6976              1142.5003              1203.1875
 Red. masses --      2.0196                 6.4257                 1.9968
 Frc consts  --      1.4998                 4.9418                 1.7032
 IR Inten    --     22.2169                83.4764                18.2535

                     31                     32                     33
                      A                      A                      A
 Frequencies --   1209.0098              1258.4917              1281.7988
 Red. masses --      2.4409                 1.0844                 1.2343
 Frc consts  --      2.1022                 1.0119                 1.1948
 IR Inten    --      6.7465                 3.2645                 8.4707

                     34                     35                     36
                      A                      A                      A
 Frequencies --   1299.1877              1338.5960              1376.9547
 Red. masses --      1.1401                 1.2265                 1.4490
 Frc consts  --      1.1338                 1.2949                 1.6186
 IR Inten    --     19.7841                 7.4462                 8.6295

                     37                     38                     39
                      A                      A                      A
 Frequencies --   1378.6697              1397.4202              1403.9385
 Red. masses --      1.2228                 1.1855                 1.2237
 Frc consts  --      1.3694                 1.3640                 1.4211
 IR Inten    --      0.2912                13.8712                38.2186

                     40                     41                     42
                      A                      A                      A
 Frequencies --   1411.5913              1419.1768              1425.5367
 Red. masses --      1.2629                 1.2829                 1.5026
 Frc consts  --      1.4826                 1.5224                 1.7991
 IR Inten    --     40.1378                 5.0395                36.6217

                     43                     44                     45
                      A                      A                      A
 Frequencies --   1430.5237              1441.8892              1490.1640
 Red. masses --      1.6078                 1.2832                 1.0936
 Frc consts  --      1.9386                 1.5719                 1.4308
 IR Inten    --     30.1035                 2.7414                 2.3153

                     46                     47                     48
                      A                      A                      A
 Frequencies --   1493.8997              1496.3905              1507.6582
 Red. masses --      1.0908                 1.0840                 1.1239
 Frc consts  --      1.4343                 1.4301                 1.5052
 IR Inten    --      3.5872                 5.1808                 9.1418

                     49                     50                     51
                      A                      A                      A
 Frequencies --   1517.2860              1530.6719              2991.3129
 Red. masses --      1.0878                 1.1039                 1.0700
 Frc consts  --      1.4755                 1.5239                 5.6409
 IR Inten    --      0.5607                 3.5234                43.0395

                     52                     53                     54
                      A                      A                      A
 Frequencies --   3003.9690              3010.0693              3019.1776
 Red. masses --      1.0682                 1.0667                 1.0690
 Frc consts  --      5.6792                 5.6943                 5.7412
 IR Inten    --     35.5590                76.3878                34.3487

                     55                     56                     57
                      A                      A                      A
 Frequencies --   3034.1420              3037.0282              3082.9807
 Red. masses --      1.0618                 1.0664                 1.0946
 Frc consts  --      5.7593                 5.7949                 6.1296
 IR Inten    --     43.0401                71.1448                35.6182

                     58                     59                     60
                      A                      A                      A
 Frequencies --   3087.3408              3092.5967              3099.1916
 Red. masses --      1.0962                 1.0952                 1.0951
 Frc consts  --      6.1562                 6.1713                 6.1970
 IR Inten    --     39.7048                 8.8634                70.0160

                     61                     62                     63
                      A                      A                      A
 Frequencies --   3102.9281              3109.7637              3711.1130
 Red. masses --      1.1039                 1.0978                 1.0686
 Frc consts  --      6.2621                 6.2548                 8.6711
 IR Inten    --     48.7913                30.7148                18.3968

 - Thermochemistry -
 -------------------
 Temperature   298.150 Kelvin.  Pressure   1.00000 Atm.
 Atom     1 has atomic number  6 and mass  12.00000

 Molecular mass:   147.08954 amu.
 Principal axes and moments of inertia in atomic units:
                           1         2         3
     Eigenvalues --   876.899101858.980672076.15735
           X            0.99997  -0.00307  -0.00753
           Y            0.00242   0.99634  -0.08540
           Z            0.00776   0.08537   0.99632
 This molecule is an asymmetric top.
 Rotational symmetry number  1.
 Warning -- assumption of classical behavior for rotation
           may cause significant error
 Rotational temperatures (Kelvin)      0.09877     0.04659     0.04172
 Rotational constants (GHZ):           2.05809     0.97082     0.86927
 Zero-point vibrational energy     526406.3 (Joules/Mol)
                                  125.81413 (Kcal/Mol)
 Warning -- explicit consideration of  15 degrees of freedom as
           vibrations may cause significant error
 Vibrational temperatures:     41.60   114.52   172.52   231.16   268.01
          (Kelvin)            279.46   363.12   429.26   577.72   598.86
                              621.57   657.50   692.47   812.18   871.63
                             1068.70  1204.02  1234.43  1236.17  1287.08
                             1309.43  1339.83  1459.44  1513.83  1519.24
                             1582.63  1605.13  1615.31  1643.80  1731.12
                             1739.50  1810.69  1844.22  1869.24  1925.94
                             1981.13  1983.60  2010.58  2019.95  2030.97
                             2041.88  2051.03  2058.20  2074.56  2144.01
                             2149.39  2152.97  2169.18  2183.04  2202.30
                             4303.83  4322.04  4330.82  4343.92  4365.45
                             4369.61  4435.72  4441.99  4449.56  4459.05
                             4464.42  4474.26  5339.46

 Zero-point correction=                           0.200498 (Hartree/Particle)
 Thermal correction to Energy=                    0.210885
 Thermal correction to Enthalpy=                  0.211829
 Thermal correction to Gibbs Free Energy=         0.163975
 Sum of electronic and zero-point Energies=           -516.584063
 Sum of electronic and thermal Energies=              -516.573676
 Sum of electronic and thermal Enthalpies=            -516.572732
 Sum of electronic and thermal Free Energies=         -516.620586

                     E (Thermal)             CV                S
                      KCal/Mol        Cal/Mol-Kelvin    Cal/Mol-Kelvin
 Total                  132.332             38.286            100.717
 Electronic               0.000              0.000              0.000
 Translational            0.889              2.981             40.868
 Rotational               0.889              2.981             29.605
 Vibrational            130.555             32.324             30.244
 Vibration     1          0.593              1.984              5.903
 Vibration     2          0.600              1.963              3.901
 Vibration     3          0.609              1.933              3.102
 Vibration     4          0.622              1.891              2.542
 Vibration     5          0.632              1.859              2.265
 Vibration     6          0.635              1.848              2.187
 Vibration     7          0.664              1.759              1.714
 Vibration     8          0.691              1.677              1.426
 Vibration     9          0.767              1.467              0.957
 Vibration    10          0.779              1.435              0.905
 Vibration    11          0.793              1.400              0.852
 Vibration    12          0.815              1.345              0.775
 Vibration    13          0.838              1.292              0.707
 Vibration    14          0.920              1.108              0.515
 Vibration    15          0.964              1.019              0.440

                           ! Non-Optimized Parameters !
 Normal termination of Gaussian 16 at Tue Dec  8 13:09:01 2020.

 ----------------------------------------------------------------------
 # B3LYP/6-311++G(d,p) empiricaldispersion=gd3bj scf=xqc pop=npa geom=c
 heck
 ----------------------------------------------------------------------

 -------------------------------------
 CID_89062247_JID_867_Energie_neutraal
 -------------------------------------
 Structure from the checkpoint file:  "JID_867.chk"
 Charge =  0 Multiplicity = 1

 SCF Done:  E(RB3LYP) =  -516.943810164     A.U. after   13 cycles
 Normal termination of Gaussian 16 at Tue Dec  8 13:11:09 2020.

 ----------------------------------------------------------------------
 # B3LYP/6-311++G(d,p) empiricaldispersion=gd3bj scf=xqc pop=npa geom=c
 heck
 ----------------------------------------------------------------------

 -----------------------------------
 CID_89062247_JID_867_Energie_kation
 -----------------------------------
 Structure from the checkpoint file:  "JID_867.chk"
 Charge =  1 Multiplicity = 2

 SCF Done:  E(UB3LYP) =  -516.664764630     A.U. after   18 cycles
 Normal termination of Gaussian 16 at Tue Dec  8 13:17:14 2020.
 Gaussian 16:  ES64L-G16RevA.03 25-Dec-2016

 ----------------------------------------------------------------------
 # B3LYP/6-311++G(d,p) empiricaldispersion=gd3bj scf=xqc pop=npa geom=c
 heck
 ----------------------------------------------------------------------

 ----------------------------------
 CID_89062247_JID_867_Energie_anion
 ----------------------------------
 Structure from the checkpoint file:  "JID_867.chk"
 Charge = -1 Multiplicity = 2

                         Standard orientation:
 ---------------------------------------------------------------------
 Center     Atomic      Atomic             Coordinates (Angstroms)
 Number     Number       Type             X           Y           Z
 ---------------------------------------------------------------------
      1          6           0        1.496164    1.293487    0.099690
      2          6           0        1.910384    0.339372   -1.026214
      3          8           0        2.201323   -0.949566   -0.500237
      4          6           0        1.056226   -1.507798    0.140019
      5          6           0        0.604834   -0.613149    1.299718
      6          7           0        0.400502    0.775724    0.908086
      7          6           0       -0.940265    1.256527    0.648823
      8          6           0       -1.620019    0.913217   -0.683631
      9          8           0       -1.844502   -0.475515   -0.906246
     10          8           0       -2.812671   -0.908795    0.097895
     11          1           0        2.372967    1.441715    0.748823
     12          1           0        1.215964    2.272713   -0.305862
     13          1           0        1.115156    0.262809   -1.786230
     14          1           0        2.826404    0.685963   -1.515921
     15          1           0        1.362328   -2.494208    0.504253
     16          1           0        0.242071   -1.626741   -0.588954
     17          1           0        1.387822   -0.645869    2.073330
     18          1           0       -0.318022   -0.997478    1.749707
     19          1           0       -1.589656    0.902107    1.456518
     20          1           0       -0.927825    2.354423    0.719004
     21          1           0       -2.574434    1.453448   -0.760008
     22          1           0       -0.995446    1.194266   -1.539250
     23          1           0       -2.317989   -1.652139    0.486245
 ---------------------------------------------------------------------

 SCF Done:  E(UB3LYP) =  -516.929876501     A.U. after   29 cycles

 The electronic state is 2-A.
 Alpha  occ. eigenvalues --  -19.06084 -19.05352 -19.01436 -14.19141 -10.10665
 Alpha  occ. eigenvalues --  -10.10563 -10.09688 -10.08465 -10.08461 -10.08019
 Alpha  occ. eigenvalues --   -1.00115  -0.92977  -0.81509  -0.79572  -0.66080
 Alpha  occ. eigenvalues --   -0.63838  -0.56504  -0.54556  -0.50442  -0.45508
 Alpha  occ. eigenvalues --   -0.41514  -0.38820  -0.37947  -0.36656  -0.35628
 Alpha  occ. eigenvalues --   -0.34838  -0.34364  -0.33659  -0.30534  -0.28717
 Alpha  occ. eigenvalues --   -0.27861  -0.26511  -0.25255  -0.24899  -0.23317
 Alpha  occ. eigenvalues --   -0.20535  -0.20496  -0.16779  -0.14689  -0.08855
 Alpha  occ. eigenvalues --    0.05028
 Alpha virt. eigenvalues --    0.07065   0.08321   0.08942   0.09665   0.10679
 Alpha virt. eigenvalues --    0.11115   0.11430   0.12149   0.12563   0.13617
 Alpha virt. eigenvalues --    0.14467   0.15458   0.15753   0.16326   0.16999

  Beta  occ. eigenvalues --  -19.05981 -19.05217 -19.01426 -14.19137 -10.10652
  Beta  occ. eigenvalues --  -10.10549 -10.09673 -10.08438 -10.08431 -10.07978
  Beta  occ. eigenvalues --   -0.99795  -0.92954  -0.81440  -0.79359  -0.66036
  Beta  occ. eigenvalues --   -0.63785  -0.56457  -0.54479  -0.50376  -0.45421
  Beta  occ. eigenvalues --   -0.41345  -0.38757  -0.37897  -0.36635  -0.35550
  Beta  occ. eigenvalues --   -0.34783  -0.34271  -0.33590  -0.30464  -0.28667
  Beta  occ. eigenvalues --   -0.27762  -0.26447  -0.25216  -0.24799  -0.23283
  Beta  occ. eigenvalues --   -0.20503  -0.20333  -0.16699  -0.14576  -0.08794
  Beta virt. eigenvalues --    0.07780   0.08767   0.08861   0.09326   0.10391
  Beta virt. eigenvalues --    0.11304   0.11474   0.11769   0.12300   0.13135
  Beta virt. eigenvalues --    0.14112   0.15099   0.15661   0.16020   0.16506

 Mulliken charges and spin densities:
               1          2
     1  C    0.127036  -0.424756
     2  C    0.299221  -0.538569
     3  O   -0.171262   0.034226
     4  C   -0.424640  -0.030148
     5  C    0.839814  -0.957241
     6  N   -0.197289   0.286158
     7  C    0.120967  -0.598239
     8  C    0.240035  -0.481191
     9  O   -0.106968   0.091301
    10  O   -0.144923  -0.099081
    11  H   -0.073682   0.228150
    12  H   -0.475333   0.607528
    13  H    0.138988  -0.029559
    14  H   -0.188348   0.362611
    15  H   -0.369911   0.537697
    16  H    0.328692  -0.144289
    17  H    0.058693   0.094268
    18  H   -0.463224   0.585247
    19  H    0.031130   0.176303
    20  H   -0.169975   0.312227
    21  H   -0.033457   0.191034
    22  H   -0.142318   0.309582
    23  H   -0.223245   0.486741
 Sum of Mulliken charges =  -1.00000   1.00000

 Dipole moment (field-independent basis, Debye):
    X=              1.8111    Y=              0.7214    Z=             -1.4594  Tot=              2.4352
 Quadrupole moment (field-independent basis, Debye-Ang):
   XX=           -108.1279   YY=           -104.1527   ZZ=            -89.2038
   XY=             -7.0115   XZ=              4.1754   YZ=              7.3817

 Summary of Natural Population Analysis:

                                       Natural Population
                Natural  -----------------------------------------------
    Atom  No    Charge         Core      Valence    Rydberg      Total
 -----------------------------------------------------------------------
      C    1   -0.09660      0.99961     2.08493    0.01206     3.09660
      C    2   -0.01846      0.99958     2.00616    0.01272     3.01846
      O    3   -0.30237      0.99990     3.29350    0.00898     4.30237
      C    4   -0.02407      0.99957     2.01121    0.01329     3.02407
      C    5   -0.09550      0.99961     2.08305    0.01284     3.09550
      N    6   -0.28399      0.99973     2.76880    0.01546     3.78399
      C    7   -0.09551      0.99959     2.08385    0.01207     3.09551
      C    8   -0.02455      0.99959     2.01106    0.01390     3.02455
      O    9   -0.16610      0.99990     3.15575    0.01046     4.16610
      O   10   -0.22683      0.99991     3.22074    0.00617     4.22683
      H   11    0.09052      0.00000     0.40811    0.00137     0.40948
      H   12    0.10077      0.00000     0.39669    0.00254     0.39923
      H   13    0.07605      0.00000     0.42231    0.00164     0.42395
      H   14    0.08819      0.00000     0.41039    0.00141     0.41181
      H   15    0.08855      0.00000     0.40993    0.00152     0.41145
      H   16    0.08644      0.00000     0.41173    0.00183     0.41356
      H   17    0.08845      0.00000     0.41014    0.00141     0.41155
      H   18    0.10321      0.00000     0.39405    0.00274     0.39679
      H   19    0.10438      0.00000     0.39408    0.00154     0.39562
      H   20    0.09558      0.00000     0.40299    0.00142     0.40442
      H   21    0.08381      0.00000     0.41478    0.00141     0.41619
      H   22    0.09256      0.00000     0.40561    0.00183     0.40744
      H   23    0.23547      0.00000     0.25350    0.01103     0.26453
 =======================================================================
   * Total *   -0.00000      9.99699    29.85335    0.14966    40.00000

 Normal termination of Gaussian 16 at Tue Dec  8 13:23:48 2020.
