 Gaussian 16, Revision A.03,

 -----------------------------------------------------------
 # opt freq B3LYP/6-31G(d) empiricaldispersion=gd3bj scf=xqc
 -----------------------------------------------------------

 -------------------------------
 CID_128366067_JID_9734_neutraal
 -------------------------------
 Symbolic Z-matrix:
 Charge =  0 Multiplicity = 1

 SCF Done:  E(RB3LYP) =  -823.829253342     A.U. after   15 cycles
 SCF Done:  E(RB3LYP) =  -823.820383392     A.U. after   13 cycles
 SCF Done:  E(RB3LYP) =  -823.836653717     A.U. after   12 cycles
 SCF Done:  E(RB3LYP) =  -823.837931523     A.U. after   11 cycles
 SCF Done:  E(RB3LYP) =  -823.838478991     A.U. after   11 cycles
 SCF Done:  E(RB3LYP) =  -823.838719927     A.U. after   11 cycles
 SCF Done:  E(RB3LYP) =  -823.838957131     A.U. after   11 cycles
 SCF Done:  E(RB3LYP) =  -823.839117200     A.U. after   11 cycles
 SCF Done:  E(RB3LYP) =  -823.839192395     A.U. after   11 cycles
 SCF Done:  E(RB3LYP) =  -823.839237451     A.U. after   11 cycles
 SCF Done:  E(RB3LYP) =  -823.839317626     A.U. after    9 cycles
 SCF Done:  E(RB3LYP) =  -823.839318097     A.U. after    9 cycles
 SCF Done:  E(RB3LYP) =  -823.839318223     A.U. after    7 cycles
 SCF Done:  E(RB3LYP) =  -823.839318248     A.U. after    7 cycles
 SCF Done:  E(RB3LYP) =  -823.839318247     A.U. after    6 cycles
 Optimization completed.
    -- Stationary point found.
 Normal termination of Gaussian 16 at Mon Dec 14 13:50:06 2020.

 --------------------------------------------------------------------
 #N Geom=AllCheck Guess=TCheck SCRF=Check GenChk RB3LYP/6-31G(d) Freq
 --------------------------------------------------------------------

 Structure from the checkpoint file:  "JID_9734.chk"
 -------------------------------
 CID_128366067_JID_9734_neutraal
 -------------------------------
 Charge =  0 Multiplicity = 1

 SCF Done:  E(RB3LYP) =  -823.839318247     A.U. after    1 cycles

  Exact polarizability: 209.937  -5.231 182.788   7.961   4.879 123.305
 Approx polarizability: 284.178 -10.038 287.817  14.642   4.909 194.294

                      1                      2                      3
                      A                      A                      A
 Frequencies --     16.0356                35.0598                66.7156
 Red. masses --      3.6930                 3.9557                 4.7865
 Frc consts  --      0.0006                 0.0029                 0.0126
 IR Inten    --      0.1681                 1.0523                 2.4418

                      4                      5                      6
                      A                      A                      A
 Frequencies --     72.4012               108.2442               118.8420
 Red. masses --      5.4010                 2.8385                 1.7347
 Frc consts  --      0.0167                 0.0196                 0.0144
 IR Inten    --      2.2921                 0.1102                 0.5795

                      7                      8                      9
                      A                      A                      A
 Frequencies --    140.8576               185.1890               211.9999
 Red. masses --      1.5878                 3.3741                 3.9720
 Frc consts  --      0.0186                 0.0682                 0.1052
 IR Inten    --      0.4448                 0.9390                 3.3046

                     10                     11                     12
                      A                      A                      A
 Frequencies --    227.7281               249.0642               282.1649
 Red. masses --      3.3605                 3.2975                 4.2558
 Frc consts  --      0.1027                 0.1205                 0.1996
 IR Inten    --      4.8467                 5.4251                 7.3234

                     13                     14                     15
                      A                      A                      A
 Frequencies --    299.1296               339.6272               343.9803
 Red. masses --      2.5646                 2.5697                 2.0073
 Frc consts  --      0.1352                 0.1746                 0.1399
 IR Inten    --      5.1934                 1.2121                 0.2606

                     16                     17                     18
                      A                      A                      A
 Frequencies --    389.5245               416.7464               431.1503
 Red. masses --      3.1145                 2.6592                 3.5639
 Frc consts  --      0.2784                 0.2721                 0.3903
 IR Inten    --      2.1195                 1.6177                 0.8004

                     19                     20                     21
                      A                      A                      A
 Frequencies --    444.0782               452.8474               480.3447
 Red. masses --      3.6411                 2.0007                 4.1529
 Frc consts  --      0.4231                 0.2417                 0.5646
 IR Inten    --      1.6530                 0.4297                 6.3400

                     22                     23                     24
                      A                      A                      A
 Frequencies --    548.0647               554.2961               560.5695
 Red. masses --      2.7005                 4.4063                 2.2608
 Frc consts  --      0.4779                 0.7976                 0.4186
 IR Inten    --      7.9016                11.3104                39.8267

                     25                     26                     27
                      A                      A                      A
 Frequencies --    604.7889               612.1823               632.7131
 Red. masses --      3.2590                 3.4010                 4.4351
 Frc consts  --      0.7023                 0.7510                 1.0461
 IR Inten    --      6.3828                 1.3638                 8.9534

                     28                     29                     30
                      A                      A                      A
 Frequencies --    684.6275               717.3853               747.1594
 Red. masses --      3.6742                 2.9450                 2.3082
 Frc consts  --      1.0146                 0.8930                 0.7592
 IR Inten    --      4.5848                55.5293                 4.0384

                     31                     32                     33
                      A                      A                      A
 Frequencies --    761.5210               780.0509               795.7377
 Red. masses --      3.4033                 2.9209                 2.5049
 Frc consts  --      1.1628                 1.0471                 0.9345
 IR Inten    --      2.1182                26.6410                63.2581

                     34                     35                     36
                      A                      A                      A
 Frequencies --    809.5035               819.3089               836.7670
 Red. masses --      2.6807                 3.1210                 2.8650
 Frc consts  --      1.0350                 1.2344                 1.1819
 IR Inten    --      4.7005                10.7134                 1.3747

                     37                     38                     39
                      A                      A                      A
 Frequencies --    871.6326               874.0266               875.5963
 Red. masses --      1.5956                 2.0520                 1.4156
 Frc consts  --      0.7143                 0.9236                 0.6394
 IR Inten    --      2.2351                 0.7242                 1.8545

                     40                     41                     42
                      A                      A                      A
 Frequencies --    935.7733               961.4634               973.9796
 Red. masses --      1.8012                 1.8668                 2.3011
 Frc consts  --      0.9293                 1.0167                 1.2861
 IR Inten    --      8.3475                 2.2961                 3.1666

                     43                     44                     45
                      A                      A                      A
 Frequencies --    987.6923               988.8841               992.0342
 Red. masses --      1.3609                 2.2535                 2.0240
 Frc consts  --      0.7822                 1.2984                 1.1736
 IR Inten    --      0.6246                 4.5578                 0.7796

                     46                     47                     48
                      A                      A                      A
 Frequencies --   1004.6371              1016.7929              1035.5017
 Red. masses --      2.4659                 3.7581                 2.5417
 Frc consts  --      1.4664                 2.2892                 1.6057
 IR Inten    --      6.3524                 1.4670                 2.8654

                     49                     50                     51
                      A                      A                      A
 Frequencies --   1071.9144              1072.5262              1077.0573
 Red. masses --      1.7257                 1.7368                 1.9443
 Frc consts  --      1.1683                 1.1771                 1.3289
 IR Inten    --      4.4319                 3.4551                 4.5794

                     52                     53                     54
                      A                      A                      A
 Frequencies --   1103.4348              1110.4498              1129.1281
 Red. masses --      2.4326                 1.9220                 1.5637
 Frc consts  --      1.7451                 1.3964                 1.1746
 IR Inten    --      7.5093                 2.4195                 1.9057

                     55                     56                     57
                      A                      A                      A
 Frequencies --   1137.5941              1146.1322              1160.3633
 Red. masses --      1.6229                 1.7742                 2.0013
 Frc consts  --      1.2374                 1.3732                 1.5876
 IR Inten    --      4.3536                10.5967                47.9379

                     58                     59                     60
                      A                      A                      A
 Frequencies --   1185.5617              1197.0174              1213.9486
 Red. masses --      1.1833                 1.2024                 1.1384
 Frc consts  --      0.9799                 1.0151                 0.9884
 IR Inten    --      0.8635                11.1488                 1.3790

                     61                     62                     63
                      A                      A                      A
 Frequencies --   1258.0423              1269.7324              1279.2926
 Red. masses --      1.7702                 1.3626                 1.6376
 Frc consts  --      1.6507                 1.2943                 1.5790
 IR Inten    --     34.2095                12.9965                85.0999

                     64                     65                     66
                      A                      A                      A
 Frequencies --   1288.3095              1298.6896              1311.4166
 Red. masses --      1.8248                 3.2246                 1.4326
 Frc consts  --      1.7844                 3.2043                 1.4516
 IR Inten    --    170.0696                55.6080                15.9983

                     67                     68                     69
                      A                      A                      A
 Frequencies --   1323.4177              1362.0937              1364.3428
 Red. masses --      1.5903                 1.3331                 3.5772
 Frc consts  --      1.6411                 1.4572                 3.9232
 IR Inten    --     25.7177                 1.9780                49.4250

                     70                     71                     72
                      A                      A                      A
 Frequencies --   1366.3221              1373.5192              1377.8886
 Red. masses --      1.4390                 1.6738                 1.2936
 Frc consts  --      1.5828                 1.8605                 1.4471
 IR Inten    --     13.8805                89.1578                 6.2496

                     73                     74                     75
                      A                      A                      A
 Frequencies --   1391.1587              1405.4136              1415.9063
 Red. masses --      1.6152                 1.4566                 1.3605
 Frc consts  --      1.8418                 1.6951                 1.6070
 IR Inten    --      0.5430                 5.0111                 9.6806

                     76                     77                     78
                      A                      A                      A
 Frequencies --   1416.3954              1429.9363              1434.4676
 Red. masses --      1.3996                 1.7638                 1.3647
 Frc consts  --      1.6543                 2.1249                 1.6545
 IR Inten    --      3.4316               162.9670                12.6513

                     79                     80                     81
                      A                      A                      A
 Frequencies --   1439.9484              1465.8343              1495.8931
 Red. masses --      1.6716                 2.5458                 1.6804
 Frc consts  --      2.0421                 3.2228                 2.2155
 IR Inten    --    164.4881               100.1804                27.8342

                     82                     83                     84
                      A                      A                      A
 Frequencies --   1507.7842              1516.4277              1517.2463
 Red. masses --      1.1245                 1.0979                 1.1014
 Frc consts  --      1.5062                 1.4875                 1.4938
 IR Inten    --     16.6685                 2.6958                 2.1392

                     85                     86                     87
                      A                      A                      A
 Frequencies --   1520.2177              1525.2079              1528.1271
 Red. masses --      1.1267                 1.2003                 1.7922
 Frc consts  --      1.5342                 1.6451                 2.4657
 IR Inten    --      3.5067                49.1182                46.0631

                     88                     89                     90
                      A                      A                      A
 Frequencies --   1533.9722              1540.3429              1549.8512
 Red. masses --      1.1737                 1.1322                 1.0910
 Frc consts  --      1.6273                 1.5827                 1.5441
 IR Inten    --     62.9840                10.2898                 2.8357

                     91                     92                     93
                      A                      A                      A
 Frequencies --   1646.6096              1654.0379              1780.5070
 Red. masses --      6.0909                 5.3972                 7.3723
 Frc consts  --      9.7300                 8.6998                13.7702
 IR Inten    --     96.0542               139.4575               408.5418

                     94                     95                     96
                      A                      A                      A
 Frequencies --   2984.2646              2994.8172              3032.1033
 Red. masses --      1.0745                 1.0743                 1.0663
 Frc consts  --      5.6383                 5.6770                 5.7756
 IR Inten    --     41.7799                62.5668                11.7658

                     97                     98                     99
                      A                      A                      A
 Frequencies --   3039.6882              3043.9676              3045.8781
 Red. masses --      1.0684                 1.0749                 1.0663
 Frc consts  --      5.8160                 5.8682                 5.8284
 IR Inten    --     17.0144                23.8796                29.7459

                    100                    101                    102
                      A                      A                      A
 Frequencies --   3056.7142              3057.2554              3061.2202
 Red. masses --      1.0476                 1.0723                 1.0808
 Frc consts  --      5.7673                 5.9050                 5.9672
 IR Inten    --     21.5340                77.8855                86.1724

                    103                    104                    105
                      A                      A                      A
 Frequencies --   3071.8639              3087.7094              3093.3764
 Red. masses --      1.0934                 1.1005                 1.1013
 Frc consts  --      6.0789                 6.1816                 6.2091
 IR Inten    --     32.0211                15.6886                99.2305

                    106                    107                    108
                      A                      A                      A
 Frequencies --   3117.6680              3133.3502              3143.2571
 Red. masses --      1.0977                 1.0947                 1.1037
 Frc consts  --      6.2861                 6.3322                 6.4246
 IR Inten    --     14.7726                 3.6863                19.5419

                    109                    110                    111
                      A                      A                      A
 Frequencies --   3154.4562              3175.4410              3190.5154
 Red. masses --      1.0895                 1.0884                 1.0868
 Frc consts  --      6.3875                 6.4661                 6.5182
 IR Inten    --      6.2968                 9.7427                 6.0749

                    112                    113                    114
                      A                      A                      A
 Frequencies --   3205.0753              3217.2861              3583.9413
 Red. masses --      1.0927                 1.0962                 1.0747
 Frc consts  --      6.6137                 6.6856                 8.1332
 IR Inten    --     17.6969                15.3539                34.1302

 - Thermochemistry -
 -------------------
 Temperature   298.150 Kelvin.  Pressure   1.00000 Atm.
 Atom     1 has atomic number  6 and mass  12.00000

 Molecular mass:   259.16846 amu.
 Principal axes and moments of inertia in atomic units:
                           1         2         3
     Eigenvalues --  2912.001136041.422217698.38845
           X            1.00000   0.00154   0.00019
           Y           -0.00154   0.99972   0.02354
           Z           -0.00015  -0.02354   0.99972
 This molecule is an asymmetric top.
 Rotational symmetry number  1.
 Warning -- assumption of classical behavior for rotation
           may cause significant error
 Rotational temperatures (Kelvin)      0.02974     0.01434     0.01125
 Rotational constants (GHZ):           0.61976     0.29873     0.23443
 Zero-point vibrational energy     920991.5 (Joules/Mol)
                                  220.12224 (Kcal/Mol)
 Warning -- explicit consideration of  26 degrees of freedom as
           vibrations may cause significant error
 Vibrational temperatures:     23.07    50.44    95.99   104.17   155.74
          (Kelvin)            170.99   202.66   266.45   305.02   327.65
                              358.35   405.97   430.38   488.65   494.91
                              560.44   599.61   620.33   638.93   651.55
                              691.11   788.54   797.51   806.53   870.16
                              880.79   910.33   985.03  1032.16  1075.00
                             1095.66  1122.32  1144.89  1164.69  1178.80
                             1203.92  1254.08  1257.53  1259.79  1346.37
                             1383.33  1401.34  1421.07  1422.78  1427.32
                             1445.45  1462.94  1489.86  1542.25  1543.13
                             1549.65  1587.60  1597.69  1624.56  1636.74
                             1649.03  1669.50  1705.76  1722.24  1746.60
                             1810.04  1826.86  1840.62  1853.59  1868.52
                             1886.84  1904.10  1959.75  1962.98  1965.83
                             1976.19  1982.47  2001.57  2022.08  2037.17
                             2037.88  2057.36  2063.88  2071.76  2109.01
                             2152.26  2169.37  2181.80  2182.98  2187.25
                             2194.43  2198.63  2207.04  2216.21  2229.89
                             2369.10  2379.79  2561.75  4293.69  4308.87
                             4362.52  4373.43  4379.59  4382.34  4397.93
                             4398.71  4404.41  4419.73  4442.53  4450.68
                             4485.63  4508.19  4522.45  4538.56  4568.75
                             4590.44  4611.39  4628.96  5156.49

 Zero-point correction=                           0.350787 (Hartree/Particle)
 Thermal correction to Energy=                    0.367290
 Thermal correction to Enthalpy=                  0.368235
 Thermal correction to Gibbs Free Energy=         0.305574
 Sum of electronic and zero-point Energies=           -823.488531
 Sum of electronic and thermal Energies=              -823.472028
 Sum of electronic and thermal Enthalpies=            -823.471084
 Sum of electronic and thermal Free Energies=         -823.533744

                     E (Thermal)             CV                S
                      KCal/Mol        Cal/Mol-Kelvin    Cal/Mol-Kelvin
 Total                  230.478             65.937            131.880
 Electronic               0.000              0.000              0.000
 Translational            0.889              2.981             42.557
 Rotational               0.889              2.981             33.271
 Vibrational            228.701             59.976             56.053
 Vibration     1          0.593              1.986              7.073
 Vibration     2          0.594              1.982              5.520
 Vibration     3          0.598              1.970              4.248
 Vibration     4          0.598              1.967              4.087
 Vibration     5          0.606              1.943              3.300
 Vibration     6          0.609              1.934              3.119
 Vibration     7          0.615              1.912              2.792
 Vibration     8          0.631              1.860              2.275
 Vibration     9          0.643              1.823              2.026
 Vibration    10          0.651              1.799              1.897
 Vibration    11          0.662              1.764              1.737
 Vibration    12          0.681              1.707              1.521
 Vibration    13          0.692              1.675              1.422
 Vibration    14          0.720              1.596              1.214
 Vibration    15          0.723              1.588              1.194
 Vibration    16          0.757              1.493              1.002
 Vibration    17          0.780              1.434              0.903
 Vibration    18          0.792              1.402              0.855
 Vibration    19          0.804              1.374              0.814
 Vibration    20          0.811              1.355              0.787
 Vibration    21          0.837              1.294              0.709
 Vibration    22          0.903              1.144              0.548
 Vibration    23          0.910              1.130              0.535
 Vibration    24          0.916              1.117              0.523
 Vibration    25          0.963              1.022              0.441
 Vibration    26          0.971              1.006              0.429

 Optimization completed.
    -- Stationary point found.
 Normal termination of Gaussian 16 at Mon Dec 14 14:15:35 2020.

 ----------------------------------------------------------------------
 # B3LYP/6-311++G(d,p) empiricaldispersion=gd3bj scf=xqc pop=npa geom=c
 heck
 ----------------------------------------------------------------------

 ---------------------------------------
 CID_128366067_JID_9734_Energie_neutraal
 ---------------------------------------
 Structure from the checkpoint file:  "JID_9734.chk"
 Charge =  0 Multiplicity = 1

 SCF Done:  E(RB3LYP) =  -824.060179372     A.U. after   15 cycles
 Normal termination of Gaussian 16 at Mon Dec 14 14:27:07 2020.

 ----------------------------------------------------------------------
 # B3LYP/6-311++G(d,p) empiricaldispersion=gd3bj scf=xqc pop=npa geom=c
 heck
 ----------------------------------------------------------------------

 -------------------------------------
 CID_128366067_JID_9734_Energie_kation
 -------------------------------------
 Structure from the checkpoint file:  "JID_9734.chk"
 Charge =  1 Multiplicity = 2

 SCF Done:  E(UB3LYP) =  -823.769061822     A.U. after   27 cycles
 Normal termination of Gaussian 16 at Mon Dec 14 14:57:12 2020.
 Gaussian 16:  ES64L-G16RevA.03 25-Dec-2016

 ----------------------------------------------------------------------
 # B3LYP/6-311++G(d,p) empiricaldispersion=gd3bj scf=xqc pop=npa geom=c
 heck
 ----------------------------------------------------------------------

 ------------------------------------
 CID_128366067_JID_9734_Energie_anion
 ------------------------------------
 Structure from the checkpoint file:  "JID_9734.chk"
 Charge = -1 Multiplicity = 2

                         Standard orientation:
 ---------------------------------------------------------------------
 Center     Atomic      Atomic             Coordinates (Angstroms)
 Number     Number       Type             X           Y           Z
 ---------------------------------------------------------------------
      1          6           0        1.964906   -2.663871   -0.780606
      2          6           0        2.525014   -1.337290   -0.336931
      3          7           0        1.651993   -0.312945   -0.274197
      4          6           0        2.095108    0.882115    0.116578
      5          6           0        3.435904    1.119741    0.479842
      6          6           0        4.326213    0.062448    0.407360
      7          6           0        3.872659   -1.191663   -0.011020
      8          7           0        1.203457    1.961181    0.165476
      9          6           0       -0.096501    2.039669   -0.414958
     10          8           0       -0.313210    2.917756   -1.242234
     11          7           0       -1.054448    1.184664    0.054694
     12          6           0       -2.408397    1.410236   -0.466330
     13          6           0       -3.252449    0.134323   -0.381881
     14          6           0       -2.680766   -0.981407   -1.309025
     15          6           0       -2.227957   -2.221643   -0.527087
     16          6           0       -1.290262   -1.830868    0.623470
     17          6           0       -1.853626   -0.674213    1.500321
     18          6           0       -3.289413   -0.323403    1.084782
     19          6           0       -0.981852    0.587441    1.393689
     20          1           0        1.384614   -3.128036    0.025781
     21          1           0        1.286620   -2.525731   -1.627876
     22          1           0        2.760586   -3.356815   -1.068790
     23          1           0        3.751168    2.106611    0.804821
     24          1           0        5.369249    0.210068    0.673249
     25          1           0        4.549079   -2.036628   -0.084188
     26          1           0        1.663996    2.846353   -0.012068
     27          1           0       -2.891035    2.220367    0.104713
     28          1           0       -2.309965    1.755334   -1.495471
     29          1           0       -4.265159    0.402695   -0.705331
     30          1           0       -1.815993   -0.583731   -1.853842
     31          1           0       -3.425341   -1.264942   -2.061636
     32          1           0       -1.716800   -2.921106   -1.200211
     33          1           0       -3.103885   -2.757634   -0.138724
     34          1           0       -0.339910   -1.503221    0.196121
     35          1           0       -1.082950   -2.708812    1.247521
     36          1           0       -1.840789   -0.968401    2.556792
     37          1           0       -3.955645   -1.182688    1.216625
     38          1           0       -3.682497    0.483277    1.718128
     39          1           0        0.054825    0.342213    1.615507
     40          1           0       -1.322994    1.328803    2.135705
 ---------------------------------------------------------------------

 SCF Done:  E(UB3LYP) =  -824.049923557     A.U. after   33 cycles
 SCF Done:  E(UB3LYP) =  -824.049993021     a.u. after    4 cycles

 The electronic state is 2-A.
 Alpha  occ. eigenvalues --  -18.99204 -14.24224 -14.24175 -14.19571 -10.20020
 Alpha  occ. eigenvalues --  -10.15014 -10.11101 -10.10222 -10.10030 -10.08204
 Alpha  occ. eigenvalues --  -10.07762 -10.07489 -10.07429 -10.06976 -10.06847
 Alpha  occ. eigenvalues --  -10.06553 -10.06514 -10.06342 -10.05304  -0.95848
 Alpha  occ. eigenvalues --   -0.86829  -0.84388  -0.80616  -0.73603  -0.70197
 Alpha  occ. eigenvalues --   -0.68082  -0.67514  -0.65353  -0.60749  -0.58725
 Alpha  occ. eigenvalues --   -0.57996  -0.54007  -0.52107  -0.51008  -0.49817
 Alpha  occ. eigenvalues --   -0.47034  -0.44548  -0.41996  -0.41241  -0.39484
 Alpha  occ. eigenvalues --   -0.38387  -0.37450  -0.37210  -0.36540  -0.35496
 Alpha  occ. eigenvalues --   -0.34647  -0.34012  -0.33127  -0.31956  -0.31593
 Alpha  occ. eigenvalues --   -0.30717  -0.30368  -0.30246  -0.29036  -0.27964
 Alpha  occ. eigenvalues --   -0.27610  -0.27097  -0.25924  -0.25105  -0.24870
 Alpha  occ. eigenvalues --   -0.24688  -0.21969  -0.21232  -0.20464  -0.19657
 Alpha  occ. eigenvalues --   -0.18540  -0.17834  -0.16123  -0.14560  -0.12647
 Alpha  occ. eigenvalues --    0.04126
 Alpha virt. eigenvalues --    0.05678   0.06223   0.06891   0.07291   0.07598
 Alpha virt. eigenvalues --    0.08098   0.08374   0.09181   0.09662   0.09799
 Alpha virt. eigenvalues --    0.10348   0.10809   0.11777   0.11941   0.12306

  Beta  occ. eigenvalues --  -18.99185 -14.24225 -14.24181 -14.19443 -10.20004
  Beta  occ. eigenvalues --  -10.15011 -10.11026 -10.10209 -10.10024 -10.08061
  Beta  occ. eigenvalues --  -10.07755 -10.07453 -10.07420 -10.06995 -10.06842
  Beta  occ. eigenvalues --  -10.06532 -10.06508 -10.06332 -10.05290  -0.95818
  Beta  occ. eigenvalues --   -0.86720  -0.84371  -0.80520  -0.73577  -0.69985
  Beta  occ. eigenvalues --   -0.68044  -0.67421  -0.65326  -0.60677  -0.58699
  Beta  occ. eigenvalues --   -0.57960  -0.53931  -0.52023  -0.50919  -0.49757
  Beta  occ. eigenvalues --   -0.46971  -0.44491  -0.41935  -0.41197  -0.39415
  Beta  occ. eigenvalues --   -0.38341  -0.37419  -0.37161  -0.36509  -0.35455
  Beta  occ. eigenvalues --   -0.34623  -0.33795  -0.33050  -0.31919  -0.31540
  Beta  occ. eigenvalues --   -0.30677  -0.30325  -0.30192  -0.28963  -0.27840
  Beta  occ. eigenvalues --   -0.27533  -0.27014  -0.25897  -0.25075  -0.24849
  Beta  occ. eigenvalues --   -0.24663  -0.21822  -0.21175  -0.20416  -0.19620
  Beta  occ. eigenvalues --   -0.18187  -0.17489  -0.16003  -0.14510  -0.12456
  Beta virt. eigenvalues --    0.06118   0.06471   0.07184   0.07380   0.07883
  Beta virt. eigenvalues --    0.07947   0.08408   0.08560   0.09512   0.10019
  Beta virt. eigenvalues --    0.10085   0.10528   0.10875   0.11903   0.12200

 Mulliken charges and spin densities:
               1          2
     1  C    0.377271  -0.980631
     2  C   -0.029864   0.038926
     3  N    0.003958   0.126106
     4  C    0.479288  -0.933076
     5  C   -1.065060   1.362607
     6  C    0.663049  -1.345562
     7  C   -0.625529   0.768086
     8  N   -0.080971  -0.012513
     9  C    0.298001  -0.160972
    10  O   -0.310063   0.006006
    11  N    0.094324  -0.064112
    12  C   -0.143487  -0.280360
    13  C    0.284064   0.194446
    14  C   -0.294634  -0.157604
    15  C   -0.028723  -0.389251
    16  C   -0.539447  -0.001576
    17  C    0.751705  -0.114614
    18  C    0.035481  -0.954784
    19  C   -0.447927  -0.086481
    20  H    0.006363   0.171748
    21  H    0.166063   0.000301
    22  H   -0.120050   0.270353
    23  H   -0.164958   0.310954
    24  H   -0.375114   0.524093
    25  H   -0.253136   0.418248
    26  H    0.260149   0.050360
    27  H    0.037797   0.122581
    28  H    0.186560   0.011694
    29  H   -0.187442   0.419905
    30  H    0.133459   0.042985
    31  H   -0.005584   0.170441
    32  H    0.128387   0.013479
    33  H   -0.103472   0.238346
    34  H    0.758731  -0.697566
    35  H   -0.245118   0.406051
    36  H   -0.240673   0.487806
    37  H   -0.170732   0.305876
    38  H   -0.111401   0.259688
    39  H    0.027264   0.126884
    40  H   -0.148528   0.331133
 Sum of Mulliken charges =  -1.00000   1.00000

 Dipole moment (field-independent basis, Debye):
    X=              0.1879    Y=              0.9427    Z=             -1.4640  Tot=              1.7513
 Quadrupole moment (field-independent basis, Debye-Ang):
   XX=           -194.6561   YY=           -160.7541   ZZ=           -150.8134
   XY=              0.8179   XZ=              2.6971   YZ=              8.3264

 Summary of Natural Population Analysis:

                                       Natural Population
                Natural  -----------------------------------------------
    Atom  No    Charge         Core      Valence    Rydberg      Total
 -----------------------------------------------------------------------
      C    1   -0.30001      0.99963     2.29491    0.00548     3.30001
      C    2    0.12848      0.99955     1.85956    0.01242     2.87152
      N    3   -0.25317      0.99963     2.74378    0.00975     3.75317
      C    4    0.20331      0.99952     1.78289    0.01428     2.79669
      C    5   -0.13909      0.99952     2.13050    0.00908     3.13909
      C    6   -0.05110      0.99957     2.04146    0.01007     3.05110
      C    7   -0.14612      0.99950     2.13761    0.00901     3.14612
      N    8   -0.32925      0.99965     2.82109    0.00852     3.82925
      C    9    0.42275      0.99966     1.55459    0.02300     2.57725
      O   10   -0.33048      0.99988     3.32601    0.00460     4.33048
      N   11   -0.26008      0.99962     2.75149    0.00897     3.76008
      C   12   -0.08025      0.99959     2.06930    0.01136     3.08025
      C   13   -0.11734      0.99959     2.10605    0.01170     3.11734
      C   14   -0.19025      0.99962     2.18171    0.00892     3.19025
      C   15   -0.18908      0.99962     2.18171    0.00774     3.18908
      C   16   -0.20335      0.99961     2.19398    0.00977     3.20335
      C   17   -0.11537      0.99959     2.10341    0.01237     3.11537
      C   18   -0.19084      0.99960     2.18152    0.00971     3.19084
      C   19   -0.07732      0.99958     2.06717    0.01057     3.07732
      H   20    0.11005      0.00000     0.38888    0.00108     0.38995
      H   21    0.10669      0.00000     0.39232    0.00098     0.39331
      H   22    0.09908      0.00000     0.40023    0.00069     0.40092
      H   23    0.10018      0.00000     0.39878    0.00104     0.39982
      H   24    0.09888      0.00000     0.40009    0.00103     0.40112
      H   25    0.10144      0.00000     0.39755    0.00102     0.39856
      H   26    0.19553      0.00000     0.30224    0.00223     0.30447
      H   27    0.09087      0.00000     0.40810    0.00102     0.40913
      H   28    0.11198      0.00000     0.38707    0.00095     0.38802
      H   29    0.10133      0.00000     0.39774    0.00094     0.39867
      H   30    0.09902      0.00000     0.39940    0.00159     0.40098
      H   31    0.09750      0.00000     0.40171    0.00080     0.40250
      H   32    0.09792      0.00000     0.40122    0.00085     0.40208
      H   33    0.09179      0.00000     0.40699    0.00122     0.40821
      H   34    0.11409      0.00000     0.38254    0.00337     0.38591
      H   35    0.09780      0.00000     0.40099    0.00120     0.40220
      H   36    0.10282      0.00000     0.39593    0.00124     0.39718
      H   37    0.10229      0.00000     0.39632    0.00139     0.39771
      H   38    0.10021      0.00000     0.39833    0.00146     0.39979
      H   39    0.11016      0.00000     0.38824    0.00160     0.38984
      H   40    0.08895      0.00000     0.40982    0.00123     0.41105
 =======================================================================
   * Total *    0.00000     18.99252    50.78321    0.22427    70.00000

 Normal termination of Gaussian 16 at Mon Dec 14 17:14:04 2020.
