 Gaussian 16, Revision A.03,

 -----------------------------------------------------------
 # opt freq B3LYP/6-31G(d) empiricaldispersion=gd3bj scf=xqc
 -----------------------------------------------------------

 -------------------------------
 CID_123845262_JID_1104_neutraal
 -------------------------------
 Symbolic Z-matrix:
 Charge =  0 Multiplicity = 1

 SCF Done:  E(RB3LYP) =  -446.050958937     A.U. after   16 cycles
 SCF Done:  E(RB3LYP) =  -446.071906447     A.U. after   13 cycles
 SCF Done:  E(RB3LYP) =  -446.072613664     A.U. after   12 cycles
 SCF Done:  E(RB3LYP) =  -446.072737593     A.U. after   11 cycles
 SCF Done:  E(RB3LYP) =  -446.072762104     A.U. after   11 cycles
 SCF Done:  E(RB3LYP) =  -446.072773251     A.U. after   10 cycles
 SCF Done:  E(RB3LYP) =  -446.072776262     A.U. after    9 cycles
 SCF Done:  E(RB3LYP) =  -446.072776756     A.U. after    8 cycles
 Optimization completed.
    -- Stationary point found.
 Normal termination of Gaussian 16 at Tue Dec  8 19:11:31 2020.

 --------------------------------------------------------------------
 #N Geom=AllCheck Guess=TCheck SCRF=Check GenChk RB3LYP/6-31G(d) Freq
 --------------------------------------------------------------------

 Structure from the checkpoint file:  "JID_1104.chk"
 -------------------------------
 CID_123845262_JID_1104_neutraal
 -------------------------------
 Charge =  0 Multiplicity = 1

 SCF Done:  E(RB3LYP) =  -446.072776756     A.U. after    1 cycles

  Exact polarizability: 141.876  -4.608 100.636   1.538  -4.226  84.226
 Approx polarizability: 173.630 -14.342 154.228   5.521  -9.615 121.397

                      1                      2                      3
                      A                      A                      A
 Frequencies --     15.9777                36.7485                55.6215
 Red. masses --      4.7255                 3.8480                 3.8887
 Frc consts  --      0.0007                 0.0031                 0.0071
 IR Inten    --      1.2283                 1.5297                 1.9405

                      4                      5                      6
                      A                      A                      A
 Frequencies --     84.4557                93.1830               121.5590
 Red. masses --      3.1718                 2.8948                 2.4267
 Frc consts  --      0.0133                 0.0148                 0.0211
 IR Inten    --      2.8987                 3.7544                 2.2243

                      7                      8                      9
                      A                      A                      A
 Frequencies --    178.3002               204.3863               241.9311
 Red. masses --      2.0837                 2.3663                 2.2655
 Frc consts  --      0.0390                 0.0582                 0.0781
 IR Inten    --      0.5819                 2.0085                 0.1661

                     10                     11                     12
                      A                      A                      A
 Frequencies --    256.0867               295.1991               356.3673
 Red. masses --      1.6964                 1.7132                 2.1591
 Frc consts  --      0.0655                 0.0880                 0.1616
 IR Inten    --      0.0330                 0.1185                 0.3953

                     13                     14                     15
                      A                      A                      A
 Frequencies --    384.8308               388.7216               425.1286
 Red. masses --      3.8765                 2.9569                 2.0246
 Frc consts  --      0.3382                 0.2632                 0.2156
 IR Inten    --      3.3169                 0.9208                 0.1047

                     16                     17                     18
                      A                      A                      A
 Frequencies --    489.8462               539.6747               586.4780
 Red. masses --      2.1073                 2.4124                 3.6427
 Frc consts  --      0.2979                 0.4140                 0.7382
 IR Inten    --      0.0583                 0.6890                 1.1658

                     19                     20                     21
                      A                      A                      A
 Frequencies --    728.5112               776.6595               810.3140
 Red. masses --      1.2438                 1.7134                 1.8669
 Frc consts  --      0.3889                 0.6089                 0.7222
 IR Inten    --     10.8072                 0.6880                 2.8074

                     22                     23                     24
                      A                      A                      A
 Frequencies --    841.1600               853.5491               858.3055
 Red. masses --      1.7542                 1.8908                 2.5355
 Frc consts  --      0.7313                 0.8116                 1.1005
 IR Inten    --      1.2741                 0.5297                 1.7435

                     25                     26                     27
                      A                      A                      A
 Frequencies --    900.6197               928.0370               994.0043
 Red. masses --      2.0352                 1.5625                 1.6897
 Frc consts  --      0.9726                 0.7929                 0.9836
 IR Inten    --      7.1109                 0.3841                 1.1708

                     28                     29                     30
                      A                      A                      A
 Frequencies --    997.3463              1019.5746              1025.8803
 Red. masses --      2.1069                 1.3809                 1.4550
 Frc consts  --      1.2348                 0.8458                 0.9022
 IR Inten    --      1.0454                14.8809                 5.4291

                     31                     32                     33
                      A                      A                      A
 Frequencies --   1040.4388              1067.4845              1091.4194
 Red. masses --      1.9411                 1.5594                 2.2347
 Frc consts  --      1.2380                 1.0469                 1.5684
 IR Inten    --      7.6604                 2.6165                 0.8930

                     34                     35                     36
                      A                      A                      A
 Frequencies --   1117.4790              1136.9907              1157.9906
 Red. masses --      2.5562                 2.0261                 1.8571
 Frc consts  --      1.8807                 1.5432                 1.4672
 IR Inten    --      1.0786                 1.5717                 0.5553

                     37                     38                     39
                      A                      A                      A
 Frequencies --   1203.0852              1226.2428              1240.5482
 Red. masses --      1.2433                 1.2488                 1.2792
 Frc consts  --      1.0603                 1.1063                 1.1599
 IR Inten    --      1.2952                 0.1208                 1.5651

                     40                     41                     42
                      A                      A                      A
 Frequencies --   1266.4745              1302.3995              1333.9530
 Red. masses --      1.2725                 1.2161                 1.2142
 Frc consts  --      1.2026                 1.2153                 1.2730
 IR Inten    --      0.7562                 0.7135                 2.0488

                     43                     44                     45
                      A                      A                      A
 Frequencies --   1346.4620              1350.9060              1361.7940
 Red. masses --      1.2537                 1.1600                 1.3218
 Frc consts  --      1.3391                 1.2473                 1.4442
 IR Inten    --      0.5532                13.1867                 2.4571

                     46                     47                     48
                      A                      A                      A
 Frequencies --   1375.0678              1384.6722              1400.4554
 Red. masses --      1.4271                 1.3844                 1.3789
 Frc consts  --      1.5898                 1.5639                 1.5934
 IR Inten    --      2.6926                 4.0433                14.1728

                     49                     50                     51
                      A                      A                      A
 Frequencies --   1412.4630              1419.4727              1444.1036
 Red. masses --      1.4285                 1.3985                 1.2721
 Frc consts  --      1.6792                 1.6603                 1.5631
 IR Inten    --      2.6918                 4.4469                 5.2782

                     52                     53                     54
                      A                      A                      A
 Frequencies --   1497.2976              1508.2065              1511.5598
 Red. masses --      1.0902                 1.0806                 1.0986
 Frc consts  --      1.4400                 1.4483                 1.4790
 IR Inten    --      7.7001                 3.0348                 4.4002

                     55                     56                     57
                      A                      A                      A
 Frequencies --   1516.9400              1525.6055              1528.3701
 Red. masses --      1.0822                 1.0892                 1.0593
 Frc consts  --      1.4672                 1.4936                 1.4578
 IR Inten    --      5.7802                 4.3046                 5.2242

                     58                     59                     60
                      A                      A                      A
 Frequencies --   1534.5916              1542.5270              1758.7683
 Red. masses --      1.0582                 1.0764                 5.9829
 Frc consts  --      1.4683                 1.5091                10.9039
 IR Inten    --      5.8910                 2.7974                 0.8041

                     61                     62                     63
                      A                      A                      A
 Frequencies --   2370.0773              3029.3052              3031.0946
 Red. masses --     12.5938                 1.0642                 1.0617
 Frc consts  --     41.6804                 5.7540                 5.7473
 IR Inten    --      8.7523                37.3814                10.6580

                     64                     65                     66
                      A                      A                      A
 Frequencies --   3036.1364              3042.8343              3045.0825
 Red. masses --      1.0633                 1.0533                 1.0629
 Frc consts  --      5.7751                 5.7460                 5.8067
 IR Inten    --     23.7260                 6.8766                28.5391

                     67                     68                     69
                      A                      A                      A
 Frequencies --   3047.0064              3060.8201              3061.3111
 Red. masses --      1.0465                 1.0595                 1.0974
 Frc consts  --      5.7245                 5.8484                 6.0593
 IR Inten    --     22.6685                 8.0113                23.1524

                     70                     71                     72
                      A                      A                      A
 Frequencies --   3068.6415              3078.7307              3085.3823
 Red. masses --      1.1005                 1.0971                 1.1040
 Frc consts  --      6.1054                 6.1266                 6.1922
 IR Inten    --     51.8455                39.8554                80.2772

                     73                     74                     75
                      A                      A                      A
 Frequencies --   3094.9595              3105.4242              3110.3318
 Red. masses --      1.0995                 1.1042                 1.1018
 Frc consts  --      6.2054                 6.2740                 6.2801
 IR Inten    --     11.6139                13.4374                49.2714

                     76                     77                     78
                      A                      A                      A
 Frequencies --   3116.4426              3137.1807              3151.9255
 Red. masses --      1.1020                 1.0895                 1.0877
 Frc consts  --      6.3059                 6.3179                 6.3669
 IR Inten    --     48.4923                18.5426                21.3965

 - Thermochemistry -
 -------------------
 Temperature   298.150 Kelvin.  Pressure   1.00000 Atm.
 Atom     1 has atomic number  6 and mass  12.00000

 Molecular mass:   151.13610 amu.
 Principal axes and moments of inertia in atomic units:
                           1         2         3
     Eigenvalues --   685.012335211.093395342.88490
           X            0.99992   0.01276   0.00043
           Y           -0.01270   0.99761  -0.06789
           Z           -0.00129   0.06788   0.99769
 This molecule is an asymmetric top.
 Rotational symmetry number  1.
 Warning -- assumption of classical behavior for rotation
           may cause significant error
 Rotational temperatures (Kelvin)      0.12644     0.01662     0.01621
 Rotational constants (GHZ):           2.63461     0.34633     0.33778
 Zero-point vibrational energy     662521.3 (Joules/Mol)
                                  158.34639 (Kcal/Mol)
 Warning -- explicit consideration of  18 degrees of freedom as
           vibrations may cause significant error
 Vibrational temperatures:     22.99    52.87    80.03   121.51   134.07
          (Kelvin)            174.90   256.53   294.07   348.08   368.45
                              424.73   512.73   553.69   559.28   611.67
                              704.78   776.47   843.81  1048.17  1117.44
                             1165.86  1210.24  1228.07  1234.91  1295.79
                             1335.24  1430.15  1434.96  1466.94  1476.01
                             1496.96  1535.87  1570.31  1607.80  1635.88
                             1666.09  1730.97  1764.29  1784.87  1822.17
                             1873.86  1919.26  1937.26  1943.65  1959.32
                             1978.42  1992.23  2014.94  2032.22  2042.30
                             2077.74  2154.28  2169.97  2174.80  2182.54
                             2195.01  2198.98  2207.94  2219.35  2530.48
                             3410.01  4358.49  4361.07  4368.32  4377.96
                             4381.19  4383.96  4403.84  4404.54  4415.09
                             4429.61  4439.18  4452.96  4468.01  4475.07
                             4483.87  4513.70  4534.92

 Zero-point correction=                           0.252341 (Hartree/Particle)
 Thermal correction to Energy=                    0.265447
 Thermal correction to Enthalpy=                  0.266392
 Thermal correction to Gibbs Free Energy=         0.210503
 Sum of electronic and zero-point Energies=           -445.820436
 Sum of electronic and thermal Energies=              -445.807329
 Sum of electronic and thermal Enthalpies=            -445.806385
 Sum of electronic and thermal Free Energies=         -445.862274

                     E (Thermal)             CV                S
                      KCal/Mol        Cal/Mol-Kelvin    Cal/Mol-Kelvin
 Total                  166.571             46.662            117.627
 Electronic               0.000              0.000              0.000
 Translational            0.889              2.981             40.949
 Rotational               0.889              2.981             31.323
 Vibrational            164.793             40.700             45.355
 Vibration     1          0.593              1.986              7.080
 Vibration     2          0.594              1.982              5.427
 Vibration     3          0.596              1.975              4.607
 Vibration     4          0.601              1.960              3.785
 Vibration     5          0.602              1.954              3.592
 Vibration     6          0.609              1.931              3.075
 Vibration     7          0.629              1.869              2.346
 Vibration     8          0.640              1.834              2.093
 Vibration     9          0.658              1.776              1.789
 Vibration    10          0.666              1.753              1.688
 Vibration    11          0.689              1.683              1.444
 Vibration    12          0.732              1.562              1.138
 Vibration    13          0.754              1.503              1.020
 Vibration    14          0.757              1.494              1.005
 Vibration    15          0.787              1.416              0.875
 Vibration    16          0.846              1.273              0.684
 Vibration    17          0.895              1.162              0.566
 Vibration    18          0.944              1.061              0.474

                           ! Non-Optimized Parameters !
 Normal termination of Gaussian 16 at Tue Dec  8 19:16:09 2020.

 ----------------------------------------------------------------------
 # B3LYP/6-311++G(d,p) empiricaldispersion=gd3bj scf=xqc pop=npa geom=c
 heck
 ----------------------------------------------------------------------

 ---------------------------------------
 CID_123845262_JID_1104_Energie_neutraal
 ---------------------------------------
 Structure from the checkpoint file:  "JID_1104.chk"
 Charge =  0 Multiplicity = 1

 SCF Done:  E(RB3LYP) =  -446.198736561     A.U. after   13 cycles
 Normal termination of Gaussian 16 at Tue Dec  8 19:17:55 2020.

 ----------------------------------------------------------------------
 # B3LYP/6-311++G(d,p) empiricaldispersion=gd3bj scf=xqc pop=npa geom=c
 heck
 ----------------------------------------------------------------------

 -------------------------------------
 CID_123845262_JID_1104_Energie_kation
 -------------------------------------
 Structure from the checkpoint file:  "JID_1104.chk"
 Charge =  1 Multiplicity = 2

 SCF Done:  E(UB3LYP) =  -445.862100884     A.U. after   19 cycles
 Normal termination of Gaussian 16 at Tue Dec  8 19:21:26 2020.
 Gaussian 16:  ES64L-G16RevA.03 25-Dec-2016

 ----------------------------------------------------------------------
 # B3LYP/6-311++G(d,p) empiricaldispersion=gd3bj scf=xqc pop=npa geom=c
 heck
 ----------------------------------------------------------------------

 ------------------------------------
 CID_123845262_JID_1104_Energie_anion
 ------------------------------------
 Structure from the checkpoint file:  "JID_1104.chk"
 Charge = -1 Multiplicity = 2

                         Standard orientation:
 ---------------------------------------------------------------------
 Center     Atomic      Atomic             Coordinates (Angstroms)
 Number     Number       Type             X           Y           Z
 ---------------------------------------------------------------------
      1          6           0        4.611949    0.037598   -0.219056
      2          6           0        3.457513   -0.767427    0.384968
      3          6           0        2.421566    0.090175    1.127706
      4          6           0        1.733674    1.169420    0.277079
      5          6           0        1.018267    0.646092   -0.986566
      6          6           0       -0.024305   -0.395343   -0.692860
      7          6           0       -1.341042   -0.211234   -0.812074
      8          6           0       -2.379126   -1.244331   -0.478086
      9          6           0       -3.282356   -0.820615    0.707982
     10          6           0       -4.019499    0.415051    0.431599
     11          7           0       -4.589516    1.395315    0.183782
     12          1           0        4.263658    0.725163   -0.997831
     13          1           0        5.359352   -0.622418   -0.673057
     14          1           0        5.116864    0.636820    0.548689
     15          1           0        2.963758   -1.345693   -0.407728
     16          1           0        3.862684   -1.507732    1.087111
     17          1           0        1.657938   -0.569631    1.560279
     18          1           0        2.913277    0.582107    1.978251
     19          1           0        0.997061    1.690843    0.901362
     20          1           0        2.469113    1.924109   -0.028996
     21          1           0        0.552220    1.493069   -1.504301
     22          1           0        1.764662    0.230245   -1.677756
     23          1           0        0.338559   -1.363107   -0.342143
     24          1           0       -1.718134    0.751876   -1.158501
     25          1           0       -3.021963   -1.438461   -1.346734
     26          1           0       -1.899143   -2.192247   -0.210088
     27          1           0       -4.004913   -1.612603    0.938173
     28          1           0       -2.668231   -0.665865    1.602640
 ---------------------------------------------------------------------

 SCF Done:  E(UB3LYP) =  -446.187313430     A.U. after   31 cycles

 The electronic state is 2-A.
 Alpha  occ. eigenvalues --  -14.21596 -10.11666 -10.11600 -10.09038 -10.07890
 Alpha  occ. eigenvalues --  -10.07705 -10.07593 -10.07444 -10.06925 -10.06806
 Alpha  occ. eigenvalues --  -10.06553  -0.81408  -0.73265  -0.71410  -0.68146
 Alpha  occ. eigenvalues --   -0.64246  -0.59727  -0.55862  -0.52109  -0.47403
 Alpha  occ. eigenvalues --   -0.45193  -0.41350  -0.38991  -0.37688  -0.37184
 Alpha  occ. eigenvalues --   -0.34820  -0.33439  -0.32332  -0.31914  -0.30267
 Alpha  occ. eigenvalues --   -0.29398  -0.28169  -0.27464  -0.26679  -0.25964
 Alpha  occ. eigenvalues --   -0.25417  -0.23627  -0.23373  -0.23012  -0.22609
 Alpha  occ. eigenvalues --   -0.22079  -0.15930   0.04251
 Alpha virt. eigenvalues --    0.05761   0.07502   0.07555   0.08291   0.08932
 Alpha virt. eigenvalues --    0.09187   0.09794   0.10069   0.10659   0.10927
 Alpha virt. eigenvalues --    0.11646   0.11777   0.12139   0.12912   0.13293

  Beta  occ. eigenvalues --  -14.21580 -10.11660 -10.11551 -10.09003 -10.07884
  Beta  occ. eigenvalues --  -10.07705 -10.07573 -10.07437 -10.06904 -10.06791
  Beta  occ. eigenvalues --  -10.06525  -0.81374  -0.73228  -0.71368  -0.68099
  Beta  occ. eigenvalues --   -0.64204  -0.59674  -0.55793  -0.52051  -0.47343
  Beta  occ. eigenvalues --   -0.45140  -0.41276  -0.38948  -0.37651  -0.37146
  Beta  occ. eigenvalues --   -0.34773  -0.33388  -0.32293  -0.31853  -0.30233
  Beta  occ. eigenvalues --   -0.29358  -0.28134  -0.27432  -0.26647  -0.25935
  Beta  occ. eigenvalues --   -0.25375  -0.23562  -0.23343  -0.22978  -0.22579
  Beta  occ. eigenvalues --   -0.22043  -0.15892
  Beta virt. eigenvalues --    0.06288   0.07160   0.07857   0.08002   0.08745
  Beta virt. eigenvalues --    0.09438   0.09567   0.09960   0.10633   0.10859
  Beta virt. eigenvalues --    0.11323   0.11815   0.12019   0.12486   0.12966

 Mulliken charges and spin densities:
               1          2
     1  C    0.696089  -1.318307
     2  C   -0.294593   0.113391
     3  C    0.079032  -0.294628
     4  C    0.115905  -0.420952
     5  C    0.316961  -0.547649
     6  C   -0.537547   0.380223
     7  C    0.438255  -0.511843
     8  C   -0.012987  -0.237909
     9  C    0.235058  -0.272264
    10  C    0.886591  -1.081575
    11  N   -0.391496   0.059518
    12  H   -0.040333   0.176994
    13  H   -0.309135   0.448362
    14  H   -0.004003   0.137754
    15  H   -0.128941   0.273370
    16  H   -0.435094   0.595728
    17  H   -0.032506   0.186924
    18  H   -0.284212   0.434252
    19  H    0.147096  -0.000992
    20  H    0.079311   0.053687
    21  H    0.187127  -0.027080
    22  H   -0.015119   0.150862
    23  H   -0.019746   0.177608
    24  H    0.015854   0.116957
    25  H   -0.102001   0.256216
    26  H   -0.784975   0.981491
    27  H   -0.650054   0.854061
    28  H   -0.154538   0.315800
 Sum of Mulliken charges =  -1.00000   1.00000

 Dipole moment (field-independent basis, Debye):
    X=              2.2223    Y=              4.6045    Z=             -2.4662  Tot=              5.6764
 Quadrupole moment (field-independent basis, Debye-Ang):
   XX=           -176.5621   YY=           -113.9445   ZZ=            -99.1187
   XY=              4.2363   XZ=              1.1036   YZ=              2.7294

 Summary of Natural Population Analysis:

                                       Natural Population
                Natural  -----------------------------------------------
    Atom  No    Charge         Core      Valence    Rydberg      Total
 -----------------------------------------------------------------------
      C    1   -0.28824      0.99967     2.28226    0.00632     3.28824
      C    2   -0.19312      0.99964     2.18503    0.00845     3.19312
      C    3   -0.19243      0.99963     2.18354    0.00927     3.19243
      C    4   -0.18442      0.99962     2.17800    0.00680     3.18442
      C    5   -0.20578      0.99961     2.19803    0.00813     3.20578
      C    6   -0.08144      0.99950     2.07183    0.01010     3.08144
      C    7   -0.09840      0.99950     2.08940    0.00950     3.09840
      C    8   -0.19596      0.99961     2.18511    0.01124     3.19596
      C    9   -0.24400      0.99954     2.23487    0.00959     3.24400
      C   10    0.16591      0.99966     1.81779    0.01664     2.83409
      N   11   -0.19412      0.99979     2.68306    0.01127     3.69412
      H   12    0.09354      0.00000     0.40548    0.00098     0.40646
      H   13    0.10024      0.00000     0.39873    0.00103     0.39976
      H   14    0.09519      0.00000     0.40383    0.00099     0.40481
      H   15    0.09332      0.00000     0.40510    0.00158     0.40668
      H   16    0.09836      0.00000     0.40010    0.00155     0.40164
      H   17    0.10054      0.00000     0.39798    0.00148     0.39946
      H   18    0.09554      0.00000     0.40339    0.00107     0.40446
      H   19    0.09756      0.00000     0.40131    0.00113     0.40244
      H   20    0.09358      0.00000     0.40529    0.00113     0.40642
      H   21    0.09784      0.00000     0.40107    0.00109     0.40216
      H   22    0.09986      0.00000     0.39888    0.00127     0.40014
      H   23    0.09463      0.00000     0.40370    0.00167     0.40537
      H   24    0.09278      0.00000     0.40532    0.00190     0.40722
      H   25    0.10192      0.00000     0.39658    0.00150     0.39808
      H   26    0.10952      0.00000     0.38689    0.00358     0.39048
      H   27    0.12596      0.00000     0.36911    0.00493     0.37404
      H   28    0.12166      0.00000     0.37611    0.00223     0.37834
 =======================================================================
   * Total *   -0.00000     10.99578    30.86781    0.13641    42.00000

 Normal termination of Gaussian 16 at Tue Dec  8 19:26:49 2020.
