 Gaussian 16, Revision A.03,

 -----------------------------------------------------------
 # opt freq B3LYP/6-31G(d) empiricaldispersion=gd3bj scf=xqc
 -----------------------------------------------------------

 -------------------------------
 CID_133631841_JID_4844_neutraal
 -------------------------------
 Symbolic Z-matrix:
 Charge =  0 Multiplicity = 1

 SCF Done:  E(RB3LYP) =  -582.620119262     A.U. after   15 cycles
 SCF Done:  E(RB3LYP) =  -582.640951862     A.U. after   13 cycles
 SCF Done:  E(RB3LYP) =  -582.642782140     A.U. after   13 cycles
 SCF Done:  E(RB3LYP) =  -582.641071702     A.U. after   13 cycles
 SCF Done:  E(RB3LYP) =  -582.637521570     A.U. after   13 cycles
 SCF Done:  E(RB3LYP) =  -582.629631568     A.U. after   13 cycles
 SCF Done:  E(RB3LYP) =  -582.642990944     A.U. after   11 cycles
 SCF Done:  E(RB3LYP) =  -582.643894557     A.U. after   12 cycles
 SCF Done:  E(RB3LYP) =  -582.642161079     A.U. after   13 cycles
 SCF Done:  E(RB3LYP) =  -582.644412492     A.U. after   12 cycles
 SCF Done:  E(RB3LYP) =  -582.645956122     A.U. after   10 cycles
 SCF Done:  E(RB3LYP) =  -582.645961084     A.U. after    9 cycles
 SCF Done:  E(RB3LYP) =  -582.645962396     A.U. after    8 cycles
 SCF Done:  E(RB3LYP) =  -582.645962716     A.U. after    8 cycles
 SCF Done:  E(RB3LYP) =  -582.645962766     A.U. after    7 cycles
 Optimization completed.
    -- Stationary point found.
 Normal termination of Gaussian 16 at Thu Dec 10 10:12:16 2020.

 --------------------------------------------------------------------
 #N Geom=AllCheck Guess=TCheck SCRF=Check GenChk RB3LYP/6-31G(d) Freq
 --------------------------------------------------------------------

 Structure from the checkpoint file:  "JID_4844.chk"
 -------------------------------
 CID_133631841_JID_4844_neutraal
 -------------------------------
 Charge =  0 Multiplicity = 1

 SCF Done:  E(RB3LYP) =  -582.645962766     A.U. after    1 cycles

  Exact polarizability: 174.177   8.787 137.779  -6.884  -1.144 106.178
 Approx polarizability: 251.694  31.704 198.357 -15.446  -0.651 152.727

                      1                      2                      3
                      A                      A                      A
 Frequencies --     28.0747                54.6328                72.3835
 Red. masses --      3.4320                 3.3514                 3.3939
 Frc consts  --      0.0016                 0.0059                 0.0105
 IR Inten    --      0.3116                 0.0458                 0.2868

                      4                      5                      6
                      A                      A                      A
 Frequencies --     89.2845               114.0941               138.0565
 Red. masses --      4.6677                 3.5796                 2.3186
 Frc consts  --      0.0219                 0.0275                 0.0260
 IR Inten    --      3.1857                 0.5217                 0.4766

                      7                      8                      9
                      A                      A                      A
 Frequencies --    180.3305               198.1223               218.7617
 Red. masses --      1.3722                 2.3718                 2.6614
 Frc consts  --      0.0263                 0.0549                 0.0750
 IR Inten    --      0.0878                 1.4793                 0.4434

                     10                     11                     12
                      A                      A                      A
 Frequencies --    235.2905               267.9386               274.4602
 Red. masses --      2.3340                 1.4909                 1.8093
 Frc consts  --      0.0761                 0.0631                 0.0803
 IR Inten    --      1.0198                 1.3316                 1.3936

                     13                     14                     15
                      A                      A                      A
 Frequencies --    310.3846               354.9497               382.4337
 Red. masses --      3.2933                 3.0721                 2.2437
 Frc consts  --      0.1869                 0.2280                 0.1933
 IR Inten    --      2.0404                 0.8758                 1.7858

                     16                     17                     18
                      A                      A                      A
 Frequencies --    404.2744               421.9510               431.1327
 Red. masses --      2.4913                 3.0643                 1.0922
 Frc consts  --      0.2399                 0.3214                 0.1196
 IR Inten    --      3.8005                 2.4801                76.2552

                     19                     20                     21
                      A                      A                      A
 Frequencies --    458.0202               488.8619               526.0606
 Red. masses --      3.0351                 2.0153                 3.9564
 Frc consts  --      0.3751                 0.2838                 0.6451
 IR Inten    --     21.6722                 3.0038                 2.1764

                     22                     23                     24
                      A                      A                      A
 Frequencies --    559.0968               577.3311               617.2341
 Red. masses --      4.0437                 2.8082                 4.5179
 Frc consts  --      0.7447                 0.5515                 1.0141
 IR Inten    --      1.2891                 0.6976                 1.6074

                     25                     26                     27
                      A                      A                      A
 Frequencies --    683.1291               728.7011               800.2937
 Red. masses --      2.9553                 2.9686                 1.4982
 Frc consts  --      0.8126                 0.9287                 0.5654
 IR Inten    --      2.3193                 2.0835                 0.2372

                     28                     29                     30
                      A                      A                      A
 Frequencies --    805.9726               842.3709               844.9448
 Red. masses --      3.7974                 2.8372                 1.4382
 Frc consts  --      1.4534                 1.1862                 0.6050
 IR Inten    --      0.5859                 1.8561                 9.3045

                     31                     32                     33
                      A                      A                      A
 Frequencies --    865.3046               874.2038               881.6132
 Red. masses --      2.5015                 2.4716                 1.5195
 Frc consts  --      1.1035                 1.1129                 0.6958
 IR Inten    --      1.0568                 1.1900                 3.4972

                     34                     35                     36
                      A                      A                      A
 Frequencies --    948.1586               957.9207               999.9533
 Red. masses --      1.7659                 1.3891                 2.1897
 Frc consts  --      0.9354                 0.7510                 1.2900
 IR Inten    --      1.5893                 1.6015                 7.5095

                     37                     38                     39
                      A                      A                      A
 Frequencies --   1034.4649              1040.6378              1048.7768
 Red. masses --      2.1354                 2.0556                 1.6360
 Frc consts  --      1.3464                 1.3116                 1.0602
 IR Inten    --     15.8750                 5.0923                 0.7180

                     40                     41                     42
                      A                      A                      A
 Frequencies --   1060.5126              1065.4757              1081.7207
 Red. masses --      1.8713                 1.6672                 1.4895
 Frc consts  --      1.2400                 1.1151                 1.0269
 IR Inten    --      9.1400                22.2798                 6.5308

                     43                     44                     45
                      A                      A                      A
 Frequencies --   1100.1095              1102.3823              1140.2227
 Red. masses --      2.1210                 2.7047                 1.0537
 Frc consts  --      1.5124                 1.9365                 0.8072
 IR Inten    --      0.0009                19.6881                 0.0225

                     46                     47                     48
                      A                      A                      A
 Frequencies --   1154.3311              1169.5381              1171.2611
 Red. masses --      1.9801                 1.9960                 1.4255
 Frc consts  --      1.5545                 1.6086                 1.1522
 IR Inten    --      0.1680                36.6243                 0.2226

                     49                     50                     51
                      A                      A                      A
 Frequencies --   1213.3317              1270.0484              1299.3239
 Red. masses --      1.8925                 1.2710                 1.3212
 Frc consts  --      1.6415                 1.2079                 1.3141
 IR Inten    --     12.2668                 0.5273                 0.0155

                     52                     53                     54
                      A                      A                      A
 Frequencies --   1311.8850              1327.5026              1336.0227
 Red. masses --      1.2391                 1.3483                 1.5068
 Frc consts  --      1.2565                 1.3999                 1.5847
 IR Inten    --      0.8302                 1.6952                 9.1809

                     55                     56                     57
                      A                      A                      A
 Frequencies --   1359.7563              1365.0499              1368.5189
 Red. masses --      1.4159                 1.3781                 1.3199
 Frc consts  --      1.5425                 1.5130                 1.4565
 IR Inten    --      7.3213                 6.8119                 0.3424

                     58                     59                     60
                      A                      A                      A
 Frequencies --   1392.7390              1401.1318              1403.6631
 Red. masses --      1.7497                 1.3982                 1.4670
 Frc consts  --      1.9997                 1.6173                 1.7030
 IR Inten    --      4.7007                 8.5382                 0.2288

                     61                     62                     63
                      A                      A                      A
 Frequencies --   1405.2961              1423.1322              1424.3725
 Red. masses --      1.4092                 1.3399                 1.3725
 Frc consts  --      1.6397                 1.5988                 1.6407
 IR Inten    --      8.0378                 6.3388                 7.6746

                     64                     65                     66
                      A                      A                      A
 Frequencies --   1438.4667              1465.7929              1505.6439
 Red. masses --      1.2434                 1.1804                 1.0449
 Frc consts  --      1.5158                 1.4943                 1.3956
 IR Inten    --      0.6740                42.2337                 6.3995

                     67                     68                     69
                      A                      A                      A
 Frequencies --   1509.4402              1513.5567              1516.2928
 Red. masses --      1.0847                 1.0899                 1.0753
 Frc consts  --      1.4560                 1.4711                 1.4567
 IR Inten    --      0.6375                 2.5103                 6.3277

                     70                     71                     72
                      A                      A                      A
 Frequencies --   1519.2472              1522.4209              1522.8479
 Red. masses --      1.0797                 1.0607                 1.0640
 Frc consts  --      1.4683                 1.4485                 1.4538
 IR Inten    --      6.7423                 0.2792                 0.2909

                     73                     74                     75
                      A                      A                      A
 Frequencies --   1525.7918              1536.2332              1704.2040
 Red. masses --      1.0765                 1.0983                 6.8568
 Frc consts  --      1.4765                 1.5271                11.7332
 IR Inten    --     11.0191                 1.4059                 2.6304

                     76                     77                     78
                      A                      A                      A
 Frequencies --   2322.0589              3020.9396              3024.4414
 Red. masses --     11.9215                 1.0678                 1.0788
 Frc consts  --     37.8728                 5.7417                 5.8143
 IR Inten    --      6.6291                25.8126                10.1433

                     79                     80                     81
                      A                      A                      A
 Frequencies --   3035.5142              3043.4807              3044.4869
 Red. masses --      1.0654                 1.0615                 1.0685
 Frc consts  --      5.7838                 5.7931                 5.8349
 IR Inten    --     11.7972                12.2085                85.9978

                     82                     83                     84
                      A                      A                      A
 Frequencies --   3046.4823              3050.5483              3056.3908
 Red. masses --      1.0363                 1.0345                 1.0643
 Frc consts  --      5.6667                 5.6719                 5.8579
 IR Inten    --     33.4741                18.0801                20.7085

                     85                     86                     87
                      A                      A                      A
 Frequencies --   3065.3712              3076.8868              3083.3317
 Red. masses --      1.0862                 1.0928                 1.1010
 Frc consts  --      6.0137                 6.0953                 6.1672
 IR Inten    --     39.9666                48.2490                67.3286

                     88                     89                     90
                      A                      A                      A
 Frequencies --   3087.7355              3092.6717              3100.7195
 Red. masses --      1.0991                 1.1013                 1.1017
 Frc consts  --      6.1742                 6.2064                 6.2408
 IR Inten    --     21.3081                24.2877                70.8773

                     91                     92                     93
                      A                      A                      A
 Frequencies --   3101.8849              3121.1916              3134.1147
 Red. masses --      1.1013                 1.1014                 1.1024
 Frc consts  --      6.2429                 6.3219                 6.3801
 IR Inten    --     18.1521                26.7558                19.8790

                     94                     95                     96
                      A                      A                      A
 Frequencies --   3134.5850              3169.5902              3692.9651
 Red. masses --      1.1036                 1.0894                 1.0654
 Frc consts  --      6.3888                 6.4484                 8.5609
 IR Inten    --     31.6399                22.3084                74.2809

 - Thermochemistry -
 -------------------
 Temperature   298.150 Kelvin.  Pressure   1.00000 Atm.
 Atom     1 has atomic number  6 and mass  12.00000

 Molecular mass:   192.15142 amu.
 Principal axes and moments of inertia in atomic units:
                           1         2         3
     Eigenvalues --  1878.403663973.215924743.99359
           X            0.99991  -0.01169  -0.00703
           Y            0.01156   0.99976  -0.01858
           Z            0.00724   0.01850   0.99980
 This molecule is an asymmetric top.
 Rotational symmetry number  1.
 Warning -- assumption of classical behavior for rotation
           may cause significant error
 Rotational temperatures (Kelvin)      0.04611     0.02180     0.01826
 Rotational constants (GHZ):           0.96078     0.45423     0.38043
 Zero-point vibrational energy     800853.6 (Joules/Mol)
                                  191.40860 (Kcal/Mol)
 Warning -- explicit consideration of  24 degrees of freedom as
           vibrations may cause significant error
 Vibrational temperatures:     40.39    78.60   104.14   128.46   164.16
          (Kelvin)            198.63   259.46   285.05   314.75   338.53
                              385.50   394.89   446.57   510.69   550.24
                              581.66   607.09   620.30   658.99   703.36
                              756.88   804.42   830.65   888.06   982.87
                             1048.44  1151.44  1159.61  1211.98  1215.69
                             1244.98  1257.78  1268.44  1364.19  1378.23
                             1438.71  1488.36  1497.25  1508.96  1525.84
                             1532.98  1556.35  1582.81  1586.08  1640.53
                             1660.82  1682.70  1685.18  1745.71  1827.32
                             1869.44  1887.51  1909.98  1922.24  1956.39
                             1964.00  1968.99  2003.84  2015.92  2019.56
                             2021.91  2047.57  2049.35  2069.63  2108.95
                             2166.29  2171.75  2177.67  2181.61  2185.86
                             2190.42  2191.04  2195.27  2210.30  2451.97
                             3340.92  4346.46  4351.50  4367.43  4378.89
                             4380.34  4383.21  4389.06  4397.46  4410.39
                             4426.95  4436.23  4442.56  4449.66  4461.24
                             4462.92  4490.70  4509.29  4509.97  4560.33
                             5313.35

 Zero-point correction=                           0.305029 (Hartree/Particle)
 Thermal correction to Energy=                    0.320077
 Thermal correction to Enthalpy=                  0.321021
 Thermal correction to Gibbs Free Energy=         0.262792
 Sum of electronic and zero-point Energies=           -582.340934
 Sum of electronic and thermal Energies=              -582.325886
 Sum of electronic and thermal Enthalpies=            -582.324941
 Sum of electronic and thermal Free Energies=         -582.383171

                     E (Thermal)             CV                S
                      KCal/Mol        Cal/Mol-Kelvin    Cal/Mol-Kelvin
 Total                  200.851             57.580            122.555
 Electronic               0.000              0.000              0.000
 Translational            0.889              2.981             41.665
 Rotational               0.889              2.981             31.938
 Vibrational            199.074             51.618             48.952
 Vibration     1          0.593              1.984              5.961
 Vibration     2          0.596              1.976              4.642
 Vibration     3          0.598              1.967              4.087
 Vibration     4          0.602              1.957              3.676
 Vibration     5          0.607              1.938              3.198
 Vibration     6          0.614              1.915              2.831
 Vibration     7          0.629              1.866              2.325
 Vibration     8          0.637              1.843              2.150
 Vibration     9          0.647              1.812              1.969
 Vibration    10          0.655              1.787              1.838
 Vibration    11          0.673              1.732              1.609
 Vibration    12          0.677              1.721              1.568
 Vibration    13          0.699              1.654              1.360
 Vibration    14          0.731              1.565              1.144
 Vibration    15          0.752              1.508              1.030
 Vibration    16          0.769              1.461              0.947
 Vibration    17          0.784              1.423              0.885
 Vibration    18          0.792              1.402              0.855
 Vibration    19          0.816              1.343              0.772
 Vibration    20          0.845              1.275              0.687
 Vibration    21          0.881              1.192              0.596
 Vibration    22          0.915              1.120              0.526
 Vibration    23          0.934              1.080              0.490
 Vibration    24          0.977              0.995              0.421

 Optimization completed.
    -- Stationary point found.
 Normal termination of Gaussian 16 at Thu Dec 10 10:22:12 2020.

 ----------------------------------------------------------------------
 # B3LYP/6-311++G(d,p) empiricaldispersion=gd3bj scf=xqc pop=npa geom=c
 heck
 ----------------------------------------------------------------------

 ---------------------------------------
 CID_133631841_JID_4844_Energie_neutraal
 ---------------------------------------
 Structure from the checkpoint file:  "JID_4844.chk"
 Charge =  0 Multiplicity = 1

 SCF Done:  E(RB3LYP) =  -582.813129724     A.U. after   14 cycles
 Normal termination of Gaussian 16 at Thu Dec 10 10:26:52 2020.

 ----------------------------------------------------------------------
 # B3LYP/6-311++G(d,p) empiricaldispersion=gd3bj scf=xqc pop=npa geom=c
 heck
 ----------------------------------------------------------------------

 -------------------------------------
 CID_133631841_JID_4844_Energie_kation
 -------------------------------------
 Structure from the checkpoint file:  "JID_4844.chk"
 Charge =  1 Multiplicity = 2

 SCF Done:  E(UB3LYP) =  -582.511007349     A.U. after   21 cycles
 Normal termination of Gaussian 16 at Thu Dec 10 10:36:39 2020.
 Gaussian 16:  ES64L-G16RevA.03 25-Dec-2016

 ----------------------------------------------------------------------
 # B3LYP/6-311++G(d,p) empiricaldispersion=gd3bj scf=xqc pop=npa geom=c
 heck
 ----------------------------------------------------------------------

 ------------------------------------
 CID_133631841_JID_4844_Energie_anion
 ------------------------------------
 Structure from the checkpoint file:  "JID_4844.chk"
 Charge = -1 Multiplicity = 2

                         Standard orientation:
 ---------------------------------------------------------------------
 Center     Atomic      Atomic             Coordinates (Angstroms)
 Number     Number       Type             X           Y           Z
 ---------------------------------------------------------------------
      1          6           0       -1.586317   -2.037517    1.158930
      2          6           0       -2.281765   -1.581083   -0.133334
      3          6           0       -2.950273   -0.232762    0.061240
      4          6           0       -2.339898    0.967471    0.035904
      5          6           0       -3.086366    2.263606    0.262555
      6          6           0       -0.933177    1.091320   -0.201887
      7          6           0        0.258924    1.240169   -0.384776
      8          6           0        1.707118    1.368289   -0.570296
      9          6           0        2.439423    1.377008    0.795903
     10          6           0        2.354786    0.014129    1.492266
     11          6           0        2.905322   -1.105553    0.598235
     12          6           0        2.206089   -1.135743   -0.767972
     13          6           0        2.268430    0.231275   -1.461712
     14          8           0       -1.387953   -1.628456   -1.243639
     15          1           0       -0.803703   -1.323765    1.437125
     16          1           0       -1.128789   -3.020001    1.004716
     17          1           0       -2.297433   -2.104418    1.990624
     18          1           0       -3.062374   -2.309250   -0.380435
     19          1           0       -4.016525   -0.250565    0.279224
     20          1           0       -2.669085    2.808018    1.118104
     21          1           0       -2.998936    2.921514   -0.610277
     22          1           0       -4.147410    2.076471    0.451810
     23          1           0        1.900417    2.326605   -1.071958
     24          1           0        3.492084    1.630498    0.609146
     25          1           0        2.024064    2.165618    1.432993
     26          1           0        1.305943   -0.196140    1.740150
     27          1           0        2.902936    0.047794    2.441616
     28          1           0        2.798210   -2.075989    1.097703
     29          1           0        3.983482   -0.945911    0.448339
     30          1           0        1.160262   -1.440062   -0.640775
     31          1           0        2.668142   -1.892926   -1.412816
     32          1           0        1.727938    0.207020   -2.414699
     33          1           0        3.314281    0.477681   -1.690666
     34          1           0       -0.823663   -0.838206   -1.191139
 ---------------------------------------------------------------------

 SCF Done:  E(UB3LYP) =  -582.801230633     A.U. after   33 cycles
 SCF Done:  E(UB3LYP) =  -582.801230633     a.u. after    1 cycles

 The electronic state is 2-A.
 Alpha  occ. eigenvalues --  -19.00625 -10.11897 -10.08970 -10.08212 -10.06870
 Alpha  occ. eigenvalues --  -10.06718 -10.06052 -10.05977 -10.05951 -10.05832
 Alpha  occ. eigenvalues --  -10.05682 -10.05680 -10.05487 -10.05367  -0.91141
 Alpha  occ. eigenvalues --   -0.73850  -0.71414  -0.66504  -0.64924  -0.63932
 Alpha  occ. eigenvalues --   -0.61519  -0.58286  -0.53019  -0.51070  -0.50652
 Alpha  occ. eigenvalues --   -0.47775  -0.45043  -0.40262  -0.38329  -0.36927
 Alpha  occ. eigenvalues --   -0.35810  -0.34436  -0.34057  -0.32782  -0.31971
 Alpha  occ. eigenvalues --   -0.31412  -0.29984  -0.28744  -0.28536  -0.28176
 Alpha  occ. eigenvalues --   -0.27957  -0.27782  -0.26417  -0.26086  -0.24353
 Alpha  occ. eigenvalues --   -0.22825  -0.21850  -0.20994  -0.20539  -0.19322
 Alpha  occ. eigenvalues --   -0.16600  -0.15488  -0.12309   0.04560
 Alpha virt. eigenvalues --    0.06534   0.07119   0.07539   0.08275   0.08687
 Alpha virt. eigenvalues --    0.08914   0.10124   0.10332   0.10683   0.11134
 Alpha virt. eigenvalues --    0.11404   0.11762   0.12769   0.13031   0.13553

  Beta  occ. eigenvalues --  -19.00618 -10.11907 -10.08973 -10.08126 -10.06864
  Beta  occ. eigenvalues --  -10.06705 -10.06008 -10.05973 -10.05938 -10.05754
  Beta  occ. eigenvalues --  -10.05664 -10.05535 -10.05468 -10.05331  -0.91122
  Beta  occ. eigenvalues --   -0.73786  -0.71201  -0.66407  -0.64837  -0.63894
  Beta  occ. eigenvalues --   -0.61456  -0.58149  -0.52897  -0.51026  -0.50593
  Beta  occ. eigenvalues --   -0.47606  -0.44941  -0.40199  -0.38263  -0.36857
  Beta  occ. eigenvalues --   -0.35742  -0.34406  -0.33998  -0.32685  -0.31859
  Beta  occ. eigenvalues --   -0.31336  -0.29914  -0.28685  -0.28484  -0.28111
  Beta  occ. eigenvalues --   -0.27891  -0.27749  -0.26350  -0.26034  -0.24300
  Beta  occ. eigenvalues --   -0.22756  -0.21775  -0.20856  -0.20498  -0.19021
  Beta  occ. eigenvalues --   -0.16560  -0.15435  -0.11656
  Beta virt. eigenvalues --    0.06768   0.07316   0.07655   0.08167   0.08785
  Beta virt. eigenvalues --    0.09132   0.09323   0.10304   0.10599   0.10993
  Beta virt. eigenvalues --    0.11390   0.11606   0.12060   0.12843   0.13226

 Mulliken charges and spin densities:
               1          2
     1  C   -0.000639  -0.522502
     2  C    0.023517  -0.068278
     3  C   -0.481077   0.076810
     4  C    0.366452  -0.202077
     5  C    0.501377  -1.242511
     6  C   -0.244161   0.463695
     7  C    1.253269  -1.212869
     8  C   -2.367507   3.114414
     9  C    1.533347  -2.293644
    10  C   -0.527998   0.393187
    11  C    0.198063  -0.776551
    12  C   -0.173802   0.128119
    13  C    0.085366  -0.872757
    14  O   -0.234352   0.001006
    15  H    0.127158  -0.043443
    16  H    0.058597   0.077140
    17  H   -0.159202   0.296734
    18  H    0.119156   0.043790
    19  H   -0.151676   0.275624
    20  H   -0.051474   0.211517
    21  H    0.098955   0.050235
    22  H    0.020754   0.107312
    23  H   -0.348705   0.617845
    24  H   -0.573261   0.736786
    25  H   -0.058258   0.230347
    26  H    0.055609   0.073907
    27  H   -0.252234   0.430283
    28  H   -0.118095   0.261860
    29  H   -0.034848   0.165216
    30  H    0.149220  -0.028505
    31  H    0.140275   0.023416
    32  H    0.157164  -0.000509
    33  H   -0.327389   0.489001
    34  H    0.216397  -0.004598
 Sum of Mulliken charges =  -1.00000   1.00000

 Dipole moment (field-independent basis, Debye):
    X=             -3.4181    Y=             -1.9748    Z=             -1.6069  Tot=              4.2621
 Quadrupole moment (field-independent basis, Debye-Ang):
   XX=           -154.2158   YY=           -128.9292   ZZ=           -120.3976
   XY=             -9.8728   XZ=             -0.7153   YZ=             -1.8206

 Summary of Natural Population Analysis:

                                       Natural Population
                Natural  -----------------------------------------------
    Atom  No    Charge         Core      Valence    Rydberg      Total
 -----------------------------------------------------------------------
      C    1   -0.29130      0.99964     2.28626    0.00540     3.29130
      C    2    0.04667      0.99957     1.93953    0.01423     2.95333
      C    3   -0.06001      0.99948     2.05106    0.00947     3.06001
      C    4   -0.04187      0.99943     2.03407    0.00836     3.04187
      C    5   -0.28456      0.99964     2.27924    0.00569     3.28456
      C    6   -0.04356      0.99927     2.03547    0.00882     3.04356
      C    7    0.02697      0.99928     1.96438    0.00938     2.97303
      C    8   -0.14796      0.99954     2.13649    0.01193     3.14796
      C    9   -0.17842      0.99962     2.16918    0.00962     3.17842
      C   10   -0.19314      0.99962     2.18499    0.00853     3.19314
      C   11   -0.18862      0.99963     2.18092    0.00807     3.18862
      C   12   -0.19628      0.99962     2.18861    0.00805     3.19628
      C   13   -0.17939      0.99962     2.17090    0.00888     3.17939
      O   14   -0.37729      0.99990     3.37156    0.00584     4.37729
      H   15    0.10136      0.00000     0.39731    0.00133     0.39864
      H   16    0.09848      0.00000     0.40053    0.00098     0.40152
      H   17    0.09808      0.00000     0.40084    0.00108     0.40192
      H   18    0.08260      0.00000     0.41561    0.00179     0.41740
      H   19    0.09238      0.00000     0.40678    0.00085     0.40762
      H   20    0.10415      0.00000     0.39467    0.00118     0.39585
      H   21    0.10041      0.00000     0.39869    0.00090     0.39959
      H   22    0.09806      0.00000     0.40124    0.00069     0.40194
      H   23    0.11418      0.00000     0.38339    0.00244     0.38582
      H   24    0.09874      0.00000     0.39799    0.00327     0.40126
      H   25    0.10199      0.00000     0.39676    0.00125     0.39801
      H   26    0.09755      0.00000     0.40063    0.00183     0.40245
      H   27    0.09862      0.00000     0.40033    0.00104     0.40138
      H   28    0.09717      0.00000     0.40193    0.00091     0.40283
      H   29    0.09240      0.00000     0.40629    0.00131     0.40760
      H   30    0.10090      0.00000     0.39718    0.00191     0.39910
      H   31    0.09657      0.00000     0.40257    0.00086     0.40343
      H   32    0.09880      0.00000     0.40024    0.00096     0.40120
      H   33    0.09700      0.00000     0.40183    0.00117     0.40300
      H   34    0.23934      0.00000     0.25781    0.00285     0.26066
 =======================================================================
   * Total *    0.00000     13.99385    38.85526    0.15089    53.00000

 Normal termination of Gaussian 16 at Thu Dec 10 10:52:57 2020.
