 Gaussian 16, Revision A.03,

 -----------------------------------------------------------
 # opt freq B3LYP/6-31G(d) empiricaldispersion=gd3bj scf=xqc
 -----------------------------------------------------------

 -------------------------------
 CID_153048538_JID_5721_neutraal
 -------------------------------
 Symbolic Z-matrix:
 Charge =  0 Multiplicity = 1

 SCF Done:  E(RB3LYP) =  -655.474377402     A.U. after   15 cycles
 SCF Done:  E(RB3LYP) =  -655.480801053     A.U. after   13 cycles
 SCF Done:  E(RB3LYP) =  -655.482396456     A.U. after   13 cycles
 SCF Done:  E(RB3LYP) =  -655.483255121     A.U. after   13 cycles
 SCF Done:  E(RB3LYP) =  -655.483535060     A.U. after   12 cycles
 SCF Done:  E(RB3LYP) =  -655.483617914     A.U. after   12 cycles
 SCF Done:  E(RB3LYP) =  -655.483637589     A.U. after   10 cycles
 SCF Done:  E(RB3LYP) =  -655.483642044     A.U. after    9 cycles
 SCF Done:  E(RB3LYP) =  -655.483642888     A.U. after    8 cycles
 SCF Done:  E(RB3LYP) =  -655.483643107     A.U. after    7 cycles
 Optimization completed.
    -- Stationary point found.
 Normal termination of Gaussian 16 at Thu Dec 10 16:08:37 2020.

 --------------------------------------------------------------------
 #N Geom=AllCheck Guess=TCheck SCRF=Check GenChk RB3LYP/6-31G(d) Freq
 --------------------------------------------------------------------

 Structure from the checkpoint file:  "JID_5721.chk"
 -------------------------------
 CID_153048538_JID_5721_neutraal
 -------------------------------
 Charge =  0 Multiplicity = 1

 SCF Done:  E(RB3LYP) =  -655.483643107     A.U. after    1 cycles

  Exact polarizability: 174.618   5.171 141.593   7.702  -9.279 100.039
 Approx polarizability: 249.457  16.344 238.151  15.592 -27.321 149.901

                      1                      2                      3
                      A                      A                      A
 Frequencies --     39.7605                63.9297                84.8955
 Red. masses --      4.6314                 4.3315                 3.0674
 Frc consts  --      0.0043                 0.0104                 0.0130
 IR Inten    --      0.6818                 4.5115                 0.9155

                      4                      5                      6
                      A                      A                      A
 Frequencies --    141.1628               167.1279               177.4466
 Red. masses --      3.2343                 2.5826                 2.7145
 Frc consts  --      0.0380                 0.0425                 0.0504
 IR Inten    --      1.0782                 1.1243                 2.0869

                      7                      8                      9
                      A                      A                      A
 Frequencies --    220.7644               233.7308               238.0118
 Red. masses --      2.8862                 3.0929                 1.6330
 Frc consts  --      0.0829                 0.0996                 0.0545
 IR Inten    --      1.1142                 1.0128                 0.1295

                     10                     11                     12
                      A                      A                      A
 Frequencies --    240.2012               269.5815               309.1779
 Red. masses --      1.3670                 1.3254                 3.6038
 Frc consts  --      0.0465                 0.0568                 0.2030
 IR Inten    --      0.2688                 0.4975                 2.5940

                     13                     14                     15
                      A                      A                      A
 Frequencies --    345.6532               388.9353               394.8613
 Red. masses --      2.9622                 3.7497                 4.6876
 Frc consts  --      0.2085                 0.3342                 0.4306
 IR Inten    --      3.4249                 4.6388                 1.7631

                     16                     17                     18
                      A                      A                      A
 Frequencies --    422.4056               457.9901               490.6487
 Red. masses --      2.8028                 3.6597                 3.9504
 Frc consts  --      0.2946                 0.4523                 0.5603
 IR Inten    --      2.3232                 1.2242                 1.5277

                     19                     20                     21
                      A                      A                      A
 Frequencies --    500.4650               564.0195               596.5246
 Red. masses --      4.3445                 3.2970                 3.0358
 Frc consts  --      0.6411                 0.6180                 0.6365
 IR Inten    --      5.3368                 4.2091                 1.6372

                     22                     23                     24
                      A                      A                      A
 Frequencies --    625.4611               652.2552               664.9297
 Red. masses --      4.2843                 3.5864                 4.4946
 Frc consts  --      0.9875                 0.8990                 1.1708
 IR Inten    --      8.2706                 4.7090                 1.4493

                     25                     26                     27
                      A                      A                      A
 Frequencies --    744.5389               776.4119               782.9448
 Red. masses --      1.9557                 1.8633                 2.3099
 Frc consts  --      0.6387                 0.6618                 0.8343
 IR Inten    --     13.3977                17.3785                34.0975

                     28                     29                     30
                      A                      A                      A
 Frequencies --    798.1707               845.3087               867.3796
 Red. masses --      2.8869                 1.9069                 2.0120
 Frc consts  --      1.0836                 0.8028                 0.8919
 IR Inten    --      2.1390                 5.0438                 6.6020

                     31                     32                     33
                      A                      A                      A
 Frequencies --    892.3879               900.8396               979.7573
 Red. masses --      1.9826                 2.4365                 1.5945
 Frc consts  --      0.9302                 1.1649                 0.9018
 IR Inten    --      8.5413                 0.8856                 0.2930

                     34                     35                     36
                      A                      A                      A
 Frequencies --    985.0198              1006.8524              1033.9847
 Red. masses --      1.8832                 2.1223                 3.4534
 Frc consts  --      1.0766                 1.2676                 2.1753
 IR Inten    --      5.6117                 6.8271                24.2765

                     37                     38                     39
                      A                      A                      A
 Frequencies --   1058.5553              1063.5094              1091.7076
 Red. masses --      2.0336                 2.1739                 2.6436
 Frc consts  --      1.3426                 1.4487                 1.8564
 IR Inten    --      4.9381                 1.7317                 3.7146

                     40                     41                     42
                      A                      A                      A
 Frequencies --   1111.1823              1144.7957              1155.8754
 Red. masses --      2.1276                 1.6850                 1.8202
 Frc consts  --      1.5478                 1.3011                 1.4328
 IR Inten    --     11.2205                 9.4147                 5.3349

                     43                     44                     45
                      A                      A                      A
 Frequencies --   1168.6431              1185.2451              1198.3624
 Red. masses --      2.3051                 1.2861                 1.8551
 Frc consts  --      1.8548                 1.0645                 1.5696
 IR Inten    --      1.2631                 4.0841                26.3816

                     46                     47                     48
                      A                      A                      A
 Frequencies --   1211.8337              1228.5648              1237.8415
 Red. masses --      1.6429                 1.7008                 1.2821
 Frc consts  --      1.4215                 1.5125                 1.1575
 IR Inten    --     50.7635                14.5114                13.6195

                     49                     50                     51
                      A                      A                      A
 Frequencies --   1259.4826              1272.4636              1293.9694
 Red. masses --      2.1608                 1.5949                 1.4120
 Frc consts  --      2.0196                 1.5215                 1.3930
 IR Inten    --    176.1289                11.8017                40.8020

                     52                     53                     54
                      A                      A                      A
 Frequencies --   1337.8793              1353.8038              1370.6530
 Red. masses --      1.4845                 1.6419                 1.3986
 Frc consts  --      1.5656                 1.7730                 1.5481
 IR Inten    --      4.3547                 1.2058                17.4746

                     55                     56                     57
                      A                      A                      A
 Frequencies --   1386.7559              1402.3429              1415.0180
 Red. masses --      1.3893                 1.8976                 1.8314
 Frc consts  --      1.5741                 2.1987                 2.1605
 IR Inten    --      9.8932                11.5415                28.9571

                     58                     59                     60
                      A                      A                      A
 Frequencies --   1434.3042              1476.4554              1492.3519
 Red. masses --      1.2900                 1.0899                 1.5037
 Frc consts  --      1.5636                 1.3999                 1.9731
 IR Inten    --     18.6497                 5.6299                 2.8474

                     61                     62                     63
                      A                      A                      A
 Frequencies --   1495.5878              1497.6674              1510.6673
 Red. masses --      1.0980                 1.3903                 1.1035
 Frc consts  --      1.4471                 1.8373                 1.4837
 IR Inten    --      4.4708                 3.3361                 3.6633

                     64                     65                     66
                      A                      A                      A
 Frequencies --   1517.0062              1520.7197              1533.7548
 Red. masses --      1.0559                 1.0456                 1.0599
 Frc consts  --      1.4317                 1.4247                 1.4691
 IR Inten    --      8.5096                 5.6022                 8.4156

                     67                     68                     69
                      A                      A                      A
 Frequencies --   1536.4784              1600.8650              1686.8127
 Red. masses --      1.0583                 6.8812                 5.7200
 Frc consts  --      1.4720                10.3903                 9.5892
 IR Inten    --     13.6248                86.6173                98.4099

                     70                     71                     72
                      A                      A                      A
 Frequencies --   1697.4115              1826.0798              3005.0916
 Red. masses --      5.8146                11.2243                 1.0697
 Frc consts  --      9.8706                22.0521                 5.6917
 IR Inten    --      6.7123               224.4515                27.7724

                     73                     74                     75
                      A                      A                      A
 Frequencies --   3011.0840              3034.7580              3036.3450
 Red. masses --      1.0692                 1.0335                 1.0685
 Frc consts  --      5.7116                 5.6082                 5.8039
 IR Inten    --     14.7674                51.8137                13.3943

                     76                     77                     78
                      A                      A                      A
 Frequencies --   3054.6671              3058.1044              3073.1854
 Red. masses --      1.0872                 1.0416                 1.0828
 Frc consts  --      5.9772                 5.7394                 6.0255
 IR Inten    --     10.4865                37.0605                19.9825

                     79                     80                     81
                      A                      A                      A
 Frequencies --   3077.8002              3097.2335              3119.6024
 Red. masses --      1.0910                 1.1065                 1.1031
 Frc consts  --      6.0893                 6.2538                 6.3248
 IR Inten    --      9.0773                33.2312                23.1652

                     82                     83                     84
                      A                      A                      A
 Frequencies --   3129.7702              3146.6192              3162.3749
 Red. masses --      1.0966                 1.0839                 1.1012
 Frc consts  --      6.3290                 6.3229                 6.4887
 IR Inten    --     23.1337                 2.3426                29.0009

                     85                     86                     87
                      A                      A                      A
 Frequencies --   3162.7571              3166.9857              3198.7459
 Red. masses --      1.0988                 1.0919                 1.0885
 Frc consts  --      6.4758                 6.4527                 6.5622
 IR Inten    --     14.1461                33.9675                20.0394

 - Thermochemistry -
 -------------------
 Temperature   298.150 Kelvin.  Pressure   1.00000 Atm.
 Atom     1 has atomic number  6 and mass  12.00000

 Molecular mass:   204.11503 amu.
 Principal axes and moments of inertia in atomic units:
                           1         2         3
     Eigenvalues --  1624.046164659.789315171.14826
           X            0.99999   0.00034   0.00466
           Y           -0.00039   0.99995   0.00984
           Z           -0.00466  -0.00984   0.99994
 This molecule is an asymmetric top.
 Rotational symmetry number  1.
 Warning -- assumption of classical behavior for rotation
           may cause significant error
 Rotational temperatures (Kelvin)      0.05333     0.01859     0.01675
 Rotational constants (GHZ):           1.11126     0.38730     0.34900
 Zero-point vibrational energy     695109.9 (Joules/Mol)
                                  166.13526 (Kcal/Mol)
 Warning -- explicit consideration of  21 degrees of freedom as
           vibrations may cause significant error
 Vibrational temperatures:     57.21    91.98   122.15   203.10   240.46
          (Kelvin)            255.31   317.63   336.29   342.45   345.60
                              387.87   444.84   497.32   559.59   568.12
                              607.75   658.95   705.93   720.06   811.50
                              858.27   899.90   938.45   956.69  1071.23
                             1117.08  1126.48  1148.39  1216.21  1247.97
                             1283.95  1296.11  1409.65  1417.22  1448.64
                             1487.67  1523.02  1530.15  1570.72  1598.74
                             1647.11  1663.05  1681.42  1705.30  1724.18
                             1743.56  1767.63  1780.98  1812.11  1830.79
                             1861.73  1924.91  1947.82  1972.06  1995.23
                             2017.66  2035.90  2063.64  2124.29  2147.16
                             2151.82  2154.81  2173.51  2182.63  2187.98
                             2206.73  2210.65  2303.29  2426.95  2442.20
                             2627.32  4323.66  4332.28  4366.34  4368.62
                             4394.98  4399.93  4421.63  4428.27  4456.23
                             4488.41  4503.04  4527.28  4549.95  4550.50
                             4556.59  4602.28

 Zero-point correction=                           0.264753 (Hartree/Particle)
 Thermal correction to Energy=                    0.278664
 Thermal correction to Enthalpy=                  0.279608
 Thermal correction to Gibbs Free Energy=         0.224307
 Sum of electronic and zero-point Energies=           -655.218890
 Sum of electronic and thermal Energies=              -655.204979
 Sum of electronic and thermal Enthalpies=            -655.204035
 Sum of electronic and thermal Free Energies=         -655.259336

                     E (Thermal)             CV                S
                      KCal/Mol        Cal/Mol-Kelvin    Cal/Mol-Kelvin
 Total                  174.864             54.236            116.391
 Electronic               0.000              0.000              0.000
 Translational            0.889              2.981             41.845
 Rotational               0.889              2.981             32.037
 Vibrational            173.087             48.275             42.509
 Vibration     1          0.594              1.981              5.271
 Vibration     2          0.597              1.972              4.332
 Vibration     3          0.601              1.960              3.774
 Vibration     4          0.615              1.912              2.788
 Vibration     5          0.624              1.883              2.468
 Vibration     6          0.628              1.870              2.355
 Vibration     7          0.647              1.809              1.953
 Vibration     8          0.654              1.789              1.850
 Vibration     9          0.656              1.782              1.818
 Vibration    10          0.657              1.779              1.801
 Vibration    11          0.674              1.729              1.599
 Vibration    12          0.699              1.656              1.367
 Vibration    13          0.724              1.584              1.186
 Vibration    14          0.757              1.494              1.004
 Vibration    15          0.762              1.481              0.982
 Vibration    16          0.785              1.422              0.884
 Vibration    17          0.816              1.343              0.772
 Vibration    18          0.846              1.271              0.682
 Vibration    19          0.856              1.249              0.657
 Vibration    20          0.920              1.109              0.516
 Vibration    21          0.954              1.039              0.456

                           ! Non-Optimized Parameters !
 Normal termination of Gaussian 16 at Thu Dec 10 16:18:42 2020.

 ----------------------------------------------------------------------
 # B3LYP/6-311++G(d,p) empiricaldispersion=gd3bj scf=xqc pop=npa geom=c
 heck
 ----------------------------------------------------------------------

 ---------------------------------------
 CID_153048538_JID_5721_Energie_neutraal
 ---------------------------------------
 Structure from the checkpoint file:  "JID_5721.chk"
 Charge =  0 Multiplicity = 1

 SCF Done:  E(RB3LYP) =  -655.664200961     A.U. after   16 cycles
 Normal termination of Gaussian 16 at Thu Dec 10 16:23:48 2020.

 ----------------------------------------------------------------------
 # B3LYP/6-311++G(d,p) empiricaldispersion=gd3bj scf=xqc pop=npa geom=c
 heck
 ----------------------------------------------------------------------

 -------------------------------------
 CID_153048538_JID_5721_Energie_kation
 -------------------------------------
 Structure from the checkpoint file:  "JID_5721.chk"
 Charge =  1 Multiplicity = 2

 SCF Done:  E(UB3LYP) =  -655.389925608     A.U. after   25 cycles
 Normal termination of Gaussian 16 at Thu Dec 10 16:35:48 2020.
 Gaussian 16:  ES64L-G16RevA.03 25-Dec-2016

 ----------------------------------------------------------------------
 # B3LYP/6-311++G(d,p) empiricaldispersion=gd3bj scf=xqc pop=npa geom=c
 heck
 ----------------------------------------------------------------------

 ------------------------------------
 CID_153048538_JID_5721_Energie_anion
 ------------------------------------
 Structure from the checkpoint file:  "JID_5721.chk"
 Charge = -1 Multiplicity = 2

                         Standard orientation:
 ---------------------------------------------------------------------
 Center     Atomic      Atomic             Coordinates (Angstroms)
 Number     Number       Type             X           Y           Z
 ---------------------------------------------------------------------
      1          6           0       -1.089802    0.361042    2.349223
      2          6           0       -0.948669   -0.461489    1.056709
      3          6           0        0.411119   -0.328926    0.392798
      4          6           0        0.889801    0.858758   -0.061779
      5          6           0        2.345440    1.013810   -0.484122
      6          6           0        3.191423   -0.242425   -0.372010
      7          8           0        4.380998   -0.205269   -0.123490
      8          6           0        2.427725   -1.525620   -0.610409
      9          6           0        1.225879   -1.600403    0.343567
     10          6           0        0.101759    2.065462   -0.210966
     11          6           0       -1.234811    2.142893   -0.461813
     12          6           0       -2.173981    1.057897   -0.559390
     13          6           0       -2.018564   -0.152961    0.038615
     14          8           0       -2.831442   -1.224502   -0.160291
     15          6           0       -3.824566   -1.135477   -1.172904
     16          1           0       -0.315094    0.063928    3.064509
     17          1           0       -2.069755    0.183327    2.805458
     18          1           0       -0.985148    1.429911    2.155572
     19          1           0       -1.088842   -1.515048    1.319847
     20          1           0        2.396564    1.342935   -1.534259
     21          1           0        2.832316    1.805094    0.098947
     22          1           0        2.053197   -1.507960   -1.643936
     23          1           0        3.100041   -2.379605   -0.496330
     24          1           0        0.572534   -2.430010    0.042752
     25          1           0        1.571624   -1.854711    1.358204
     26          1           0        0.666900    2.995174   -0.258688
     27          1           0       -1.634957    3.130002   -0.687874
     28          1           0       -3.062960    1.245067   -1.153528
     29          1           0       -4.597418   -0.403471   -0.906883
     30          1           0       -3.378397   -0.854402   -2.134774
     31          1           0       -4.273577   -2.127425   -1.243876
 ---------------------------------------------------------------------

 SCF Done:  E(UB3LYP) =  -655.657546792     A.U. after   33 cycles
 SCF Done:  E(UB3LYP) =  -655.657546792     a.u. after    1 cycles

 The electronic state is 2-A.
 Alpha  occ. eigenvalues --  -19.05061 -18.99239 -10.13490 -10.12091 -10.11523
 Alpha  occ. eigenvalues --  -10.07607 -10.07260 -10.06732 -10.06718 -10.06438
 Alpha  occ. eigenvalues --  -10.06356 -10.05627 -10.05627 -10.04933 -10.04924
 Alpha  occ. eigenvalues --   -0.96548  -0.92671  -0.74840  -0.70080  -0.67930
 Alpha  occ. eigenvalues --   -0.64783  -0.62748  -0.60387  -0.58632  -0.53194
 Alpha  occ. eigenvalues --   -0.52135  -0.49770  -0.43742  -0.42178  -0.40596
 Alpha  occ. eigenvalues --   -0.39242  -0.36929  -0.36468  -0.35993  -0.34305
 Alpha  occ. eigenvalues --   -0.34114  -0.32780  -0.32280  -0.31439  -0.30419
 Alpha  occ. eigenvalues --   -0.29259  -0.28706  -0.27999  -0.26881  -0.25907
 Alpha  occ. eigenvalues --   -0.25558  -0.24269  -0.24054  -0.22923  -0.22374
 Alpha  occ. eigenvalues --   -0.21055  -0.19392  -0.13715  -0.12873  -0.09314
 Alpha  occ. eigenvalues --    0.04362
 Alpha virt. eigenvalues --    0.06565   0.07405   0.07724   0.08273   0.09118
 Alpha virt. eigenvalues --    0.09324   0.09854   0.10398   0.10478   0.10985
 Alpha virt. eigenvalues --    0.11499   0.12236   0.12748   0.13105   0.13408

  Beta  occ. eigenvalues --  -19.05018 -18.99098 -10.13338 -10.11968 -10.11475
  Beta  occ. eigenvalues --  -10.07616 -10.07252 -10.06731 -10.06726 -10.06434
  Beta  occ. eigenvalues --  -10.06256 -10.05622 -10.05520 -10.04950 -10.04893
  Beta  occ. eigenvalues --   -0.96448  -0.92391  -0.74710  -0.69951  -0.67818
  Beta  occ. eigenvalues --   -0.64704  -0.62607  -0.60276  -0.58540  -0.53103
  Beta  occ. eigenvalues --   -0.52075  -0.49548  -0.43606  -0.42022  -0.40513
  Beta  occ. eigenvalues --   -0.39068  -0.36810  -0.36354  -0.35845  -0.34202
  Beta  occ. eigenvalues --   -0.34019  -0.32672  -0.32193  -0.31303  -0.30357
  Beta  occ. eigenvalues --   -0.29071  -0.28605  -0.27893  -0.26814  -0.25784
  Beta  occ. eigenvalues --   -0.25447  -0.24081  -0.23780  -0.22711  -0.22234
  Beta  occ. eigenvalues --   -0.20924  -0.19116  -0.13546  -0.12635  -0.08898
  Beta virt. eigenvalues --    0.06893   0.07890   0.07997   0.08075   0.08532
  Beta virt. eigenvalues --    0.09717   0.09785   0.10102   0.10554   0.10938
  Beta virt. eigenvalues --    0.11204   0.11791   0.12389   0.12912   0.13217

 Mulliken charges and spin densities:
               1          2
     1  C   -0.490972  -0.303796
     2  C   -0.559475   0.742693
     3  C    0.543245  -0.569903
     4  C    0.751037  -0.073106
     5  C   -0.323893  -0.372389
     6  C   -0.046574   0.162391
     7  O   -0.329512   0.057765
     8  C   -0.136592  -0.303254
     9  C   -0.136970  -0.217126
    10  C   -0.152292   0.287703
    11  C    1.015586  -1.155490
    12  C    0.266823  -0.274336
    13  C   -1.865173   1.133101
    14  O   -0.096195   0.060340
    15  C    1.027370  -1.335496
    16  H    0.126103   0.001343
    17  H    0.052218   0.091287
    18  H    0.143271   0.025357
    19  H    0.149078   0.082938
    20  H    0.031361   0.160994
    21  H    0.187737   0.006586
    22  H   -0.011883   0.173757
    23  H    0.135770   0.038005
    24  H   -0.123755   0.323091
    25  H    0.160852  -0.007900
    26  H    0.138584   0.015848
    27  H   -0.215274   0.362323
    28  H   -0.072500   0.244451
    29  H   -0.212775   0.359340
    30  H   -0.264441   0.428454
    31  H   -0.690758   0.855031
 Sum of Mulliken charges =  -1.00000   1.00000

 Dipole moment (field-independent basis, Debye):
    X=              2.0040    Y=              1.2127    Z=              3.2018  Tot=              3.9672
 Quadrupole moment (field-independent basis, Debye-Ang):
   XX=           -174.4568   YY=           -122.4484   ZZ=           -115.0816
   XY=             -5.6898   XZ=             -7.7575   YZ=             -4.3683

 Summary of Natural Population Analysis:

                                       Natural Population
                Natural  -----------------------------------------------
    Atom  No    Charge         Core      Valence    Rydberg      Total
 -----------------------------------------------------------------------
      C    1   -0.27848      0.99965     2.27411    0.00472     3.27848
      C    2   -0.14430      0.99951     2.13225    0.01254     3.14430
      C    3    0.02487      0.99944     1.96513    0.01056     2.97513
      C    4   -0.03665      0.99941     2.02783    0.00941     3.03665
      C    5   -0.24087      0.99956     2.23158    0.00973     3.24087
      C    6    0.31754      0.99966     1.66242    0.02038     2.68246
      O    7   -0.28532      0.99987     3.27871    0.00674     4.28532
      C    8   -0.23491      0.99959     2.22644    0.00887     3.23491
      C    9   -0.19664      0.99958     2.18791    0.00914     3.19664
      C   10   -0.11609      0.99952     2.10603    0.01053     3.11609
      C   11   -0.07541      0.99956     2.06549    0.01036     3.07541
      C   12   -0.19031      0.99947     2.18103    0.00981     3.19031
      C   13    0.22263      0.99939     1.76223    0.01575     2.77737
      O   14   -0.27023      0.99985     3.25996    0.01042     4.27023
      C   15   -0.10104      0.99960     2.09250    0.00894     3.10104
      H   16    0.09479      0.00000     0.40445    0.00076     0.40521
      H   17    0.09621      0.00000     0.40298    0.00080     0.40379
      H   18    0.10691      0.00000     0.39224    0.00085     0.39309
      H   19    0.10736      0.00000     0.39061    0.00203     0.39264
      H   20    0.11279      0.00000     0.38577    0.00144     0.38721
      H   21    0.10907      0.00000     0.38969    0.00124     0.39093
      H   22    0.10944      0.00000     0.38898    0.00159     0.39056
      H   23    0.10470      0.00000     0.39418    0.00112     0.39530
      H   24    0.10813      0.00000     0.39021    0.00166     0.39187
      H   25    0.09846      0.00000     0.40040    0.00114     0.40154
      H   26    0.09295      0.00000     0.40567    0.00139     0.40705
      H   27    0.09263      0.00000     0.40593    0.00144     0.40737
      H   28    0.10557      0.00000     0.39274    0.00169     0.39443
      H   29    0.08300      0.00000     0.41539    0.00161     0.41700
      H   30    0.08945      0.00000     0.40823    0.00232     0.41055
      H   31    0.09375      0.00000     0.40436    0.00189     0.40625
 =======================================================================
   * Total *    0.00000     14.99367    39.82546    0.18087    55.00000

 Normal termination of Gaussian 16 at Thu Dec 10 16:52:12 2020.
