 Gaussian 16, Revision A.03,

 -----------------------------------------------------------
 # opt freq B3LYP/6-31G(d) empiricaldispersion=gd3bj scf=xqc
 -----------------------------------------------------------

 ------------------------------
 CID_80447840_JID_5501_neutraal
 ------------------------------
 Symbolic Z-matrix:
 Charge =  0 Multiplicity = 1

 SCF Done:  E(RB3LYP) =  -641.669351481     A.U. after   12 cycles
 SCF Done:  E(RB3LYP) =  -641.672572565     A.U. after   10 cycles
 SCF Done:  E(RB3LYP) =  -641.672666023     A.U. after   11 cycles
 SCF Done:  E(RB3LYP) =  -641.673696625     A.U. after   11 cycles
 SCF Done:  E(RB3LYP) =  -641.674294053     A.U. after   11 cycles
 SCF Done:  E(RB3LYP) =  -641.675185880     A.U. after   10 cycles
 SCF Done:  E(RB3LYP) =  -641.675505271     A.U. after   11 cycles
 SCF Done:  E(RB3LYP) =  -641.675743949     A.U. after    9 cycles
 SCF Done:  E(RB3LYP) =  -641.675804601     A.U. after   10 cycles
 SCF Done:  E(RB3LYP) =  -641.675858761     A.U. after   10 cycles
 SCF Done:  E(RB3LYP) =  -641.675935721     A.U. after    8 cycles
 SCF Done:  E(RB3LYP) =  -641.675937637     A.U. after    8 cycles
 SCF Done:  E(RB3LYP) =  -641.675939573     A.U. after    8 cycles
 SCF Done:  E(RB3LYP) =  -641.675940577     A.U. after    8 cycles
 SCF Done:  E(RB3LYP) =  -641.675940296     A.U. after    8 cycles
 SCF Done:  E(RB3LYP) =  -641.675940430     A.U. after    6 cycles
 Optimization completed.
    -- Stationary point found.
 Normal termination of Gaussian 16 at Thu Dec 10 16:38:58 2020.

 --------------------------------------------------------------------
 #N Geom=AllCheck Guess=TCheck SCRF=Check GenChk RB3LYP/6-31G(d) Freq
 --------------------------------------------------------------------

 Structure from the checkpoint file:  "JID_5501.chk"
 ------------------------------
 CID_80447840_JID_5501_neutraal
 ------------------------------
 Charge =  0 Multiplicity = 1

 SCF Done:  E(RB3LYP) =  -641.675940430     A.U. after    1 cycles

  Exact polarizability: 166.121  -0.507 137.668   0.461   0.997 130.430
 Approx polarizability: 199.023  -3.314 195.256   1.259   1.861 199.378

                      1                      2                      3
                      A                      A                      A
 Frequencies --     30.2248                41.4085                54.4607
 Red. masses --      3.1215                 2.8398                 2.2033
 Frc consts  --      0.0017                 0.0029                 0.0039
 IR Inten    --      0.1040                 0.0490                 0.0553

                      4                      5                      6
                      A                      A                      A
 Frequencies --     66.0912                88.9306               110.8459
 Red. masses --      2.5335                 2.1167                 2.3748
 Frc consts  --      0.0065                 0.0099                 0.0172
 IR Inten    --      0.2171                 0.1681                 0.1094

                      7                      8                      9
                      A                      A                      A
 Frequencies --    124.4654               140.4179               188.8845
 Red. masses --      2.4034                 2.7281                 2.4749
 Frc consts  --      0.0219                 0.0317                 0.0520
 IR Inten    --      3.1724                 0.2607                 2.2624

                     10                     11                     12
                      A                      A                      A
 Frequencies --    209.6501               220.9933               221.9819
 Red. masses --      1.8201                 1.2262                 1.3824
 Frc consts  --      0.0471                 0.0353                 0.0401
 IR Inten    --      0.9362                 1.2124                 1.5817

                     13                     14                     15
                      A                      A                      A
 Frequencies --    242.2798               250.2666               267.9235
 Red. masses --      1.2681                 1.7232                 2.2623
 Frc consts  --      0.0439                 0.0636                 0.0957
 IR Inten    --      8.2702                 0.4384                 1.6150

                     16                     17                     18
                      A                      A                      A
 Frequencies --    279.6885               288.2964               312.9245
 Red. masses --      2.3599                 2.6424                 1.4115
 Frc consts  --      0.1088                 0.1294                 0.0814
 IR Inten    --      0.6304                 0.0033                72.4035

                     19                     20                     21
                      A                      A                      A
 Frequencies --    330.7039               348.4830               366.9148
 Red. masses --      2.2221                 1.7761                 2.3937
 Frc consts  --      0.1432                 0.1271                 0.1899
 IR Inten    --     14.9618                18.4486                 3.0584

                     22                     23                     24
                      A                      A                      A
 Frequencies --    384.9879               394.9942               418.4396
 Red. masses --      2.2952                 2.3096                 1.9510
 Frc consts  --      0.2004                 0.2123                 0.2013
 IR Inten    --      9.7524                 0.6523                 0.0675

                     25                     26                     27
                      A                      A                      A
 Frequencies --    486.2900               520.2755               603.0688
 Red. masses --      2.9673                 3.1127                 2.5222
 Frc consts  --      0.4134                 0.4964                 0.5405
 IR Inten    --      6.2422                 7.2766                 4.7499

                     28                     29                     30
                      A                      A                      A
 Frequencies --    606.9155               688.4841               729.8981
 Red. masses --      2.6743                 3.9217                 2.5010
 Frc consts  --      0.5804                 1.0953                 0.7850
 IR Inten    --      0.5632                 0.9107                 0.4071

                     31                     32                     33
                      A                      A                      A
 Frequencies --    745.7841               785.5136               801.8426
 Red. masses --      2.7494                 1.1847                 1.2681
 Frc consts  --      0.9010                 0.4307                 0.4804
 IR Inten    --      1.4703                 1.5410                 4.1267

                     34                     35                     36
                      A                      A                      A
 Frequencies --    853.3667               878.0688               910.6450
 Red. masses --      1.5496                 3.0951                 2.1786
 Frc consts  --      0.6649                 1.4060                 1.0645
 IR Inten    --      3.5342                 2.5637                 3.2457

                     37                     38                     39
                      A                      A                      A
 Frequencies --    918.6139               937.7104               957.4555
 Red. masses --      2.0800                 1.2190                 1.8810
 Frc consts  --      1.0342                 0.6315                 1.0160
 IR Inten    --      2.2224                 5.4270                 3.2241

                     40                     41                     42
                      A                      A                      A
 Frequencies --    972.6907               980.5936              1000.3904
 Red. masses --      1.6519                 1.7875                 2.0285
 Frc consts  --      0.9209                 1.0127                 1.1961
 IR Inten    --      7.8446                 6.7924                17.1329

                     43                     44                     45
                      A                      A                      A
 Frequencies --   1023.3755              1028.3438              1035.4181
 Red. masses --      1.7128                 1.7982                 2.0826
 Frc consts  --      1.0569                 1.1204                 1.3155
 IR Inten    --     17.7952                17.3308                 1.0916

                     46                     47                     48
                      A                      A                      A
 Frequencies --   1052.9979              1062.9298              1075.5446
 Red. masses --      2.1242                 2.0440                 2.5417
 Frc consts  --      1.3877                 1.3607                 1.7323
 IR Inten    --      5.1413                 0.1758                14.8902

                     49                     50                     51
                      A                      A                      A
 Frequencies --   1084.7967              1101.3068              1119.6810
 Red. masses --      1.7190                 1.7422                 1.8883
 Frc consts  --      1.1918                 1.2450                 1.3948
 IR Inten    --      1.5550                 3.6356                34.1360

                     52                     53                     54
                      A                      A                      A
 Frequencies --   1140.5791              1172.5716              1183.4707
 Red. masses --      1.8838                 1.8299                 1.9906
 Frc consts  --      1.4439                 1.4824                 1.6427
 IR Inten    --     51.8659                 4.9183                11.0657

                     55                     56                     57
                      A                      A                      A
 Frequencies --   1201.0605              1202.4783              1218.3792
 Red. masses --      1.8349                 1.5092                 1.8631
 Frc consts  --      1.5595                 1.2857                 1.6295
 IR Inten    --      9.1124                 6.3976                 5.1955

                     58                     59                     60
                      A                      A                      A
 Frequencies --   1236.1293              1248.8983              1273.8417
 Red. masses --      1.7056                 1.3550                 1.5600
 Frc consts  --      1.5355                 1.2452                 1.4914
 IR Inten    --      0.4060                 0.6528                12.5755

                     61                     62                     63
                      A                      A                      A
 Frequencies --   1283.7164              1293.0362              1313.5840
 Red. masses --      1.7339                 1.7013                 1.2787
 Frc consts  --      1.6835                 1.6759                 1.3000
 IR Inten    --      8.5173                32.8556                 6.7911

                     64                     65                     66
                      A                      A                      A
 Frequencies --   1329.7583              1350.2527              1359.7684
 Red. masses --      1.3278                 1.2888                 1.3820
 Frc consts  --      1.3833                 1.3844                 1.5055
 IR Inten    --      9.2521                 2.7689                22.4643

                     67                     68                     69
                      A                      A                      A
 Frequencies --   1370.5324              1379.7650              1383.2711
 Red. masses --      1.3347                 1.4858                 1.5488
 Frc consts  --      1.4771                 1.6665                 1.7461
 IR Inten    --      5.7678                 1.0523                 2.3244

                     70                     71                     72
                      A                      A                      A
 Frequencies --   1393.5784              1399.5449              1410.6905
 Red. masses --      1.3869                 1.4391                 1.5106
 Frc consts  --      1.5870                 1.6608                 1.7712
 IR Inten    --     30.0021                14.6587                 1.0124

                     73                     74                     75
                      A                      A                      A
 Frequencies --   1427.6784              1427.8482              1431.8707
 Red. masses --      1.3968                 1.3036                 1.5412
 Frc consts  --      1.6775                 1.5659                 1.8618
 IR Inten    --      1.5795                 7.9199                22.7673

                     76                     77                     78
                      A                      A                      A
 Frequencies --   1438.5732              1441.3949              1450.4203
 Red. masses --      1.2411                 1.2180                 1.2496
 Frc consts  --      1.5133                 1.4909                 1.5489
 IR Inten    --      1.9784                25.6566                 5.4909

                     79                     80                     81
                      A                      A                      A
 Frequencies --   1454.4138              1503.5349              1511.6031
 Red. masses --      1.2482                 1.0841                 1.0700
 Frc consts  --      1.5557                 1.4439                 1.4405
 IR Inten    --     15.7828                 2.7301                 0.4235

                     82                     83                     84
                      A                      A                      A
 Frequencies --   1517.3853              1519.9119              1525.8608
 Red. masses --      1.0638                 1.0435                 1.0528
 Frc consts  --      1.4431                 1.4203                 1.4442
 IR Inten    --      2.9765                 2.2388                 0.8792

                     85                     86                     87
                      A                      A                      A
 Frequencies --   1528.5327              1530.4490              1534.3465
 Red. masses --      1.0661                 1.0632                 1.0593
 Frc consts  --      1.4676                 1.4672                 1.4694
 IR Inten    --      2.4713                 5.6055                 1.5148

                     88                     89                     90
                      A                      A                      A
 Frequencies --   1540.4068              1543.1916              1543.6780
 Red. masses --      1.0455                 1.0587                 1.0587
 Frc consts  --      1.4616                 1.4855                 1.4863
 IR Inten    --      5.5316                 1.4396                 5.0052

                     91                     92                     93
                      A                      A                      A
 Frequencies --   1549.3263              1552.2270              1572.1079
 Red. masses --      1.0532                 1.0837                 1.0931
 Frc consts  --      1.4895                 1.5384                 1.5918
 IR Inten    --      8.6520                 3.4392                 2.6893

                     94                     95                     96
                      A                      A                      A
 Frequencies --   2935.2996              2980.8244              3009.6952
 Red. masses --      1.0720                 1.0697                 1.0920
 Frc consts  --      5.4419                 5.6002                 5.8282
 IR Inten    --     89.4179                66.2272                49.5697

                     97                     98                     99
                      A                      A                      A
 Frequencies --   3013.3204              3021.2407              3028.4385
 Red. masses --      1.0605                 1.0607                 1.0686
 Frc consts  --      5.6737                 5.7044                 5.7742
 IR Inten    --     64.5679                24.7588                21.4037

                    100                    101                    102
                      A                      A                      A
 Frequencies --   3040.4742              3044.6510              3046.6508
 Red. masses --      1.0588                 1.0772                 1.0666
 Frc consts  --      5.7667                 5.8835                 5.8328
 IR Inten    --     26.1082                 5.6603                40.5956

                    103                    104                    105
                      A                      A                      A
 Frequencies --   3047.1000              3050.5346              3052.5032
 Red. masses --      1.0615                 1.0764                 1.0404
 Frc consts  --      5.8067                 5.9017                 5.7119
 IR Inten    --     27.6219                18.1582                33.2155

                    106                    107                    108
                      A                      A                      A
 Frequencies --   3054.9137              3058.7492              3063.0122
 Red. masses --      1.0900                 1.0570                 1.0567
 Frc consts  --      5.9936                 5.8263                 5.8414
 IR Inten    --     30.4940                 2.9136                65.0937

                    109                    110                    111
                      A                      A                      A
 Frequencies --   3072.8164              3081.1629              3105.5431
 Red. masses --      1.0904                 1.0955                 1.0980
 Frc consts  --      6.0661                 6.1274                 6.2391
 IR Inten    --     63.7505                 9.1614                25.1443

                    112                    113                    114
                      A                      A                      A
 Frequencies --   3109.2809              3109.4310              3114.5425
 Red. masses --      1.1012                 1.1017                 1.1013
 Frc consts  --      6.2724                 6.2758                 6.2942
 IR Inten    --     53.7761                38.5961                42.9485

                    115                    116                    117
                      A                      A                      A
 Frequencies --   3119.5077              3123.1565              3128.3805
 Red. masses --      1.0970                 1.1015                 1.1012
 Frc consts  --      6.2899                 6.3301                 6.3497
 IR Inten    --     26.3188                37.6046                48.5586

                    118                    119                    120
                      A                      A                      A
 Frequencies --   3128.9556              3154.4812              3729.7922
 Red. masses --      1.1014                 1.0968                 1.0655
 Frc consts  --      6.3531                 6.4305                 8.7335
 IR Inten    --     33.8425                32.3277                 6.5643

 - Thermochemistry -
 -------------------
 Temperature   298.150 Kelvin.  Pressure   1.00000 Atm.
 Atom     1 has atomic number  6 and mass  12.00000

 Molecular mass:   213.20926 amu.
 Principal axes and moments of inertia in atomic units:
                           1         2         3
     Eigenvalues --  1629.787046203.156876784.68804
           X            0.99995   0.00990   0.00298
           Y           -0.00988   0.99993  -0.00572
           Z           -0.00304   0.00569   0.99998
 This molecule is an asymmetric top.
 Rotational symmetry number  1.
 Warning -- assumption of classical behavior for rotation
           may cause significant error
 Rotational temperatures (Kelvin)      0.05314     0.01396     0.01277
 Rotational constants (GHZ):           1.10735     0.29094     0.26600
 Zero-point vibrational energy    1025560.9 (Joules/Mol)
                                  245.11493 (Kcal/Mol)
 Warning -- explicit consideration of  28 degrees of freedom as
           vibrations may cause significant error
 Vibrational temperatures:     43.49    59.58    78.36    95.09   127.95
          (Kelvin)            159.48   179.08   202.03   271.76   301.64
                              317.96   319.38   348.59   360.08   385.48
                              402.41   414.79   450.23   475.81   501.39
                              527.91   553.91   568.31   602.04   699.66
                              748.56   867.68   873.22   990.58  1050.16
                             1073.02  1130.18  1153.67  1227.80  1263.35
                             1310.22  1321.68  1349.16  1377.56  1399.48
                             1410.86  1439.34  1472.41  1479.56  1489.74
                             1515.03  1529.32  1547.47  1560.78  1584.53
                             1610.97  1641.04  1687.07  1702.75  1728.06
                             1730.10  1752.98  1778.51  1796.89  1832.77
                             1846.98  1860.39  1889.95  1913.23  1942.71
                             1956.40  1971.89  1985.17  1990.22  2005.05
                             2013.63  2029.67  2054.11  2054.36  2060.14
                             2069.79  2073.85  2086.83  2092.58  2163.25
                             2174.86  2183.18  2186.81  2195.37  2199.22
                             2201.97  2207.58  2216.30  2220.31  2221.01
                             2229.13  2233.31  2261.91  4223.24  4288.74
                             4330.28  4335.50  4346.89  4357.25  4374.56
                             4380.57  4383.45  4384.10  4389.04  4391.87
                             4395.34  4400.86  4406.99  4421.10  4433.11
                             4468.18  4473.56  4473.78  4481.13  4488.28
                             4493.53  4501.04  4501.87  4538.59  5366.34

 Zero-point correction=                           0.390616 (Hartree/Particle)
 Thermal correction to Energy=                    0.408840
 Thermal correction to Enthalpy=                  0.409784
 Thermal correction to Gibbs Free Energy=         0.344478
 Sum of electronic and zero-point Energies=           -641.285325
 Sum of electronic and thermal Energies=              -641.267101
 Sum of electronic and thermal Enthalpies=            -641.266156
 Sum of electronic and thermal Free Energies=         -641.331462

                     E (Thermal)             CV                S
                      KCal/Mol        Cal/Mol-Kelvin    Cal/Mol-Kelvin
 Total                  256.551             68.412            137.448
 Electronic               0.000              0.000              0.000
 Translational            0.889              2.981             41.975
 Rotational               0.889              2.981             32.595
 Vibrational            254.773             62.450             62.879
 Vibration     1          0.594              1.984              5.815
 Vibration     2          0.594              1.981              5.191
 Vibration     3          0.596              1.976              4.648
 Vibration     4          0.597              1.970              4.267
 Vibration     5          0.602              1.957              3.683
 Vibration     6          0.607              1.940              3.254
 Vibration     7          0.610              1.929              3.030
 Vibration     8          0.615              1.913              2.798
 Vibration     9          0.633              1.855              2.239
 Vibration    10          0.642              1.826              2.047
 Vibration    11          0.648              1.809              1.951
 Vibration    12          0.648              1.808              1.943
 Vibration    13          0.658              1.776              1.786
 Vibration    14          0.663              1.762              1.729
 Vibration    15          0.673              1.732              1.610
 Vibration    16          0.680              1.711              1.536
 Vibration    17          0.685              1.695              1.484
 Vibration    18          0.701              1.649              1.347
 Vibration    19          0.713              1.614              1.257
 Vibration    20          0.726              1.578              1.173
 Vibration    21          0.740              1.540              1.093
 Vibration    22          0.754              1.502              1.020
 Vibration    23          0.762              1.481              0.981
 Vibration    24          0.781              1.430              0.897
 Vibration    25          0.842              1.280              0.693
 Vibration    26          0.875              1.205              0.609
 Vibration    27          0.961              1.025              0.444
 Vibration    28          0.966              1.017              0.438

 Optimization completed.
    -- Stationary point found.
 Normal termination of Gaussian 16 at Thu Dec 10 16:57:25 2020.

 ----------------------------------------------------------------------
 # B3LYP/6-311++G(d,p) empiricaldispersion=gd3bj scf=xqc pop=npa geom=c
 heck
 ----------------------------------------------------------------------

 --------------------------------------
 CID_80447840_JID_5501_Energie_neutraal
 --------------------------------------
 Structure from the checkpoint file:  "JID_5501.chk"
 Charge =  0 Multiplicity = 1

 SCF Done:  E(RB3LYP) =  -641.863202587     A.U. after   13 cycles
 Normal termination of Gaussian 16 at Thu Dec 10 17:06:41 2020.

 ----------------------------------------------------------------------
 # B3LYP/6-311++G(d,p) empiricaldispersion=gd3bj scf=xqc pop=npa geom=c
 heck
 ----------------------------------------------------------------------

 ------------------------------------
 CID_80447840_JID_5501_Energie_kation
 ------------------------------------
 Structure from the checkpoint file:  "JID_5501.chk"
 Charge =  1 Multiplicity = 2

 SCF Done:  E(UB3LYP) =  -641.595170746     A.U. after   19 cycles
 Normal termination of Gaussian 16 at Thu Dec 10 17:24:43 2020.
 Gaussian 16:  ES64L-G16RevA.03 25-Dec-2016

 ----------------------------------------------------------------------
 # B3LYP/6-311++G(d,p) empiricaldispersion=gd3bj scf=xqc pop=npa geom=c
 heck
 ----------------------------------------------------------------------

 -----------------------------------
 CID_80447840_JID_5501_Energie_anion
 -----------------------------------
 Structure from the checkpoint file:  "JID_5501.chk"
 Charge = -1 Multiplicity = 2

                         Standard orientation:
 ---------------------------------------------------------------------
 Center     Atomic      Atomic             Coordinates (Angstroms)
 Number     Number       Type             X           Y           Z
 ---------------------------------------------------------------------
      1          6           0       -4.120453   -1.338525    0.172217
      2          6           0       -2.729730   -1.058926    0.750334
      3          6           0       -1.940424    0.157324    0.202676
      4          6           0       -1.582547   -0.009533   -1.296176
      5          6           0       -0.347603   -0.935819   -1.329558
      6          7           0        0.128736   -0.947756    0.048949
      7          6           0       -0.519648    0.097832    0.816071
      8          6           0        1.464653   -1.401858    0.343729
      9          6           0        2.647297   -0.665676   -0.327337
     10          6           0        2.705017    0.854851   -0.081199
     11          6           0        2.888916    1.208501    1.400698
     12          6           0        3.813287    1.487521   -0.931686
     13          8           0        3.868030   -1.318624    0.036731
     14          6           0       -2.613532    1.511309    0.511707
     15          6           0       -3.756445    1.949034   -0.413656
     16          1           0       -4.857582   -0.593871    0.486562
     17          1           0       -4.479799   -2.314787    0.517241
     18          1           0       -4.116411   -1.362640   -0.923259
     19          1           0       -2.823133   -0.930803    1.837972
     20          1           0       -2.098932   -1.943250    0.604765
     21          1           0       -1.316213    0.970181   -1.710033
     22          1           0       -2.410519   -0.394665   -1.897146
     23          1           0       -0.597296   -1.957521   -1.653075
     24          1           0        0.397237   -0.551916   -2.045414
     25          1           0       -0.041680    1.091482    0.729051
     26          1           0       -0.529866   -0.164573    1.882594
     27          1           0        1.595740   -1.369344    1.434528
     28          1           0        1.559983   -2.458702    0.054553
     29          1           0        2.579765   -0.821929   -1.410178
     30          1           0        1.741649    1.263167   -0.414314
     31          1           0        3.843626    0.822737    1.780995
     32          1           0        2.906555    2.294954    1.537913
     33          1           0        2.084836    0.810399    2.028280
     34          1           0        3.643276    1.306175   -1.999590
     35          1           0        3.861814    2.571350   -0.776503
     36          1           0        4.785420    1.056316   -0.672042
     37          1           0        3.930906   -1.288892    1.004738
     38          1           0       -2.970466    1.498853    1.551027
     39          1           0       -1.838623    2.289401    0.469551
     40          1           0       -4.611192    1.269958   -0.381176
     41          1           0       -4.113922    2.944022   -0.125122
     42          1           0       -3.423302    2.010976   -1.455330
 ---------------------------------------------------------------------

 SCF Done:  E(UB3LYP) =  -641.849977901     A.U. after   28 cycles

 The electronic state is 2-A.
 Alpha  occ. eigenvalues --  -19.02791 -14.19995 -10.11959 -10.09733 -10.09597
 Alpha  occ. eigenvalues --  -10.09059 -10.08325 -10.07754 -10.06893 -10.06768
 Alpha  occ. eigenvalues --  -10.06513 -10.06393 -10.06312 -10.06168 -10.06087
 Alpha  occ. eigenvalues --   -0.92971  -0.83636  -0.72739  -0.70324  -0.65793
 Alpha  occ. eigenvalues --   -0.65246  -0.62969  -0.60385  -0.59124  -0.54782
 Alpha  occ. eigenvalues --   -0.53415  -0.51953  -0.48177  -0.46926  -0.43701
 Alpha  occ. eigenvalues --   -0.40297  -0.39746  -0.38961  -0.37226  -0.36785
 Alpha  occ. eigenvalues --   -0.35294  -0.34279  -0.33427  -0.32909  -0.32172
 Alpha  occ. eigenvalues --   -0.31196  -0.30828  -0.29965  -0.28806  -0.28451
 Alpha  occ. eigenvalues --   -0.28165  -0.27209  -0.27113  -0.26159  -0.25898
 Alpha  occ. eigenvalues --   -0.25340  -0.24571  -0.24281  -0.23775  -0.22660
 Alpha  occ. eigenvalues --   -0.21730  -0.21268  -0.20614  -0.18614  -0.10256
 Alpha  occ. eigenvalues --    0.04202
 Alpha virt. eigenvalues --    0.05986   0.06768   0.07113   0.07897   0.08146
 Alpha virt. eigenvalues --    0.08756   0.09127   0.09480   0.10129   0.10502
 Alpha virt. eigenvalues --    0.10601   0.10979   0.11667   0.12135   0.12640

  Beta  occ. eigenvalues --  -19.02770 -14.19994 -10.11954 -10.09720 -10.09583
  Beta  occ. eigenvalues --  -10.09045 -10.08326 -10.07747 -10.06872 -10.06749
  Beta  occ. eigenvalues --  -10.06500 -10.06370 -10.06276 -10.06145 -10.06069
  Beta  occ. eigenvalues --   -0.92926  -0.83624  -0.72719  -0.70296  -0.65766
  Beta  occ. eigenvalues --   -0.65214  -0.62940  -0.60351  -0.59069  -0.54740
  Beta  occ. eigenvalues --   -0.53360  -0.51893  -0.48132  -0.46885  -0.43660
  Beta  occ. eigenvalues --   -0.40269  -0.39718  -0.38933  -0.37195  -0.36760
  Beta  occ. eigenvalues --   -0.35264  -0.34246  -0.33406  -0.32887  -0.32133
  Beta  occ. eigenvalues --   -0.31174  -0.30805  -0.29935  -0.28771  -0.28416
  Beta  occ. eigenvalues --   -0.28140  -0.27176  -0.27087  -0.26132  -0.25855
  Beta  occ. eigenvalues --   -0.25310  -0.24539  -0.24255  -0.23741  -0.22634
  Beta  occ. eigenvalues --   -0.21706  -0.21240  -0.20591  -0.18591  -0.10246
  Beta virt. eigenvalues --    0.06156   0.06719   0.07363   0.07569   0.08332
  Beta virt. eigenvalues --    0.08402   0.09104   0.09558   0.09811   0.10355
  Beta virt. eigenvalues --    0.10701   0.10887   0.11280   0.11878   0.12408

 Mulliken charges and spin densities:
               1          2
     1  C    0.510622  -1.149710
     2  C   -0.280830   0.086668
     3  C    2.101066  -0.762863
     4  C    0.516586  -1.064426
     5  C    0.089588  -0.663278
     6  N    0.209586   0.049619
     7  C   -2.150483   1.059701
     8  C   -0.406761   0.152110
     9  C    0.775124  -1.258988
    10  C   -1.107788   1.439559
    11  C    0.964117  -1.514542
    12  C   -0.243716  -0.310262
    13  O   -0.168071   0.006217
    14  C   -1.310950   0.839352
    15  C    0.529306  -1.081353
    16  H   -0.025799   0.171193
    17  H   -0.034339   0.171771
    18  H   -0.139039   0.272176
    19  H   -0.091136   0.239795
    20  H    0.063489   0.101320
    21  H   -0.097938   0.256522
    22  H    0.077610   0.078870
    23  H   -0.070345   0.227825
    24  H    0.116402  -0.001108
    25  H    0.606624  -0.470891
    26  H   -0.146748   0.286095
    27  H   -0.023623   0.199691
    28  H    0.026958   0.149308
    29  H    0.196502   0.026039
    30  H    0.002332   0.130210
    31  H   -0.256729   0.390719
    32  H   -0.211580   0.368654
    33  H   -0.192532   0.364903
    34  H   -0.074779   0.198900
    35  H   -0.152149   0.298213
    36  H    0.117732   0.039000
    37  H    0.035593   0.212290
    38  H   -0.166956   0.319844
    39  H   -0.186425   0.329453
    40  H    0.064047   0.055041
    41  H   -0.308457   0.462777
    42  H   -0.156111   0.293587
 Sum of Mulliken charges =  -1.00000   1.00000

 Dipole moment (field-independent basis, Debye):
    X=             -0.0067    Y=             -2.2760    Z=             -1.3150  Tot=              2.6286
 Quadrupole moment (field-independent basis, Debye-Ang):
   XX=           -184.4860   YY=           -147.1582   ZZ=           -137.3942
   XY=              1.8032   XZ=             -2.4710   YZ=             -0.8208

 Summary of Natural Population Analysis:

                                       Natural Population
                Natural  -----------------------------------------------
    Atom  No    Charge         Core      Valence    Rydberg      Total
 -----------------------------------------------------------------------
      C    1   -0.28369      0.99966     2.27978    0.00425     3.28369
      C    2   -0.19054      0.99958     2.18077    0.01019     3.19054
      C    3   -0.04029      0.99955     2.02627    0.01446     3.04029
      C    4   -0.19545      0.99959     2.18628    0.00959     3.19545
      C    5   -0.07760      0.99963     2.06823    0.00973     3.07760
      N    6   -0.29016      0.99971     2.77923    0.01122     3.79016
      C    7   -0.07122      0.99957     2.06038    0.01128     3.07122
      C    8   -0.08778      0.99959     2.07541    0.01277     3.08778
      C    9    0.06187      0.99953     1.92533    0.01327     2.93813
      C   10   -0.12957      0.99959     2.11982    0.01016     3.12957
      C   11   -0.29227      0.99964     2.28549    0.00714     3.29227
      C   12   -0.28258      0.99965     2.27796    0.00498     3.28258
      O   13   -0.37361      0.99990     3.36705    0.00666     4.37361
      C   14   -0.18851      0.99959     2.17888    0.01004     3.18851
      C   15   -0.28290      0.99966     2.27904    0.00420     3.28290
      H   16    0.09487      0.00000     0.40395    0.00118     0.40513
      H   17    0.09769      0.00000     0.40141    0.00090     0.40231
      H   18    0.09562      0.00000     0.40325    0.00114     0.40438
      H   19    0.09554      0.00000     0.40329    0.00117     0.40446
      H   20    0.10267      0.00000     0.39565    0.00168     0.39733
      H   21    0.10044      0.00000     0.39811    0.00144     0.39956
      H   22    0.10332      0.00000     0.39568    0.00101     0.39668
      H   23    0.08801      0.00000     0.41088    0.00111     0.41199
      H   24    0.08452      0.00000     0.41408    0.00140     0.41548
      H   25    0.08098      0.00000     0.41597    0.00306     0.41902
      H   26    0.09632      0.00000     0.40203    0.00165     0.40368
      H   27    0.09435      0.00000     0.40439    0.00126     0.40565
      H   28    0.09508      0.00000     0.40376    0.00116     0.40492
      H   29    0.08535      0.00000     0.41318    0.00147     0.41465
      H   30    0.09995      0.00000     0.39747    0.00258     0.40005
      H   31    0.09482      0.00000     0.40379    0.00139     0.40518
      H   32    0.10410      0.00000     0.39479    0.00111     0.39590
      H   33    0.10147      0.00000     0.39722    0.00131     0.39853
      H   34    0.09736      0.00000     0.40178    0.00086     0.40264
      H   35    0.09819      0.00000     0.40092    0.00089     0.40181
      H   36    0.10181      0.00000     0.39710    0.00110     0.39819
      H   37    0.22664      0.00000     0.27040    0.00296     0.27336
      H   38    0.09665      0.00000     0.40216    0.00119     0.40335
      H   39    0.09797      0.00000     0.40048    0.00155     0.40203
      H   40    0.09568      0.00000     0.40291    0.00141     0.40432
      H   41    0.09831      0.00000     0.40076    0.00093     0.40169
      H   42    0.09663      0.00000     0.40215    0.00122     0.40337
 =======================================================================
   * Total *   -0.00000     14.99443    44.82749    0.17807    60.00000

 Normal termination of Gaussian 16 at Thu Dec 10 17:51:00 2020.
