 Gaussian 16, Revision A.03,

 -----------------------------------------------------------
 # opt freq B3LYP/6-31G(d) empiricaldispersion=gd3bj scf=xqc
 -----------------------------------------------------------

 -------------------------------
 CID_147130114_JID_3107_neutraal
 -------------------------------
 Symbolic Z-matrix:
 Charge =  0 Multiplicity = 1

 SCF Done:  E(RB3LYP) =  -508.659904419     A.U. after   14 cycles
 SCF Done:  E(RB3LYP) =  -508.663169895     A.U. after   12 cycles
 SCF Done:  E(RB3LYP) =  -508.663569235     A.U. after   11 cycles
 SCF Done:  E(RB3LYP) =  -508.663782276     A.U. after   11 cycles
 SCF Done:  E(RB3LYP) =  -508.663887243     A.U. after   11 cycles
 SCF Done:  E(RB3LYP) =  -508.663961205     A.U. after   11 cycles
 SCF Done:  E(RB3LYP) =  -508.664016885     A.U. after   10 cycles
 SCF Done:  E(RB3LYP) =  -508.664058246     A.U. after   10 cycles
 SCF Done:  E(RB3LYP) =  -508.664085801     A.U. after    9 cycles
 SCF Done:  E(RB3LYP) =  -508.664076199     A.U. after   11 cycles
 SCF Done:  E(RB3LYP) =  -508.665819759     A.U. after   10 cycles
 SCF Done:  E(RB3LYP) =  -508.665803819     A.U. after   10 cycles
 SCF Done:  E(RB3LYP) =  -508.665819850     A.U. after   10 cycles
 SCF Done:  E(RB3LYP) =  -508.665819374     A.U. after    9 cycles
 SCF Done:  E(RB3LYP) =  -508.665820062     A.U. after    9 cycles
 Optimization completed.
    -- Stationary point found.
 Normal termination of Gaussian 16 at Wed Dec  9 22:48:57 2020.

 --------------------------------------------------------------------
 #N Geom=AllCheck Guess=TCheck SCRF=Check GenChk RB3LYP/6-31G(d) Freq
 --------------------------------------------------------------------

 Structure from the checkpoint file:  "JID_3107.chk"
 -------------------------------
 CID_147130114_JID_3107_neutraal
 -------------------------------
 Charge =  0 Multiplicity = 1

 SCF Done:  E(RB3LYP) =  -508.665820062     A.U. after    1 cycles

  Exact polarizability: 154.908  12.138 120.958  -3.876   1.631 128.779
 Approx polarizability: 195.141  20.995 171.521 -10.958   5.252 203.228

                      1                      2                      3
                      A                      A                      A
 Frequencies --     37.1136                43.5842                76.5606
 Red. masses --      3.0842                 3.1042                 2.6588
 Frc consts  --      0.0025                 0.0035                 0.0092
 IR Inten    --      0.0095                 0.0018                 0.0939

                      4                      5                      6
                      A                      A                      A
 Frequencies --     84.5050               127.3718               154.2414
 Red. masses --      3.1541                 2.3598                 2.7491
 Frc consts  --      0.0133                 0.0226                 0.0385
 IR Inten    --      0.0620                 0.2784                 0.4148

                      7                      8                      9
                      A                      A                      A
 Frequencies --    183.4162               209.9708               217.4050
 Red. masses --      1.1112                 2.0457                 2.3155
 Frc consts  --      0.0220                 0.0531                 0.0645
 IR Inten    --      0.2763                 0.0126                 0.0564

                     10                     11                     12
                      A                      A                      A
 Frequencies --    239.6221               255.2595               263.6751
 Red. masses --      1.1064                 2.1451                 1.1957
 Frc consts  --      0.0374                 0.0823                 0.0490
 IR Inten    --      0.0259                 0.2114                 0.4605

                     13                     14                     15
                      A                      A                      A
 Frequencies --    289.8470               322.8123               334.3648
 Red. masses --      2.7003                 2.1706                 2.0962
 Frc consts  --      0.1337                 0.1333                 0.1381
 IR Inten    --      0.2500                 0.2205                 2.7254

                     16                     17                     18
                      A                      A                      A
 Frequencies --    384.6411               410.3855               444.3098
 Red. masses --      2.5294                 2.2899                 2.6508
 Frc consts  --      0.2205                 0.2272                 0.3083
 IR Inten    --      0.7513                 0.7130                 0.5379

                     19                     20                     21
                      A                      A                      A
 Frequencies --    489.3170               511.8511               548.5745
 Red. masses --      2.3620                 2.6622                 2.1343
 Frc consts  --      0.3332                 0.4109                 0.3784
 IR Inten    --      0.4959                 2.3585                 1.0192

                     22                     23                     24
                      A                      A                      A
 Frequencies --    603.7705               625.5355               719.3730
 Red. masses --      2.8214                 2.8042                 1.9962
 Frc consts  --      0.6060                 0.6465                 0.6086
 IR Inten    --      2.5433                 0.1725                 4.9384

                     25                     26                     27
                      A                      A                      A
 Frequencies --    799.9326               829.3588               860.8130
 Red. masses --      2.5117                 1.8482                 1.9720
 Frc consts  --      0.9470                 0.7490                 0.8610
 IR Inten    --      0.9596                 1.1822                 0.6255

                     28                     29                     30
                      A                      A                      A
 Frequencies --    870.6213               893.2401               911.9737
 Red. masses --      1.9325                 1.3702                 1.6678
 Frc consts  --      0.8630                 0.6441                 0.8172
 IR Inten    --      2.1388                 6.3265                 0.6276

                     31                     32                     33
                      A                      A                      A
 Frequencies --    925.6689               931.0553               937.4010
 Red. masses --      1.8670                 2.4344                 1.3820
 Frc consts  --      0.9425                 1.2433                 0.7155
 IR Inten    --      1.2834                 0.4262                39.8667

                     34                     35                     36
                      A                      A                      A
 Frequencies --    972.9212               993.8992              1003.5047
 Red. masses --      1.9130                 1.2593                 1.6189
 Frc consts  --      1.0669                 0.7329                 0.9606
 IR Inten    --      5.2006                 0.8293                 4.8785

                     37                     38                     39
                      A                      A                      A
 Frequencies --   1027.6248              1039.1267              1046.1587
 Red. masses --      1.2837                 1.5372                 1.6615
 Frc consts  --      0.7987                 0.9779                 1.0714
 IR Inten    --      4.3284                 6.1835                12.4025

                     40                     41                     42
                      A                      A                      A
 Frequencies --   1056.4408              1074.0878              1091.4339
 Red. masses --      1.3580                 1.4764                 2.2289
 Frc consts  --      0.8930                 1.0035                 1.5643
 IR Inten    --      0.4941                 2.4040                13.0016

                     43                     44                     45
                      A                      A                      A
 Frequencies --   1098.1313              1115.2192              1127.9041
 Red. masses --      1.8372                 2.0256                 2.1099
 Frc consts  --      1.3053                 1.4843                 1.5814
 IR Inten    --      0.2957                 2.1118                 2.9259

                     46                     47                     48
                      A                      A                      A
 Frequencies --   1153.4658              1182.7383              1200.1730
 Red. masses --      2.0087                 2.1256                 1.7632
 Frc consts  --      1.5746                 1.7519                 1.4964
 IR Inten    --      1.2837                 0.7850                 3.1371

                     49                     50                     51
                      A                      A                      A
 Frequencies --   1217.1665              1237.7962              1276.0086
 Red. masses --      1.5805                 2.1363                 1.2690
 Frc consts  --      1.3796                 1.9284                 1.2173
 IR Inten    --      1.9352                 0.8689                 3.5696

                     52                     53                     54
                      A                      A                      A
 Frequencies --   1288.9002              1308.9105              1333.3556
 Red. masses --      1.4052                 1.3517                 1.2909
 Frc consts  --      1.3754                 1.3644                 1.3522
 IR Inten    --      4.6763                 0.7442                 0.6779

                     55                     56                     57
                      A                      A                      A
 Frequencies --   1339.7749              1350.0840              1353.8711
 Red. masses --      1.2937                 1.3493                 1.3731
 Frc consts  --      1.3682                 1.4491                 1.4829
 IR Inten    --      0.3956                 0.4251                 1.9081

                     58                     59                     60
                      A                      A                      A
 Frequencies --   1365.6474              1372.1831              1391.0064
 Red. masses --      1.3067                 1.2945                 1.4463
 Frc consts  --      1.4358                 1.4361                 1.6488
 IR Inten    --      0.7386                 0.7324                 0.8400

                     61                     62                     63
                      A                      A                      A
 Frequencies --   1402.6079              1408.7245              1434.1847
 Red. masses --      1.4300                 1.4332                 1.2237
 Frc consts  --      1.6576                 1.6758                 1.4830
 IR Inten    --      3.4135                 0.7030                 4.3901

                     64                     65                     66
                      A                      A                      A
 Frequencies --   1439.4807              1441.3802              1482.1213
 Red. masses --      1.2450                 1.2474                 1.2657
 Frc consts  --      1.5199                 1.5269                 1.6382
 IR Inten    --      3.6729                 2.1395                 4.6556

                     67                     68                     69
                      A                      A                      A
 Frequencies --   1508.7073              1519.3655              1521.5128
 Red. masses --      1.0470                 1.0896                 1.0584
 Frc consts  --      1.4042                 1.4820                 1.4436
 IR Inten    --      5.2029                 1.4761                 3.8582

                     70                     71                     72
                      A                      A                      A
 Frequencies --   1523.4903              1525.4215              1528.5218
 Red. masses --      1.0742                 1.0588                 1.0573
 Frc consts  --      1.4690                 1.4516                 1.4554
 IR Inten    --      1.2311                 1.0512                 7.8543

                     73                     74                     75
                      A                      A                      A
 Frequencies --   1532.9663              1534.0898              1541.1340
 Red. masses --      1.0500                 1.0472                 1.1058
 Frc consts  --      1.4538                 1.4521                 1.5474
 IR Inten    --      3.8575                 3.9501                 2.5199

                     76                     77                     78
                      A                      A                      A
 Frequencies --   1706.5170              1729.6565              3013.8082
 Red. masses --      5.2013                 5.5695                 1.0821
 Frc consts  --      8.9244                 9.8172                 5.7907
 IR Inten    --      5.0880                 2.1554                 8.9111

                     79                     80                     81
                      A                      A                      A
 Frequencies --   3018.5881              3029.1017              3031.2230
 Red. masses --      1.0826                 1.0668                 1.0385
 Frc consts  --      5.8118                 5.7673                 5.6219
 IR Inten    --     14.0857                27.0462                41.3913

                     82                     83                     84
                      A                      A                      A
 Frequencies --   3039.6297              3040.7880              3044.5691
 Red. masses --      1.0394                 1.0659                 1.0382
 Frc consts  --      5.6580                 5.8070                 5.6701
 IR Inten    --     33.7594                30.8005                27.2513

                     85                     86                     87
                      A                      A                      A
 Frequencies --   3052.9813              3062.1429              3078.7474
 Red. masses --      1.0681                 1.0811                 1.0996
 Frc consts  --      5.8655                 5.9728                 6.1409
 IR Inten    --     37.5426                17.0954                23.6944

                     88                     89                     90
                      A                      A                      A
 Frequencies --   3088.9131              3097.4938              3101.2829
 Red. masses --      1.0965                 1.0986                 1.1014
 Frc consts  --      6.1643                 6.2101                 6.2415
 IR Inten    --     35.4535                39.4680                61.8292

                     91                     92                     93
                      A                      A                      A
 Frequencies --   3109.1536              3112.8173              3113.9088
 Red. masses --      1.0994                 1.0987                 1.1010
 Frc consts  --      6.2615                 6.2726                 6.2901
 IR Inten    --     18.6880                20.9531                66.2012

                     94                     95                     96
                      A                      A                      A
 Frequencies --   3118.2267              3123.5336              3124.6236
 Red. masses --      1.0899                 1.0999                 1.0873
 Frc consts  --      6.2439                 6.3227                 6.2544
 IR Inten    --     21.3558                44.7064                13.1243

                     97                     98                     99
                      A                      A                      A
 Frequencies --   3127.6298              3169.6533              3249.3987
 Red. masses --      1.0973                 1.0618                 1.1160
 Frc consts  --      6.3243                 6.2853                 6.9427
 IR Inten    --     43.2603                 8.3106                17.3366

 - Thermochemistry -
 -------------------
 Temperature   298.150 Kelvin.  Pressure   1.00000 Atm.
 Atom     1 has atomic number  6 and mass  12.00000

 Molecular mass:   178.17215 amu.
 Principal axes and moments of inertia in atomic units:
                           1         2         3
     Eigenvalues --  1446.297264084.996294397.02215
           X            0.99996   0.00825   0.00396
           Y           -0.00828   0.99992   0.00947
           Z           -0.00388  -0.00950   0.99995
 This molecule is an asymmetric top.
 Rotational symmetry number  1.
 Warning -- assumption of classical behavior for rotation
           may cause significant error
 Rotational temperatures (Kelvin)      0.05989     0.02120     0.01970
 Rotational constants (GHZ):           1.24784     0.44180     0.41045
 Zero-point vibrational energy     845061.2 (Joules/Mol)
                                  201.97448 (Kcal/Mol)
 Warning -- explicit consideration of  22 degrees of freedom as
           vibrations may cause significant error
 Vibrational temperatures:     53.40    62.71   110.15   121.58   183.26
          (Kelvin)            221.92   263.90   302.10   312.80   344.76
                              367.26   379.37   417.03   464.45   481.08
                              553.41   590.45   639.26   704.02   736.44
                              789.28   868.69   900.01  1035.02  1150.92
                             1193.26  1238.52  1252.63  1285.17  1312.13
                             1331.83  1339.58  1348.71  1399.82  1430.00
                             1443.82  1478.52  1495.07  1505.19  1519.98
                             1545.37  1570.33  1579.97  1604.55  1622.80
                             1659.58  1701.70  1726.78  1751.23  1780.91
                             1835.89  1854.44  1883.23  1918.40  1927.64
                             1942.47  1947.92  1964.86  1974.27  2001.35
                             2018.04  2026.84  2063.47  2071.09  2073.82
                             2132.44  2170.69  2186.03  2189.12  2191.96
                             2194.74  2199.20  2205.60  2207.21  2217.35
                             2455.30  2488.59  4336.20  4343.08  4358.20
                             4361.25  4373.35  4375.02  4380.46  4392.56
                             4405.74  4429.63  4444.26  4456.60  4462.05
                             4473.38  4478.65  4480.22  4486.43  4494.07
                             4495.64  4499.96  4560.42  4675.16

 Zero-point correction=                           0.321867 (Hartree/Particle)
 Thermal correction to Energy=                    0.336685
 Thermal correction to Enthalpy=                  0.337629
 Thermal correction to Gibbs Free Energy=         0.280104
 Sum of electronic and zero-point Energies=           -508.343953
 Sum of electronic and thermal Energies=              -508.329135
 Sum of electronic and thermal Enthalpies=            -508.328191
 Sum of electronic and thermal Free Energies=         -508.385716

                     E (Thermal)             CV                S
                      KCal/Mol        Cal/Mol-Kelvin    Cal/Mol-Kelvin
 Total                  211.273             56.350            121.072
 Electronic               0.000              0.000              0.000
 Translational            0.889              2.981             41.440
 Rotational               0.889              2.981             31.630
 Vibrational            209.495             50.389             48.003
 Vibration     1          0.594              1.982              5.407
 Vibration     2          0.595              1.980              5.089
 Vibration     3          0.599              1.965              3.977
 Vibration     4          0.601              1.960              3.783
 Vibration     5          0.611              1.926              2.985
 Vibration     6          0.620              1.898              2.619
 Vibration     7          0.631              1.862              2.293
 Vibration     8          0.642              1.826              2.044
 Vibration     9          0.646              1.815              1.981
 Vibration    10          0.657              1.780              1.806
 Vibration    11          0.666              1.754              1.694
 Vibration    12          0.670              1.739              1.637
 Vibration    13          0.686              1.693              1.475
 Vibration    14          0.708              1.630              1.296
 Vibration    15          0.716              1.607              1.239
 Vibration    16          0.754              1.503              1.021
 Vibration    17          0.775              1.448              0.925
 Vibration    18          0.804              1.373              0.813
 Vibration    19          0.845              1.274              0.685
 Vibration    20          0.867              1.224              0.629
 Vibration    21          0.904              1.143              0.547
 Vibration    22          0.962              1.024              0.443

 Optimization completed.
    -- Stationary point found.
 Normal termination of Gaussian 16 at Wed Dec  9 22:58:59 2020.

 ----------------------------------------------------------------------
 # B3LYP/6-311++G(d,p) empiricaldispersion=gd3bj scf=xqc pop=npa geom=c
 heck
 ----------------------------------------------------------------------

 ---------------------------------------
 CID_147130114_JID_3107_Energie_neutraal
 ---------------------------------------
 Structure from the checkpoint file:  "JID_3107.chk"
 Charge =  0 Multiplicity = 1

 SCF Done:  E(RB3LYP) =  -508.804011982     A.U. after   14 cycles
 Normal termination of Gaussian 16 at Wed Dec  9 23:04:03 2020.

 ----------------------------------------------------------------------
 # B3LYP/6-311++G(d,p) empiricaldispersion=gd3bj scf=xqc pop=npa geom=c
 heck
 ----------------------------------------------------------------------

 -------------------------------------
 CID_147130114_JID_3107_Energie_kation
 -------------------------------------
 Structure from the checkpoint file:  "JID_3107.chk"
 Charge =  1 Multiplicity = 2

 SCF Done:  E(UB3LYP) =  -508.505060973     A.U. after   20 cycles
 Normal termination of Gaussian 16 at Wed Dec  9 23:14:49 2020.
 Gaussian 16:  ES64L-G16RevA.03 25-Dec-2016

 ----------------------------------------------------------------------
 # B3LYP/6-311++G(d,p) empiricaldispersion=gd3bj scf=xqc pop=npa geom=c
 heck
 ----------------------------------------------------------------------

 ------------------------------------
 CID_147130114_JID_3107_Energie_anion
 ------------------------------------
 Structure from the checkpoint file:  "JID_3107.chk"
 Charge = -1 Multiplicity = 2

                         Standard orientation:
 ---------------------------------------------------------------------
 Center     Atomic      Atomic             Coordinates (Angstroms)
 Number     Number       Type             X           Y           Z
 ---------------------------------------------------------------------
      1          6           0        3.333543    1.351613   -0.376771
      2          6           0        2.386957    0.329053    0.251955
      3          6           0        3.035754   -1.055316    0.461425
      4          6           0        1.847344   -2.020983    0.479319
      5          6           0        0.970905   -1.489821   -0.664813
      6          6           0        1.091527    0.058257   -0.583624
      7          6           0       -0.170527    0.712147    0.032725
      8          6           0       -0.018161    2.237886    0.175532
      9          6           0       -1.379850    0.401576   -0.807419
     10          6           0       -2.556911   -0.128447   -0.427863
     11          6           0       -3.630699   -0.437722   -1.447804
     12          6           0       -2.908740   -0.494123    0.958129
     13          6           0       -2.698254    0.234049    2.060703
     14          1           0        4.234153    1.487666    0.234238
     15          1           0        3.653772    1.017730   -1.371892
     16          1           0        2.856227    2.330691   -0.492967
     17          1           0        2.081961    0.700765    1.240594
     18          1           0        3.687990   -1.291537   -0.391671
     19          1           0        3.655109   -1.094914    1.364783
     20          1           0        1.312345   -1.939174    1.435163
     21          1           0        2.132844   -3.070916    0.352559
     22          1           0       -0.068113   -1.827091   -0.606939
     23          1           0        1.372058   -1.845498   -1.621983
     24          1           0        1.217485    0.474644   -1.593101
     25          1           0       -0.312153    0.285297    1.032775
     26          1           0        0.136379    2.706489   -0.804491
     27          1           0       -0.919784    2.679361    0.613198
     28          1           0        0.831975    2.503195    0.812221
     29          1           0       -1.254353    0.618394   -1.870720
     30          1           0       -3.897399   -1.503385   -1.426965
     31          1           0       -4.552213    0.120280   -1.236463
     32          1           0       -3.305100   -0.189883   -2.462558
     33          1           0       -3.441903   -1.441720    1.062142
     34          1           0       -3.007510   -0.122953    3.039184
     35          1           0       -2.231107    1.213542    2.023933
 ---------------------------------------------------------------------

 SCF Done:  E(UB3LYP) =  -508.786416886     A.U. after   33 cycles
 SCF Done:  E(UB3LYP) =  -508.786416886     a.u. after    1 cycles

 The electronic state is 2-A.
 Alpha  occ. eigenvalues --  -10.07407 -10.07300 -10.06886 -10.06724 -10.06567
 Alpha  occ. eigenvalues --  -10.06412 -10.06330 -10.06032 -10.05954 -10.05935
 Alpha  occ. eigenvalues --  -10.05546 -10.05494 -10.05454  -0.74657  -0.72023
 Alpha  occ. eigenvalues --   -0.67589  -0.64373  -0.63888  -0.59555  -0.57859
 Alpha  occ. eigenvalues --   -0.55068  -0.51124  -0.48772  -0.46715  -0.44416
 Alpha  occ. eigenvalues --   -0.41703  -0.37798  -0.36829  -0.35973  -0.35325
 Alpha  occ. eigenvalues --   -0.33098  -0.32256  -0.31475  -0.30812  -0.30419
 Alpha  occ. eigenvalues --   -0.30175  -0.28766  -0.28096  -0.27080  -0.26184
 Alpha  occ. eigenvalues --   -0.25219  -0.23579  -0.22988  -0.22349  -0.22119
 Alpha  occ. eigenvalues --   -0.21753  -0.20335  -0.20129  -0.18502  -0.12817
 Alpha  occ. eigenvalues --    0.04701
 Alpha virt. eigenvalues --    0.06576   0.06679   0.07266   0.07448   0.08461
 Alpha virt. eigenvalues --    0.08681   0.09352   0.09693   0.10015   0.10750
 Alpha virt. eigenvalues --    0.11013   0.11524   0.11637   0.12146   0.12625

  Beta  occ. eigenvalues --  -10.07396 -10.07249 -10.06886 -10.06717 -10.06548
  Beta  occ. eigenvalues --  -10.06406 -10.06276 -10.06020 -10.05919 -10.05910
  Beta  occ. eigenvalues --  -10.05519 -10.05464 -10.05445  -0.74629  -0.71948
  Beta  occ. eigenvalues --   -0.67536  -0.64334  -0.63812  -0.59520  -0.57789
  Beta  occ. eigenvalues --   -0.55015  -0.51004  -0.48690  -0.46659  -0.44389
  Beta  occ. eigenvalues --   -0.41626  -0.37762  -0.36782  -0.35934  -0.35257
  Beta  occ. eigenvalues --   -0.33054  -0.32218  -0.31433  -0.30778  -0.30381
  Beta  occ. eigenvalues --   -0.30136  -0.28733  -0.28044  -0.27043  -0.26143
  Beta  occ. eigenvalues --   -0.25177  -0.23545  -0.22954  -0.22311  -0.22094
  Beta  occ. eigenvalues --   -0.21706  -0.20304  -0.20096  -0.18239  -0.12611
  Beta virt. eigenvalues --    0.06648   0.07132   0.07359   0.07674   0.08040
  Beta virt. eigenvalues --    0.08810   0.09108   0.09748   0.10156   0.10378
  Beta virt. eigenvalues --    0.11017   0.11339   0.11777   0.11907   0.12447

 Mulliken charges and spin densities:
               1          2
     1  C    1.040913  -1.778501
     2  C   -1.399610   1.794165
     3  C    0.151249  -0.734468
     4  C   -0.203836  -0.134896
     5  C   -0.156985  -0.409729
     6  C    0.053596   0.080058
     7  C    1.359449  -1.258815
     8  C    1.058712  -1.816206
     9  C   -1.085093   1.197250
    10  C    0.205941  -0.082747
    11  C    1.755964  -2.437977
    12  C   -2.416020   2.501358
    13  C    0.267624  -0.854607
    14  H   -0.315826   0.460447
    15  H   -0.183641   0.318903
    16  H    0.013535   0.124643
    17  H   -0.045392   0.231057
    18  H    0.054205   0.084384
    19  H   -0.124482   0.266423
    20  H    0.127109  -0.001495
    21  H   -0.350834   0.517072
    22  H    0.242670  -0.087098
    23  H   -0.286847   0.434926
    24  H    0.199851   0.013576
    25  H    0.418558  -0.278361
    26  H   -0.183848   0.363556
    27  H   -0.120834   0.237961
    28  H   -0.026834   0.166237
    29  H   -0.316741   0.487852
    30  H   -0.067807   0.204173
    31  H   -0.045748   0.192124
    32  H   -0.247122   0.392191
    33  H   -0.241840   0.417963
    34  H   -0.057479   0.165059
    35  H   -0.072560   0.223522
 Sum of Mulliken charges =  -1.00000   1.00000

 Dipole moment (field-independent basis, Debye):
    X=             -0.5749    Y=             -1.2910    Z=              1.4652  Tot=              2.0357
 Quadrupole moment (field-independent basis, Debye-Ang):
   XX=           -158.8259   YY=           -130.8012   ZZ=           -120.3007
   XY=              1.8290   XZ=             -0.8862   YZ=             -0.4923

 Summary of Natural Population Analysis:

                                       Natural Population
                Natural  -----------------------------------------------
    Atom  No    Charge         Core      Valence    Rydberg      Total
 -----------------------------------------------------------------------
      C    1   -0.28140      0.99964     2.27608    0.00568     3.28140
      C    2   -0.11057      0.99959     2.10127    0.00971     3.11057
      C    3   -0.18645      0.99962     2.17884    0.00799     3.18645
      C    4   -0.19084      0.99964     2.18336    0.00784     3.19084
      C    5   -0.19162      0.99962     2.18325    0.00875     3.19162
      C    6   -0.09880      0.99957     2.08792    0.01130     3.09880
      C    7   -0.13155      0.99956     2.12060    0.01139     3.13155
      C    8   -0.28073      0.99964     2.27472    0.00636     3.28073
      C    9   -0.06811      0.99946     2.05725    0.01140     3.06811
      C   10   -0.03644      0.99947     2.02543    0.01154     3.03644
      C   11   -0.28577      0.99963     2.28148    0.00466     3.28577
      C   12   -0.09199      0.99953     2.08128    0.01118     3.09199
      C   13   -0.17873      0.99957     2.17257    0.00659     3.17873
      H   14    0.09743      0.00000     0.40164    0.00093     0.40257
      H   15    0.09608      0.00000     0.40276    0.00116     0.40392
      H   16    0.10056      0.00000     0.39841    0.00103     0.39944
      H   17    0.09307      0.00000     0.40517    0.00176     0.40693
      H   18    0.09269      0.00000     0.40596    0.00135     0.40731
      H   19    0.09798      0.00000     0.40114    0.00088     0.40202
      H   20    0.09237      0.00000     0.40620    0.00142     0.40763
      H   21    0.09810      0.00000     0.40096    0.00095     0.40190
      H   22    0.10567      0.00000     0.39309    0.00125     0.39433
      H   23    0.09524      0.00000     0.40354    0.00122     0.40476
      H   24    0.09569      0.00000     0.40255    0.00176     0.40431
      H   25    0.10260      0.00000     0.39455    0.00285     0.39740
      H   26    0.09819      0.00000     0.40063    0.00118     0.40181
      H   27    0.09993      0.00000     0.39901    0.00106     0.40007
      H   28    0.09889      0.00000     0.40011    0.00100     0.40111
      H   29    0.09285      0.00000     0.40580    0.00135     0.40715
      H   30    0.09834      0.00000     0.40043    0.00123     0.40166
      H   31    0.10061      0.00000     0.39795    0.00144     0.39939
      H   32    0.10136      0.00000     0.39771    0.00094     0.39864
      H   33    0.09257      0.00000     0.40624    0.00119     0.40743
      H   34    0.09047      0.00000     0.40852    0.00100     0.40953
      H   35    0.09231      0.00000     0.40638    0.00130     0.40769
 =======================================================================
   * Total *   -0.00000     12.99455    36.86281    0.14264    50.00000

 Normal termination of Gaussian 16 at Wed Dec  9 23:31:26 2020.
