 Gaussian 16, Revision A.03,

 -----------------------------------------------------------
 # opt freq B3LYP/6-31G(d) empiricaldispersion=gd3bj scf=xqc
 -----------------------------------------------------------

 ------------------------------
 CID_21770163_JID_5257_neutraal
 ------------------------------
 Symbolic Z-matrix:
 Charge =  0 Multiplicity = 1

 SCF Done:  E(RB3LYP) =  -758.089592230     A.U. after   15 cycles
 SCF Done:  E(RB3LYP) =  -758.090459477     A.U. after   15 cycles
 SCF Done:  E(RB3LYP) =  -758.088934554     A.U. after   16 cycles
 SCF Done:  E(RB3LYP) =  -758.095789115     A.U. after   14 cycles
 SCF Done:  E(RB3LYP) =  -758.096427285     A.U. after   14 cycles
 SCF Done:  E(RB3LYP) =  -758.097022904     A.U. after   15 cycles
 SCF Done:  E(RB3LYP) =  -758.097315976     A.U. after   14 cycles
 SCF Done:  E(RB3LYP) =  -758.097486959     A.U. after   14 cycles
 SCF Done:  E(RB3LYP) =  -758.097599560     A.U. after   14 cycles
 SCF Done:  E(RB3LYP) =  -758.097660685     A.U. after   13 cycles
 SCF Done:  E(RB3LYP) =  -758.097696601     A.U. after   13 cycles
 SCF Done:  E(RB3LYP) =  -758.097715059     A.U. after   12 cycles
 SCF Done:  E(RB3LYP) =  -758.097720605     A.U. after   10 cycles
 SCF Done:  E(RB3LYP) =  -758.097721063     A.U. after    9 cycles
 SCF Done:  E(RB3LYP) =  -758.097721129     A.U. after    8 cycles
 Optimization completed.
    -- Stationary point found.
 Normal termination of Gaussian 16 at Thu Dec 10 15:08:07 2020.

 --------------------------------------------------------------------
 #N Geom=AllCheck Guess=TCheck SCRF=Check GenChk RB3LYP/6-31G(d) Freq
 --------------------------------------------------------------------

 Structure from the checkpoint file:  "JID_5257.chk"
 ------------------------------
 CID_21770163_JID_5257_neutraal
 ------------------------------
 Charge =  0 Multiplicity = 1

 SCF Done:  E(RB3LYP) =  -758.097721129     A.U. after    1 cycles

  Exact polarizability: 158.429 -14.295 111.870   7.033  13.059  75.886
 Approx polarizability: 235.803 -19.337 193.901  25.044  24.468 144.767

                      1                      2                      3
                      A                      A                      A
 Frequencies --     23.6043                47.9030                79.4757
 Red. masses --      6.7749                10.6190                10.3681
 Frc consts  --      0.0022                 0.0144                 0.0386
 IR Inten    --      0.9424                 0.1194                 0.5252

                      4                      5                      6
                      A                      A                      A
 Frequencies --     86.2191               164.6100               207.8255
 Red. masses --      5.7649                 6.7697                 4.6160
 Frc consts  --      0.0252                 0.1081                 0.1175
 IR Inten    --      3.2287                 1.4164                 1.1327

                      7                      8                      9
                      A                      A                      A
 Frequencies --    248.7155               253.3479               296.9706
 Red. masses --      7.4955                 4.6803                 5.5435
 Frc consts  --      0.2732                 0.1770                 0.2880
 IR Inten    --     14.2511                 0.7679                 0.7681

                     10                     11                     12
                      A                      A                      A
 Frequencies --    399.3753               409.9985               461.4024
 Red. masses --      4.6597                 6.6138                 4.0451
 Frc consts  --      0.4379                 0.6550                 0.5074
 IR Inten    --      1.9854                 4.0545                 1.8559

                     13                     14                     15
                      A                      A                      A
 Frequencies --    484.2035               506.8352               541.5946
 Red. masses --      5.2161                 1.2429                 2.6552
 Frc consts  --      0.7205                 0.1881                 0.4589
 IR Inten    --      9.7846                99.3888                88.7324

                     16                     17                     18
                      A                      A                      A
 Frequencies --    592.1202               592.5459               612.3485
 Red. masses --      3.5414                 4.3120                 5.3133
 Frc consts  --      0.7316                 0.8920                 1.1738
 IR Inten    --      1.4862                11.9677                15.6549

                     19                     20                     21
                      A                      A                      A
 Frequencies --    646.1779               677.7761               720.2920
 Red. masses --      7.4735                 6.1647                 4.6996
 Frc consts  --      1.8386                 1.6685                 1.4366
 IR Inten    --      4.2780                 2.9173                14.5515

                     22                     23                     24
                      A                      A                      A
 Frequencies --    785.1510               800.1112               822.7199
 Red. masses --      4.7286                 1.2302                 4.1543
 Frc consts  --      1.7175                 0.4640                 1.6567
 IR Inten    --     15.5759                 9.8129                 8.5571

                     25                     26                     27
                      A                      A                      A
 Frequencies --    835.7418               849.7186               904.4198
 Red. masses --      1.8199                 5.7203                 4.2660
 Frc consts  --      0.7489                 2.4334                 2.0560
 IR Inten    --     21.2308                11.2468                16.5377

                     28                     29                     30
                      A                      A                      A
 Frequencies --    906.8589               948.3350               953.0921
 Red. masses --      6.4183                 1.3789                 4.9954
 Frc consts  --      3.1099                 0.7306                 2.6736
 IR Inten    --      4.1947                 0.3050                24.7515

                     31                     32                     33
                      A                      A                      A
 Frequencies --    965.4615               978.3086              1023.0114
 Red. masses --      3.9740                 1.3130                 2.5191
 Frc consts  --      2.1825                 0.7404                 1.5533
 IR Inten    --      9.7087                 1.0530                35.3790

                     34                     35                     36
                      A                      A                      A
 Frequencies --   1073.0389              1110.9081              1143.5148
 Red. masses --      2.3005                 3.5071                 1.5665
 Frc consts  --      1.5606                 2.5501                 1.2069
 IR Inten    --      0.2164                82.2880                 2.7891

                     37                     38                     39
                      A                      A                      A
 Frequencies --   1167.9755              1205.8432              1239.7668
 Red. masses --      1.3583                 2.6815                 1.2395
 Frc consts  --      1.0918                 2.2973                 1.1225
 IR Inten    --     20.5951                10.2675                61.6122

                     40                     41                     42
                      A                      A                      A
 Frequencies --   1280.9747              1298.5447              1317.3979
 Red. masses --      1.5442                 4.2386                 2.1815
 Frc consts  --      1.4929                 4.2110                 2.2307
 IR Inten    --     37.2828                43.6390                43.1946

                     43                     44                     45
                      A                      A                      A
 Frequencies --   1342.9081              1371.0646              1381.6879
 Red. masses --      1.9238                 1.5670                 1.5822
 Frc consts  --      2.0441                 1.7356                 1.7797
 IR Inten    --     26.1223                 0.7191                25.7649

                     46                     47                     48
                      A                      A                      A
 Frequencies --   1391.4452              1432.5729              1446.7179
 Red. masses --      5.1441                 7.8277                 2.3564
 Frc consts  --      5.8681                 9.4649                 2.9058
 IR Inten    --     27.1537                68.4788                58.2219

                     49                     50                     51
                      A                      A                      A
 Frequencies --   1464.7659              1484.5323              1524.6327
 Red. masses --      1.1942                 1.1091                 2.6443
 Frc consts  --      1.5096                 1.4402                 3.6216
 IR Inten    --    103.1480                27.6230                 2.2149

                     52                     53                     54
                      A                      A                      A
 Frequencies --   1635.7869              1647.8972              1661.4572
 Red. masses --      6.6376                 7.0710                 7.7288
 Frc consts  --     10.4645                11.3133                12.5701
 IR Inten    --     33.3555                 2.8196                 9.6761

                     55                     56                     57
                      A                      A                      A
 Frequencies --   1674.3436              3081.7528              3112.8299
 Red. masses --      9.3429                 1.0853                 1.0608
 Frc consts  --     15.4320                 6.0729                 6.0562
 IR Inten    --    193.5976                13.8863                 2.9708

                     58                     59                     60
                      A                      A                      A
 Frequencies --   3190.3841              3192.2252              3203.6017
 Red. masses --      1.0887                 1.1072                 1.0903
 Frc consts  --      6.5290                 6.6474                 6.5926
 IR Inten    --     10.3955                 2.6372                11.9391

                     61                     62                     63
                      A                      A                      A
 Frequencies --   3221.4471              3267.6674              3656.0155
 Red. masses --      1.0964                 1.0969                 1.0653
 Frc consts  --      6.7041                 6.9008                 8.3895
 IR Inten    --     20.0187                 3.2478               105.0481

 - Thermochemistry -
 -------------------
 Temperature   298.150 Kelvin.  Pressure   1.00000 Atm.
 Atom     1 has atomic number  6 and mass  12.00000

 Molecular mass:   208.04841 amu.
 Principal axes and moments of inertia in atomic units:
                           1         2         3
     Eigenvalues --  1407.134934632.980705302.06562
           X            0.99993  -0.01178  -0.00080
           Y            0.01180   0.99924   0.03719
           Z            0.00036  -0.03720   0.99931
 This molecule is an asymmetric top.
 Rotational symmetry number  1.
 Warning -- assumption of classical behavior for rotation
           may cause significant error
 Rotational temperatures (Kelvin)      0.06155     0.01870     0.01634
 Rotational constants (GHZ):           1.28256     0.38954     0.34038
 Zero-point vibrational energy     448898.5 (Joules/Mol)
                                  107.28932 (Kcal/Mol)
 Warning -- explicit consideration of  18 degrees of freedom as
           vibrations may cause significant error
 Vibrational temperatures:     33.96    68.92   114.35   124.05   236.84
          (Kelvin)            299.01   357.85   364.51   427.27   574.61
                              589.90   663.86   696.66   729.22   779.23
                              851.93   852.54   881.03   929.71   975.17
                             1036.34  1129.66  1151.18  1183.71  1202.45
                             1222.56  1301.26  1304.77  1364.44  1371.29
                             1389.08  1407.57  1471.89  1543.86  1598.35
                             1645.26  1680.46  1734.94  1783.75  1843.04
                             1868.32  1895.44  1932.15  1972.66  1987.94
                             2001.98  2061.15  2081.50  2107.47  2135.91
                             2193.61  2353.53  2370.96  2390.47  2409.01
                             4433.95  4478.67  4590.25  4592.90  4609.27
                             4634.94  4701.44  5260.19

 Zero-point correction=                           0.170976 (Hartree/Particle)
 Thermal correction to Energy=                    0.182901
 Thermal correction to Enthalpy=                  0.183845
 Thermal correction to Gibbs Free Energy=         0.130946
 Sum of electronic and zero-point Energies=           -757.926745
 Sum of electronic and thermal Energies=              -757.914820
 Sum of electronic and thermal Enthalpies=            -757.913876
 Sum of electronic and thermal Free Energies=         -757.966775

                     E (Thermal)             CV                S
                      KCal/Mol        Cal/Mol-Kelvin    Cal/Mol-Kelvin
 Total                  114.772             45.459            111.336
 Electronic               0.000              0.000              0.000
 Translational            0.889              2.981             41.902
 Rotational               0.889              2.981             31.914
 Vibrational            112.995             39.497             37.521
 Vibration     1          0.593              1.985              6.305
 Vibration     2          0.595              1.978              4.902
 Vibration     3          0.600              1.963              3.904
 Vibration     4          0.601              1.959              3.744
 Vibration     5          0.623              1.886              2.496
 Vibration     6          0.641              1.829              2.063
 Vibration     7          0.662              1.765              1.740
 Vibration     8          0.665              1.757              1.707
 Vibration     9          0.691              1.679              1.434
 Vibration    10          0.765              1.471              0.965
 Vibration    11          0.774              1.449              0.927
 Vibration    12          0.819              1.336              0.762
 Vibration    13          0.840              1.285              0.699
 Vibration    14          0.862              1.235              0.641
 Vibration    15          0.897              1.158              0.562
 Vibration    16          0.950              1.049              0.463
 Vibration    17          0.950              1.048              0.463
 Vibration    18          0.972              1.006              0.429

 Optimization completed.
    -- Stationary point found.
 Normal termination of Gaussian 16 at Thu Dec 10 15:15:03 2020.

 ----------------------------------------------------------------------
 # B3LYP/6-311++G(d,p) empiricaldispersion=gd3bj scf=xqc pop=npa geom=c
 heck
 ----------------------------------------------------------------------

 --------------------------------------
 CID_21770163_JID_5257_Energie_neutraal
 --------------------------------------
 Structure from the checkpoint file:  "JID_5257.chk"
 Charge =  0 Multiplicity = 1

 SCF Done:  E(RB3LYP) =  -758.318304714     A.U. after   16 cycles
 Normal termination of Gaussian 16 at Thu Dec 10 15:17:32 2020.

 ----------------------------------------------------------------------
 # B3LYP/6-311++G(d,p) empiricaldispersion=gd3bj scf=xqc pop=npa geom=c
 heck
 ----------------------------------------------------------------------

 ------------------------------------
 CID_21770163_JID_5257_Energie_kation
 ------------------------------------
 Structure from the checkpoint file:  "JID_5257.chk"
 Charge =  1 Multiplicity = 2

 SCF Done:  E(UB3LYP) =  -757.996969003     A.U. after   24 cycles
 Normal termination of Gaussian 16 at Thu Dec 10 15:22:26 2020.
 Gaussian 16:  ES64L-G16RevA.03 25-Dec-2016

 ----------------------------------------------------------------------
 # B3LYP/6-311++G(d,p) empiricaldispersion=gd3bj scf=xqc pop=npa geom=c
 heck
 ----------------------------------------------------------------------

 -----------------------------------
 CID_21770163_JID_5257_Energie_anion
 -----------------------------------
 Structure from the checkpoint file:  "JID_5257.chk"
 Charge = -1 Multiplicity = 2

                         Standard orientation:
 ---------------------------------------------------------------------
 Center     Atomic      Atomic             Coordinates (Angstroms)
 Number     Number       Type             X           Y           Z
 ---------------------------------------------------------------------
      1          6           0       -4.018202    0.228906   -0.171040
      2          6           0       -3.276341   -0.895045   -0.530397
      3          6           0       -1.897676   -0.847211   -0.303393
      4          6           0       -1.393509    0.340845    0.270123
      5          7           0       -2.058480    1.419262    0.623566
      6          6           0       -3.378693    1.344627    0.393192
      7          8           0       -0.035289    0.239869    0.430942
      8          6           0        0.319671   -1.007527   -0.035802
      9          6           0       -0.755462   -1.704321   -0.490054
     10          6           0        1.775082   -1.355165    0.047995
     11          6           0        2.651773   -0.435629   -0.826819
     12          7           0        2.600197    1.003471   -0.386144
     13          8           0        2.810611    1.228152    0.809787
     14          8           0        2.383936    1.852932   -1.235404
     15          8           0        2.251885   -1.436341    1.373499
     16          1           0       -5.092428    0.252248   -0.322608
     17          1           0       -3.751135   -1.768766   -0.966838
     18          1           0       -3.958030    2.220816    0.673408
     19          1           0       -0.737229   -2.704863   -0.899302
     20          1           0        1.882560   -2.357471   -0.381511
     21          1           0        3.698008   -0.734523   -0.725358
     22          1           0        2.344636   -0.443274   -1.871565
     23          1           0        2.372589   -0.517076    1.678398
 ---------------------------------------------------------------------

 SCF Done:  E(UB3LYP) =  -758.343312208     A.U. after   26 cycles

 The electronic state is 2-A.
 Alpha  occ. eigenvalues --  -19.06171 -18.99931 -18.96403 -18.96344 -14.32858
 Alpha  occ. eigenvalues --  -14.18913 -10.13666 -10.12590 -10.11091 -10.08987
 Alpha  occ. eigenvalues --  -10.08541 -10.06979 -10.06774 -10.06652 -10.06004
 Alpha  occ. eigenvalues --   -1.04176  -0.99268  -0.90969  -0.87107  -0.82779
 Alpha  occ. eigenvalues --   -0.71442  -0.68380  -0.65967  -0.63378  -0.56916
 Alpha  occ. eigenvalues --   -0.52427  -0.50234  -0.47605  -0.45379  -0.41841
 Alpha  occ. eigenvalues --   -0.39909  -0.38944  -0.37463  -0.36746  -0.35408
 Alpha  occ. eigenvalues --   -0.34582  -0.33874  -0.32048  -0.31441  -0.30600
 Alpha  occ. eigenvalues --   -0.29962  -0.28159  -0.27016  -0.26079  -0.25314
 Alpha  occ. eigenvalues --   -0.22973  -0.20312  -0.16933  -0.15332  -0.15037
 Alpha  occ. eigenvalues --   -0.14527  -0.13167  -0.12194  -0.11699   0.03695
 Alpha virt. eigenvalues --    0.06303   0.07478   0.08333   0.09406   0.10505
 Alpha virt. eigenvalues --    0.10845   0.11454   0.11815   0.13097   0.13245
 Alpha virt. eigenvalues --    0.13905   0.15310   0.15760   0.17234   0.17510

  Beta  occ. eigenvalues --  -19.06163 -18.99911 -18.95976 -18.95940 -14.32045
  Beta  occ. eigenvalues --  -14.18769 -10.13696 -10.12573 -10.10914 -10.09020
  Beta  occ. eigenvalues --  -10.08413 -10.06803 -10.06721 -10.06694 -10.06005
  Beta  occ. eigenvalues --   -1.03055  -0.99210  -0.90909  -0.86325  -0.82544
  Beta  occ. eigenvalues --   -0.71229  -0.68101  -0.65803  -0.63063  -0.56530
  Beta  occ. eigenvalues --   -0.52251  -0.50049  -0.47394  -0.44617  -0.41567
  Beta  occ. eigenvalues --   -0.39653  -0.38577  -0.36734  -0.36202  -0.34887
  Beta  occ. eigenvalues --   -0.34328  -0.32802  -0.31483  -0.31285  -0.30405
  Beta  occ. eigenvalues --   -0.29774  -0.27609  -0.26930  -0.25625  -0.24951
  Beta  occ. eigenvalues --   -0.22878  -0.19645  -0.16830  -0.15115  -0.14148
  Beta  occ. eigenvalues --   -0.12822  -0.12259  -0.11766  -0.10975
  Beta virt. eigenvalues --    0.07423   0.07882   0.08104   0.09258   0.10298
  Beta virt. eigenvalues --    0.10919   0.11394   0.11721   0.12778   0.13203
  Beta virt. eigenvalues --    0.13345   0.14070   0.15461   0.15754   0.17213

 Mulliken charges and spin densities:
               1          2
     1  C   -0.175322  -0.023992
     2  C   -0.256552   0.149921
     3  C    1.277601  -0.004475
     4  C   -0.927231  -0.008032
     5  N   -0.107546   0.058293
     6  C   -0.203099   0.087415
     7  O   -0.002288   0.002205
     8  C    0.484927   0.019352
     9  C   -0.764777  -0.009955
    10  C   -0.317272   0.127932
    11  C   -0.517735  -0.151701
    12  N   -0.058267   0.249959
    13  O   -0.229836   0.147545
    14  O   -0.193906   0.177377
    15  O   -0.162090  -0.003281
    16  H    0.127606   0.003205
    17  H    0.128025  -0.011094
    18  H    0.161450  -0.008436
    19  H    0.124256   0.000975
    20  H    0.098954   0.071452
    21  H    0.089722   0.142162
    22  H    0.164222  -0.007229
    23  H    0.259157  -0.009598
 Sum of Mulliken charges =  -1.00000   1.00000

 Dipole moment (field-independent basis, Debye):
    X=             -4.5836    Y=             -5.8701    Z=             -2.0712  Tot=              7.7303
 Quadrupole moment (field-independent basis, Debye-Ang):
   XX=           -119.5261   YY=           -107.6871   ZZ=            -99.0487
   XY=             -8.0095   XZ=             -1.8214   YZ=              6.4860

 Summary of Natural Population Analysis:

                                       Natural Population
                Natural  -----------------------------------------------
    Atom  No    Charge         Core      Valence    Rydberg      Total
 -----------------------------------------------------------------------
      C    1   -0.14731      0.99958     2.13934    0.00839     3.14731
      C    2   -0.05325      0.99954     2.04539    0.00832     3.05325
      C    3   -0.06441      0.99949     2.05650    0.00842     3.06441
      C    4    0.25628      0.99939     1.72574    0.01859     2.74372
      N    5   -0.21520      0.99965     2.70537    0.01018     3.71520
      C    6    0.03644      0.99962     1.94926    0.01468     2.96356
      O    7   -0.23669      0.99985     3.22703    0.00981     4.23669
      C    8    0.19091      0.99943     1.79256    0.01709     2.80909
      C    9   -0.15361      0.99947     2.14727    0.00687     3.15361
      C   10    0.03648      0.99950     1.94585    0.01817     2.96352
      C   11   -0.13119      0.99957     2.11851    0.01311     3.13119
      N   12    0.33066      0.99978     2.14206    0.02750     3.16934
      O   13   -0.21951      0.99989     3.21160    0.00801     4.21951
      O   14   -0.17742      0.99989     3.16929    0.00823     4.17742
      O   15   -0.37440      0.99990     3.36762    0.00688     4.37440
      H   16    0.09584      0.00000     0.40306    0.00110     0.40416
      H   17    0.09271      0.00000     0.40583    0.00147     0.40729
      H   18    0.08244      0.00000     0.41629    0.00127     0.41756
      H   19    0.10348      0.00000     0.39571    0.00082     0.39652
      H   20    0.09112      0.00000     0.40685    0.00203     0.40888
      H   21    0.10510      0.00000     0.39326    0.00164     0.39490
      H   22    0.10519      0.00000     0.39365    0.00115     0.39481
      H   23    0.24634      0.00000     0.25045    0.00321     0.25366
 =======================================================================
   * Total *   -0.00000     14.99455    38.80849    0.19696    54.00000

 Normal termination of Gaussian 16 at Thu Dec 10 15:27:10 2020.
