 Gaussian 16, Revision A.03,

 -----------------------------------------------------------
 # opt freq B3LYP/6-31G(d) empiricaldispersion=gd3bj scf=xqc
 -----------------------------------------------------------

 ------------------------------
 CID_65717624_JID_7635_neutraal
 ------------------------------
 Symbolic Z-matrix:
 Charge =  0 Multiplicity = 1

 SCF Done:  E(RB3LYP) =  -1103.99537626     A.U. after   16 cycles
 SCF Done:  E(RB3LYP) =  -1103.99995714     A.U. after   12 cycles
 SCF Done:  E(RB3LYP) =  -1104.00066846     A.U. after   12 cycles
 SCF Done:  E(RB3LYP) =  -1104.00082045     A.U. after   12 cycles
 SCF Done:  E(RB3LYP) =  -1104.00093883     A.U. after   12 cycles
 SCF Done:  E(RB3LYP) =  -1104.00102486     A.U. after   12 cycles
 SCF Done:  E(RB3LYP) =  -1104.00108466     A.U. after   12 cycles
 SCF Done:  E(RB3LYP) =  -1104.00114796     A.U. after   12 cycles
 SCF Done:  E(RB3LYP) =  -1104.00117039     A.U. after   10 cycles
 SCF Done:  E(RB3LYP) =  -1104.00117261     A.U. after   11 cycles
 SCF Done:  E(RB3LYP) =  -1104.00117467     A.U. after    8 cycles
 SCF Done:  E(RB3LYP) =  -1104.00117478     A.U. after    7 cycles
 SCF Done:  E(RB3LYP) =  -1104.00117484     A.U. after    7 cycles
 SCF Done:  E(RB3LYP) =  -1104.00117487     A.U. after    8 cycles
 SCF Done:  E(RB3LYP) =  -1104.00117489     A.U. after    7 cycles
 SCF Done:  E(RB3LYP) =  -1104.00117491     A.U. after    7 cycles
 Optimization completed.
    -- Stationary point found.
 Normal termination of Gaussian 16 at Sun Dec 13 12:34:13 2020.

 --------------------------------------------------------------------
 #N Geom=AllCheck Guess=TCheck SCRF=Check GenChk RB3LYP/6-31G(d) Freq
 --------------------------------------------------------------------

 Structure from the checkpoint file:  "JID_7635.chk"
 ------------------------------
 CID_65717624_JID_7635_neutraal
 ------------------------------
 Charge =  0 Multiplicity = 1

 SCF Done:  E(RB3LYP) =  -1104.00117491     A.U. after    1 cycles

  Exact polarizability: 273.079   8.343 164.279  10.190  -6.925  88.102
 Approx polarizability: 356.137   8.352 314.078  20.475 -19.786 139.653

                      1                      2                      3
                      A                      A                      A
 Frequencies --     13.5652                35.1561                47.9623
 Red. masses --      4.6972                 8.2609                 4.4815
 Frc consts  --      0.0005                 0.0060                 0.0061
 IR Inten    --      0.1418                 2.7681                 1.2013

                      4                      5                      6
                      A                      A                      A
 Frequencies --     61.9602                83.2011                96.2381
 Red. masses --      3.2207                 3.3149                 4.3133
 Frc consts  --      0.0073                 0.0135                 0.0235
 IR Inten    --      0.2913                 2.3200                 1.7316

                      7                      8                      9
                      A                      A                      A
 Frequencies --    134.4844               167.6617               208.6331
 Red. masses --      3.9232                 2.1321                 2.2093
 Frc consts  --      0.0418                 0.0353                 0.0567
 IR Inten    --      0.7751                 0.9898                 0.5305

                     10                     11                     12
                      A                      A                      A
 Frequencies --    211.4873               223.2795               256.4188
 Red. masses --      1.8328                 3.9340                 2.7302
 Frc consts  --      0.0483                 0.1156                 0.1058
 IR Inten    --      1.0826                 1.7467                 4.3185

                     13                     14                     15
                      A                      A                      A
 Frequencies --    277.5615               281.5119               319.4154
 Red. masses --      3.9432                 1.5450                 2.9067
 Frc consts  --      0.1790                 0.0721                 0.1747
 IR Inten    --      1.6459                 0.5019                 3.9813

                     16                     17                     18
                      A                      A                      A
 Frequencies --    346.2683               386.6983               410.4452
 Red. masses --      2.7490                 4.2850                 3.2080
 Frc consts  --      0.1942                 0.3775                 0.3184
 IR Inten    --      3.1837                 0.8556                 2.3417

                     19                     20                     21
                      A                      A                      A
 Frequencies --    460.5866               484.7937               504.1640
 Red. masses --      3.1315                 5.1000                 3.0761
 Frc consts  --      0.3914                 0.7062                 0.4607
 IR Inten    --      0.0650                 1.3680                 7.0865

                     22                     23                     24
                      A                      A                      A
 Frequencies --    562.1911               575.5705               592.4392
 Red. masses --      5.5751                 4.9148                 6.1001
 Frc consts  --      1.0382                 0.9593                 1.2615
 IR Inten    --      4.4129                 4.3080                 2.3662

                     25                     26                     27
                      A                      A                      A
 Frequencies --    636.9360               657.6416               664.5259
 Red. masses --      8.3350                 6.8037                 4.3484
 Frc consts  --      1.9923                 1.7337                 1.1314
 IR Inten    --      2.9206                 0.6755                 7.7617

                     28                     29                     30
                      A                      A                      A
 Frequencies --    691.1310               696.7104               739.3475
 Red. masses --      8.2861                 2.1436                 1.7420
 Frc consts  --      2.3320                 0.6131                 0.5610
 IR Inten    --      9.3072                10.5752               151.4752

                     31                     32                     33
                      A                      A                      A
 Frequencies --    770.8356               785.6982               841.5822
 Red. masses --      3.3237                 1.5801                 2.3080
 Frc consts  --      1.1636                 0.5747                 0.9631
 IR Inten    --     54.9227                29.4491                 0.8308

                     34                     35                     36
                      A                      A                      A
 Frequencies --    852.6142               874.2807               918.6820
 Red. masses --      5.3500                 1.4305                 1.4205
 Frc consts  --      2.2915                 0.6442                 0.7063
 IR Inten    --     42.8974                 1.8498                14.6086

                     37                     38                     39
                      A                      A                      A
 Frequencies --    920.4182               960.5753               988.5285
 Red. masses --      2.5921                 1.2686                 2.2088
 Frc consts  --      1.2938                 0.6896                 1.2717
 IR Inten    --     28.6170                 0.0038                 2.8643

                     40                     41                     42
                      A                      A                      A
 Frequencies --   1015.8229              1027.1017              1037.3683
 Red. masses --      5.8626                 1.9891                 3.1880
 Frc consts  --      3.5643                 1.2363                 2.0213
 IR Inten    --      2.0725                10.0629                64.3238

                     43                     44                     45
                      A                      A                      A
 Frequencies --   1092.7170              1114.7895              1135.7954
 Red. masses --      2.8616                 3.1523                 1.7861
 Frc consts  --      2.0131                 2.3081                 1.3575
 IR Inten    --     50.5594                16.3185                 5.3314

                     46                     47                     48
                      A                      A                      A
 Frequencies --   1148.7487              1162.7702              1177.3846
 Red. masses --      3.5791                 1.3776                 1.9019
 Frc consts  --      2.7828                 1.0974                 1.5534
 IR Inten    --      8.0183                 7.7389                24.4944

                     49                     50                     51
                      A                      A                      A
 Frequencies --   1186.1588              1200.7425              1210.0330
 Red. masses --      1.2709                 2.5651                 1.2121
 Frc consts  --      1.0535                 2.1790                 1.0456
 IR Inten    --      0.7583                60.9012                 6.4729

                     52                     53                     54
                      A                      A                      A
 Frequencies --   1215.5679              1247.9745              1276.1820
 Red. masses --      1.4629                 2.4174                 1.5352
 Frc consts  --      1.2736                 2.2182                 1.4731
 IR Inten    --      6.4462                 7.7470                21.5153

                     55                     56                     57
                      A                      A                      A
 Frequencies --   1310.2272              1319.3495              1335.9666
 Red. masses --      2.9712                 1.4472                 1.8246
 Frc consts  --      3.0052                 1.4843                 1.9188
 IR Inten    --    107.5586                 6.5332               186.9863

                     58                     59                     60
                      A                      A                      A
 Frequencies --   1378.6631              1380.8069              1398.7544
 Red. masses --      1.2841                 4.7899                 1.3078
 Frc consts  --      1.4381                 5.3808                 1.5075
 IR Inten    --      2.3147                23.6763                35.6244

                     61                     62                     63
                      A                      A                      A
 Frequencies --   1480.5030              1483.4164              1493.9468
 Red. masses --      1.1815                 2.3075                 3.3203
 Frc consts  --      1.5258                 2.9916                 4.3661
 IR Inten    --      0.9893                94.0661                28.6244

                     64                     65                     66
                      A                      A                      A
 Frequencies --   1495.6845              1506.0865              1508.5432
 Red. masses --      1.1502                 1.3762                 1.3261
 Frc consts  --      1.5160                 1.8393                 1.7780
 IR Inten    --     11.4499                 4.4626                 3.8791

                     67                     68                     69
                      A                      A                      A
 Frequencies --   1517.5099              1521.8138              1524.7220
 Red. masses --      1.4262                 1.0477                 1.1323
 Frc consts  --      1.9350                 1.4296                 1.5509
 IR Inten    --     48.2879                 5.7120                22.2331

                     70                     71                     72
                      A                      A                      A
 Frequencies --   1532.9672              1536.0368              1550.7668
 Red. masses --      2.3225                 1.1031                 1.0668
 Frc consts  --      3.2157                 1.5335                 1.5115
 IR Inten    --     44.5156                10.8536                 3.3701

                     73                     74                     75
                      A                      A                      A
 Frequencies --   1552.7686              1640.1405              1667.2351
 Red. masses --      3.1458                 5.3694                 6.1014
 Frc consts  --      4.4689                 8.5101                 9.9925
 IR Inten    --     28.4602                63.0388                60.3957

                     76                     77                     78
                      A                      A                      A
 Frequencies --   2960.2389              3026.3203              3048.0527
 Red. masses --      1.0605                 1.0350                 1.0626
 Frc consts  --      5.4752                 5.5848                 5.8166
 IR Inten    --     72.7637                60.4314                52.1774

                     79                     80                     81
                      A                      A                      A
 Frequencies --   3071.3647              3073.1472              3085.4368
 Red. masses --      1.0626                 1.0722                 1.1067
 Frc consts  --      5.9061                 5.9663                 6.2075
 IR Inten    --     36.1341                43.5854                43.0512

                     82                     83                     84
                      A                      A                      A
 Frequencies --   3102.2296              3122.1452              3123.3125
 Red. masses --      1.1016                 1.1026                 1.1034
 Frc consts  --      6.2463                 6.3322                 6.3420
 IR Inten    --     23.9779                27.7422                10.1828

                     85                     86                     87
                      A                      A                      A
 Frequencies --   3162.7302              3192.0472              3208.0842
 Red. masses --      1.0996                 1.0866                 1.0937
 Frc consts  --      6.4804                 6.5233                 6.6319
 IR Inten    --     25.7772                 9.6456                12.6812

                     88                     89                     90
                      A                      A                      A
 Frequencies --   3233.8668              3243.8439              3518.5779
 Red. masses --      1.0920                 1.0911                 1.0740
 Frc consts  --      6.7283                 6.7645                 7.8338
 IR Inten    --     11.3763                 1.8426                 0.1926

 - Thermochemistry -
 -------------------
 Temperature   298.150 Kelvin.  Pressure   1.00000 Atm.
 Atom     1 has atomic number  6 and mass  12.00000

 Molecular mass:   249.09358 amu.
 Principal axes and moments of inertia in atomic units:
                           1         2         3
     Eigenvalues --  1485.36063********************
           X            1.00000  -0.00239   0.00084
           Y            0.00239   0.99999  -0.00478
           Z           -0.00083   0.00478   0.99999
 This molecule is an asymmetric top.
 Rotational symmetry number  1.
 Warning -- assumption of classical behavior for rotation
           may cause significant error
 Rotational temperatures (Kelvin)      0.05831     0.00833     0.00758
 Rotational constants (GHZ):           1.21502     0.17352     0.15793
 Zero-point vibrational energy     683651.9 (Joules/Mol)
                                  163.39671 (Kcal/Mol)
 Warning -- explicit consideration of  24 degrees of freedom as
           vibrations may cause significant error
 Vibrational temperatures:     19.52    50.58    69.01    89.15   119.71
          (Kelvin)            138.47   193.49   241.23   300.18   304.28
                              321.25   368.93   399.35   405.03   459.57
                              498.20   556.37   590.54   662.68   697.51
                              725.38   808.87   828.12   852.39   916.41
                              946.20   956.10   994.38  1002.41  1063.76
                             1109.06  1130.44  1210.85  1226.72  1257.89
                             1321.78  1324.28  1382.05  1422.27  1461.54
                             1477.77  1492.54  1572.18  1603.93  1634.16
                             1652.79  1672.97  1693.99  1706.62  1727.60
                             1740.97  1748.93  1795.56  1836.14  1885.12
                             1898.25  1922.16  1983.59  1986.67  2012.50
                             2130.11  2134.31  2149.46  2151.96  2166.92
                             2170.46  2183.36  2189.55  2193.73  2205.60
                             2210.01  2231.21  2234.09  2359.80  2398.78
                             4259.12  4354.20  4385.47  4419.01  4421.57
                             4439.26  4463.42  4492.07  4493.75  4550.46
                             4592.64  4615.72  4652.81  4667.17  5062.45

 Zero-point correction=                           0.260389 (Hartree/Particle)
 Thermal correction to Energy=                    0.276756
 Thermal correction to Enthalpy=                  0.277700
 Thermal correction to Gibbs Free Energy=         0.213954
 Sum of electronic and zero-point Energies=          -1103.740786
 Sum of electronic and thermal Energies=             -1103.724419
 Sum of electronic and thermal Enthalpies=           -1103.723474
 Sum of electronic and thermal Free Energies=        -1103.787221

                     E (Thermal)             CV                S
                      KCal/Mol        Cal/Mol-Kelvin    Cal/Mol-Kelvin
 Total                  173.667             60.975            134.166
 Electronic               0.000              0.000              0.000
 Translational            0.889              2.981             42.438
 Rotational               0.889              2.981             33.534
 Vibrational            171.890             55.013             58.194
 Vibration     1          0.593              1.986              7.405
 Vibration     2          0.594              1.982              5.515
 Vibration     3          0.595              1.978              4.900
 Vibration     4          0.597              1.972              4.394
 Vibration     5          0.600              1.961              3.814
 Vibration     6          0.603              1.952              3.529
 Vibration     7          0.613              1.919              2.881
 Vibration     8          0.624              1.882              2.462
 Vibration     9          0.642              1.828              2.056
 Vibration    10          0.643              1.823              2.031
 Vibration    11          0.649              1.806              1.932
 Vibration    12          0.666              1.752              1.686
 Vibration    13          0.679              1.715              1.549
 Vibration    14          0.681              1.708              1.524
 Vibration    15          0.705              1.636              1.313
 Vibration    16          0.724              1.583              1.183
 Vibration    17          0.755              1.499              1.013
 Vibration    18          0.775              1.448              0.925
 Vibration    19          0.818              1.337              0.764
 Vibration    20          0.841              1.284              0.697
 Vibration    21          0.859              1.241              0.648
 Vibration    22          0.918              1.113              0.519
 Vibration    23          0.932              1.084              0.494
 Vibration    24          0.950              1.048              0.463

                           ! Non-Optimized Parameters !
 Normal termination of Gaussian 16 at Sun Dec 13 12:43:48 2020.

 ----------------------------------------------------------------------
 # B3LYP/6-311++G(d,p) empiricaldispersion=gd3bj scf=xqc pop=npa geom=c
 heck
 ----------------------------------------------------------------------

 --------------------------------------
 CID_65717624_JID_7635_Energie_neutraal
 --------------------------------------
 Structure from the checkpoint file:  "JID_7635.chk"
 Charge =  0 Multiplicity = 1

 SCF Done:  E(RB3LYP) =  -1104.21785591     A.U. after   17 cycles
 Normal termination of Gaussian 16 at Sun Dec 13 12:49:35 2020.

 ----------------------------------------------------------------------
 # B3LYP/6-311++G(d,p) empiricaldispersion=gd3bj scf=xqc pop=npa geom=c
 heck
 ----------------------------------------------------------------------

 ------------------------------------
 CID_65717624_JID_7635_Energie_kation
 ------------------------------------
 Structure from the checkpoint file:  "JID_7635.chk"
 Charge =  1 Multiplicity = 2

 SCF Done:  E(UB3LYP) =  -1103.93159904     A.U. after   27 cycles
 Normal termination of Gaussian 16 at Sun Dec 13 13:02:53 2020.
 Gaussian 16:  ES64L-G16RevA.03 25-Dec-2016

 ----------------------------------------------------------------------
 # B3LYP/6-311++G(d,p) empiricaldispersion=gd3bj scf=xqc pop=npa geom=c
 heck
 ----------------------------------------------------------------------

 -----------------------------------
 CID_65717624_JID_7635_Energie_anion
 -----------------------------------
 Structure from the checkpoint file:  "JID_7635.chk"
 Charge = -1 Multiplicity = 2

                         Standard orientation:
 ---------------------------------------------------------------------
 Center     Atomic      Atomic             Coordinates (Angstroms)
 Number     Number       Type             X           Y           Z
 ---------------------------------------------------------------------
      1          6           0       -4.885449    1.726059    0.248408
      2          7           0       -4.424540    0.715218    1.189515
      3          6           0       -4.567135   -0.659605    0.745537
      4          6           0       -3.837076   -1.074467   -0.566208
      5          6           0       -2.351143   -0.981969   -0.465049
      6          7           0       -1.573936   -2.007657   -0.247397
      7          7           0       -0.255853   -1.678905   -0.132974
      8          6           0       -0.014359   -0.400493   -0.261225
      9         16           0       -1.477142    0.540480   -0.545895
     10          6           0        1.325223    0.190015   -0.178259
     11          6           0        2.415567   -0.651765    0.059169
     12          6           0        3.707448   -0.124906    0.144833
     13          6           0        3.915618    1.252027   -0.007116
     14          6           0        2.819872    2.085749   -0.244301
     15          6           0        1.532476    1.571812   -0.331111
     16          8           0        4.696547   -1.032617    0.378729
     17          6           0        6.028887   -0.556782    0.474911
     18          1           0       -5.946626    1.554889    0.031769
     19          1           0       -4.349338    1.754382   -0.717603
     20          1           0       -4.793882    2.714823    0.708735
     21          1           0       -3.465778    0.902907    1.471342
     22          1           0       -4.221898   -1.315375    1.552133
     23          1           0       -5.636853   -0.858038    0.600051
     24          1           0       -4.078964   -2.119274   -0.785001
     25          1           0       -4.199738   -0.466930   -1.402416
     26          1           0        2.264206   -1.717797    0.177551
     27          1           0        4.909417    1.678287    0.056132
     28          1           0        2.982268    3.153086   -0.362409
     29          1           0        0.695176    2.237287   -0.517069
     30          1           0        6.352748   -0.075170   -0.457116
     31          1           0        6.144521    0.151597    1.305781
     32          1           0        6.647393   -1.436054    0.661080
 ---------------------------------------------------------------------

 SCF Done:  E(UB3LYP) =  -1104.23287580     A.U. after   26 cycles

 The electronic state is 2-A.
 Alpha  occ. eigenvalues --  -88.72908 -19.04121 -14.19697 -14.19060 -14.17097
 Alpha  occ. eigenvalues --  -10.12936 -10.10363 -10.09343 -10.09131 -10.07994
 Alpha  occ. eigenvalues --  -10.07004 -10.06465 -10.04829 -10.04285 -10.03722
 Alpha  occ. eigenvalues --  -10.03555 -10.02416  -7.81631  -5.77881  -5.77583
 Alpha  occ. eigenvalues --   -5.77256  -0.95793  -0.87180  -0.80493  -0.72835
 Alpha  occ. eigenvalues --   -0.69302  -0.66476  -0.64089  -0.62897  -0.60956
 Alpha  occ. eigenvalues --   -0.58319  -0.57486  -0.51093  -0.49846  -0.47695
 Alpha  occ. eigenvalues --   -0.44632  -0.41882  -0.39847  -0.39751  -0.36964
 Alpha  occ. eigenvalues --   -0.36770  -0.36225  -0.35077  -0.33864  -0.32598
 Alpha  occ. eigenvalues --   -0.31946  -0.30690  -0.29973  -0.29513  -0.28158
 Alpha  occ. eigenvalues --   -0.27649  -0.26755  -0.25911  -0.25391  -0.24798
 Alpha  occ. eigenvalues --   -0.24321  -0.22999  -0.21088  -0.21056  -0.16246
 Alpha  occ. eigenvalues --   -0.15352  -0.14822  -0.12738  -0.11296  -0.10575
 Alpha  occ. eigenvalues --   -0.09606   0.03814
 Alpha virt. eigenvalues --    0.06799   0.07080   0.08718   0.09024   0.09748
 Alpha virt. eigenvalues --    0.10105   0.10726   0.10776   0.11495   0.12007
 Alpha virt. eigenvalues --    0.12312   0.12547   0.12616   0.13329   0.13971

  Beta  occ. eigenvalues --  -88.72857 -19.04120 -14.19692 -14.19176 -14.16840
  Beta  occ. eigenvalues --  -10.12935 -10.10415 -10.09338 -10.09097 -10.07652
  Beta  occ. eigenvalues --  -10.06697 -10.06488 -10.04867 -10.04164 -10.03495
  Beta  occ. eigenvalues --  -10.03475 -10.02228  -7.81585  -5.77863  -5.77565
  Beta  occ. eigenvalues --   -5.77076  -0.95794  -0.86881  -0.80471  -0.72534
  Beta  occ. eigenvalues --   -0.68892  -0.66143  -0.63986  -0.62719  -0.60666
  Beta  occ. eigenvalues --   -0.58148  -0.57429  -0.50961  -0.49345  -0.47585
  Beta  occ. eigenvalues --   -0.44425  -0.41658  -0.39805  -0.39564  -0.36948
  Beta  occ. eigenvalues --   -0.36670  -0.36081  -0.34970  -0.33715  -0.32445
  Beta  occ. eigenvalues --   -0.31704  -0.30539  -0.29783  -0.29366  -0.27758
  Beta  occ. eigenvalues --   -0.27264  -0.26447  -0.25569  -0.25285  -0.24682
  Beta  occ. eigenvalues --   -0.24210  -0.22844  -0.20930  -0.20631  -0.15298
  Beta  occ. eigenvalues --   -0.15159  -0.13623  -0.12531  -0.11036  -0.09785
  Beta  occ. eigenvalues --   -0.08312
  Beta virt. eigenvalues --    0.06777   0.06956   0.08562   0.08922   0.09281
  Beta virt. eigenvalues --    0.09890   0.10109   0.10688   0.10773   0.11954
  Beta virt. eigenvalues --    0.11969   0.12267   0.12491   0.12570   0.13359

 Mulliken charges and spin densities:
               1          2
     1  C   -0.328336  -0.086987
     2  N   -0.204311  -0.006358
     3  C   -0.388988  -0.008511
     4  C   -0.257078   0.040667
     5  C    0.217382   0.055113
     6  N    0.068563  -0.067085
     7  N   -0.075534   0.140226
     8  C   -0.300789   0.131567
     9  S   -0.546692   0.097423
    10  C    1.368009   0.002848
    11  C   -0.493228   0.193635
    12  C   -0.422404  -0.046920
    13  C    0.281987   0.173544
    14  C   -0.536632  -0.002288
    15  C   -0.727501   0.113667
    16  O   -0.165381   0.001470
    17  C   -0.332206   0.001097
    18  H    0.099692   0.036782
    19  H    0.073829   0.042014
    20  H    0.128351   0.001274
    21  H    0.229615  -0.002328
    22  H    0.171373  -0.013812
    23  H    0.028651   0.104104
    24  H    0.128154   0.053328
    25  H    0.073370   0.076566
    26  H    0.202156  -0.010719
    27  H    0.107741  -0.014470
    28  H    0.137013   0.001980
    29  H    0.047922  -0.007743
    30  H    0.135065  -0.000364
    31  H    0.134556   0.000361
    32  H    0.145648  -0.000081
 Sum of Mulliken charges =  -1.00000   1.00000

 Dipole moment (field-independent basis, Debye):
    X=              1.1968    Y=              3.5179    Z=              0.1488  Tot=              3.7189
 Quadrupole moment (field-independent basis, Debye-Ang):
   XX=           -145.7991   YY=           -130.6408   ZZ=           -122.8036
   XY=             -1.6863   XZ=              4.8698   YZ=             -1.0118

 Summary of Natural Population Analysis:

                                       Natural Population
                Natural  -----------------------------------------------
    Atom  No    Charge         Core      Valence    Rydberg      Total
 -----------------------------------------------------------------------
      C    1   -0.18040      0.99967     2.17332    0.00741     3.18040
      N    2   -0.34427      0.99976     2.83260    0.01192     3.84427
      C    3   -0.07983      0.99963     2.06625    0.01396     3.07983
      C    4   -0.22781      0.99957     2.21776    0.01048     3.22781
      C    5    0.07364      0.99962     1.90690    0.01984     2.92636
      N    6   -0.18118      0.99963     2.66601    0.01555     3.68118
      N    7   -0.12174      0.99962     2.60679    0.01533     3.62174
      C    8    0.07464      0.99957     1.91017    0.01563     2.92536
      S    9    0.15091      4.99942     2.83058    0.01909     7.84909
      C   10   -0.01911      0.99937     2.00889    0.01085     3.01911
      C   11   -0.06810      0.99951     2.05936    0.00923     3.06810
      C   12    0.14441      0.99939     1.84456    0.01165     2.85559
      C   13   -0.12159      0.99955     2.11187    0.01016     3.12159
      C   14   -0.10222      0.99945     2.09242    0.01035     3.10222
      C   15   -0.09171      0.99947     2.08357    0.00867     3.09171
      O   16   -0.27685      0.99985     3.26718    0.00983     4.27685
      C   17   -0.09981      0.99961     2.09192    0.00827     3.09981
      H   18    0.08649      0.00000     0.41231    0.00120     0.41351
      H   19    0.08160      0.00000     0.41643    0.00197     0.41840
      H   20    0.09170      0.00000     0.40746    0.00085     0.40830
      H   21    0.18037      0.00000     0.31736    0.00227     0.31963
      H   22    0.09627      0.00000     0.40286    0.00087     0.40373
      H   23    0.08476      0.00000     0.41369    0.00156     0.41524
      H   24    0.11121      0.00000     0.38706    0.00173     0.38879
      H   25    0.10132      0.00000     0.39743    0.00126     0.39868
      H   26    0.11198      0.00000     0.38660    0.00142     0.38802
      H   27    0.09158      0.00000     0.40726    0.00116     0.40842
      H   28    0.09056      0.00000     0.40807    0.00137     0.40944
      H   29    0.09649      0.00000     0.40234    0.00117     0.40351
      H   30    0.07992      0.00000     0.41841    0.00167     0.42008
      H   31    0.07991      0.00000     0.41841    0.00167     0.42009
      H   32    0.08691      0.00000     0.41228    0.00081     0.41309
 =======================================================================
   * Total *    0.00001     20.99269    44.77811    0.22918    65.99999

 Normal termination of Gaussian 16 at Sun Dec 13 13:15:24 2020.
