 Gaussian 16, Revision A.03,

 -----------------------------------------------------------
 # opt freq B3LYP/6-31G(d) empiricaldispersion=gd3bj scf=xqc
 -----------------------------------------------------------

 ------------------------------
 CID_60666911_JID_5698_neutraal
 ------------------------------
 Symbolic Z-matrix:
 Charge =  0 Multiplicity = 1

 SCF Done:  E(RB3LYP) =  -708.661135768     A.U. after   15 cycles
 SCF Done:  E(RB3LYP) =  -708.665993621     A.U. after   12 cycles
 SCF Done:  E(RB3LYP) =  -708.664096706     A.U. after   12 cycles
 SCF Done:  E(RB3LYP) =  -708.666650088     A.U. after   12 cycles
 SCF Done:  E(RB3LYP) =  -708.666795143     A.U. after   11 cycles
 SCF Done:  E(RB3LYP) =  -708.666988769     A.U. after   12 cycles
 SCF Done:  E(RB3LYP) =  -708.667284867     A.U. after   13 cycles
 SCF Done:  E(RB3LYP) =  -708.667761168     A.U. after   12 cycles
 SCF Done:  E(RB3LYP) =  -708.668913673     A.U. after   13 cycles
 SCF Done:  E(RB3LYP) =  -708.669855211     A.U. after   13 cycles
 SCF Done:  E(RB3LYP) =  -708.673918889     A.U. after    9 cycles
 SCF Done:  E(RB3LYP) =  -708.673920464     A.U. after   10 cycles
 SCF Done:  E(RB3LYP) =  -708.673920702     A.U. after    8 cycles
 SCF Done:  E(RB3LYP) =  -708.673920739     A.U. after    8 cycles
 SCF Done:  E(RB3LYP) =  -708.673920763     A.U. after    7 cycles
 Optimization completed.
    -- Stationary point found.
 Normal termination of Gaussian 16 at Thu Dec 10 16:45:50 2020.

 --------------------------------------------------------------------
 #N Geom=AllCheck Guess=TCheck SCRF=Check GenChk RB3LYP/6-31G(d) Freq
 --------------------------------------------------------------------

 Structure from the checkpoint file:  "JID_5698.chk"
 ------------------------------
 CID_60666911_JID_5698_neutraal
 ------------------------------
 Charge =  0 Multiplicity = 1

 SCF Done:  E(RB3LYP) =  -708.673920763     A.U. after    1 cycles

  Exact polarizability: 176.538  -3.535 136.587  -7.671   2.931  76.800
 Approx polarizability: 236.396  -1.140 225.233 -15.669   6.948 113.428

                      1                      2                      3
                      A                      A                      A
 Frequencies --     32.7302                50.7628                59.6484
 Red. masses --      4.7339                 4.2370                 5.0483
 Frc consts  --      0.0030                 0.0064                 0.0106
 IR Inten    --      0.4731                 0.6060                 0.1795

                      4                      5                      6
                      A                      A                      A
 Frequencies --     98.7952               106.0409               129.4572
 Red. masses --      3.7547                 3.1361                 1.3966
 Frc consts  --      0.0216                 0.0208                 0.0138
 IR Inten    --      2.0886                 3.2065                 1.3498

                      7                      8                      9
                      A                      A                      A
 Frequencies --    143.9956               178.3336               192.5737
 Red. masses --      1.9400                 2.8714                 4.7531
 Frc consts  --      0.0237                 0.0538                 0.1039
 IR Inten    --      1.7468                 3.1615                 2.0035

                     10                     11                     12
                      A                      A                      A
 Frequencies --    212.1792               238.8480               254.1215
 Red. masses --      3.3401                 1.0912                 3.5689
 Frc consts  --      0.0886                 0.0367                 0.1358
 IR Inten    --      0.8456                 0.3724                 4.0222

                     13                     14                     15
                      A                      A                      A
 Frequencies --    294.2048               308.7558               339.3302
 Red. masses --      4.1075                 5.6179                 4.1017
 Frc consts  --      0.2095                 0.3155                 0.2783
 IR Inten    --      1.3113                11.1125                28.6621

                     16                     17                     18
                      A                      A                      A
 Frequencies --    380.8023               419.3734               431.7476
 Red. masses --      1.2028                 4.4213                 3.5424
 Frc consts  --      0.1028                 0.4581                 0.3891
 IR Inten    --    132.4380                 7.0827                 4.5593

                     19                     20                     21
                      A                      A                      A
 Frequencies --    459.5697               505.1402               556.5959
 Red. masses --      3.0236                 1.6821                 3.6590
 Frc consts  --      0.3762                 0.2529                 0.6679
 IR Inten    --      9.4568                65.9794                 1.9702

                     22                     23                     24
                      A                      A                      A
 Frequencies --    574.7662               603.7405               616.0124
 Red. masses --      4.0408                 3.0150                 5.8272
 Frc consts  --      0.7865                 0.6475                 1.3028
 IR Inten    --     21.2715                26.6172                 7.1823

                     25                     26                     27
                      A                      A                      A
 Frequencies --    683.1331               729.2403               758.8393
 Red. masses --      3.9452                 2.9529                 3.8315
 Frc consts  --      1.0848                 0.9252                 1.2999
 IR Inten    --      2.9882                 2.2291                20.4033

                     28                     29                     30
                      A                      A                      A
 Frequencies --    765.1313               807.1506               853.3516
 Red. masses --      1.4534                 4.2040                 1.4511
 Frc consts  --      0.5013                 1.6137                 0.6226
 IR Inten    --     36.2182                 5.3667                 1.6387

                     31                     32                     33
                      A                      A                      A
 Frequencies --    860.5856               875.0355               938.3073
 Red. masses --      4.3322                 2.3829                 1.3098
 Frc consts  --      1.8904                 1.0750                 0.6795
 IR Inten    --      6.3015                 6.2674                 3.0157

                     34                     35                     36
                      A                      A                      A
 Frequencies --    964.1252               970.7212              1006.8105
 Red. masses --      2.5741                 1.2565                 1.5497
 Frc consts  --      1.4098                 0.6976                 0.9256
 IR Inten    --      9.8905                 1.2014                35.0677

                     37                     38                     39
                      A                      A                      A
 Frequencies --   1023.0259              1072.6933              1086.2343
 Red. masses --      4.5356                 3.9277                 2.3363
 Frc consts  --      2.7968                 2.6628                 1.6242
 IR Inten    --     12.2992                50.3261                12.6201

                     40                     41                     42
                      A                      A                      A
 Frequencies --   1099.2759              1119.9243              1137.2763
 Red. masses --      1.9063                 2.4430                 2.1165
 Frc consts  --      1.3573                 1.8053                 1.6129
 IR Inten    --     10.0269                13.4677                38.0343

                     43                     44                     45
                      A                      A                      A
 Frequencies --   1186.0906              1193.9782              1203.7102
 Red. masses --      1.2743                 1.3171                 1.8424
 Frc consts  --      1.0562                 1.1063                 1.5728
 IR Inten    --      1.2131                22.9959                83.7782

                     46                     47                     48
                      A                      A                      A
 Frequencies --   1215.4261              1221.6440              1226.9457
 Red. masses --      1.9369                 1.5246                 1.1727
 Frc consts  --      1.6859                 1.3406                 1.0401
 IR Inten    --      7.7601                 2.3956                12.3314

                     49                     50                     51
                      A                      A                      A
 Frequencies --   1269.1700              1295.7245              1334.3534
 Red. masses --      2.4663                 2.0331                 2.3138
 Frc consts  --      2.3407                 2.0111                 2.4272
 IR Inten    --    351.5261                 3.4197                30.4029

                     52                     53                     54
                      A                      A                      A
 Frequencies --   1358.1380              1360.7167              1383.1187
 Red. masses --      2.1760                 1.5580                 1.7267
 Frc consts  --      2.3648                 1.6996                 1.9462
 IR Inten    --    188.5139                46.9926                41.9060

                     55                     56                     57
                      A                      A                      A
 Frequencies --   1411.7219              1433.7279              1439.2205
 Red. masses --      1.3377                 1.2422                 1.4189
 Frc consts  --      1.5708                 1.5045                 1.7316
 IR Inten    --     40.7885                 8.8855                38.3824

                     58                     59                     60
                      A                      A                      A
 Frequencies --   1494.0530              1500.1055              1512.7594
 Red. masses --      1.2332                 1.6379                 1.8619
 Frc consts  --      1.6219                 2.1716                 2.5104
 IR Inten    --     17.2104                22.0200                14.9366

                     61                     62                     63
                      A                      A                      A
 Frequencies --   1513.3651              1523.4341              1526.6204
 Red. masses --      1.0476                 1.0546                 1.1649
 Frc consts  --      1.4137                 1.4420                 1.5995
 IR Inten    --      6.7742                14.9666                23.5351

                     64                     65                     66
                      A                      A                      A
 Frequencies --   1532.3472              1537.9597              1572.5938
 Red. masses --      1.1812                 1.1254                 1.9001
 Frc consts  --      1.6341                 1.5684                 2.7686
 IR Inten    --     21.9243                 1.7099               158.2980

                     67                     68                     69
                      A                      A                      A
 Frequencies --   1644.8721              1669.2064              1817.2218
 Red. masses --      4.8276                 5.9524                10.6664
 Frc consts  --      7.6957                 9.7715                20.7531
 IR Inten    --     42.1540                69.8982               180.7849

                     70                     71                     72
                      A                      A                      A
 Frequencies --   2983.0477              2988.4605              3048.6853
 Red. masses --      1.0699                 1.0812                 1.0918
 Frc consts  --      5.6094                 5.6892                 5.9791
 IR Inten    --     44.8795                32.4243                28.0177

                     73                     74                     75
                      A                      A                      A
 Frequencies --   3071.0809              3080.9657              3144.5946
 Red. masses --      1.0344                 1.0294                 1.1029
 Frc consts  --      5.7482                 5.7573                 6.4257
 IR Inten    --     15.4145                31.3004                14.5344

                     76                     77                     78
                      A                      A                      A
 Frequencies --   3156.4575              3157.9581              3183.4877
 Red. masses --      1.1041                 1.1079                 1.0856
 Frc consts  --      6.4811                 6.5097                 6.4824
 IR Inten    --     25.9381                17.8237                 5.2401

                     79                     80                     81
                      A                      A                      A
 Frequencies --   3190.7649              3199.1121              3211.5644
 Red. masses --      1.1075                 1.0891                 1.0922
 Frc consts  --      6.6432                 6.5669                 6.6371
 IR Inten    --     14.7649                15.5446                34.8280

                     82                     83                     84
                      A                      A                      A
 Frequencies --   3217.6268              3577.5292              3731.5756
 Red. masses --      1.0944                 1.0754                 1.0659
 Frc consts  --      6.6756                 8.1091                 8.7449
 IR Inten    --     12.2984                83.6949                11.8936

 - Thermochemistry -
 -------------------
 Temperature   298.150 Kelvin.  Pressure   1.00000 Atm.
 Atom     1 has atomic number  6 and mass  12.00000

 Molecular mass:   209.10519 amu.
 Principal axes and moments of inertia in atomic units:
                           1         2         3
     Eigenvalues --  1695.320805826.294767060.27792
           X            1.00000   0.00003  -0.00069
           Y           -0.00003   0.99998  -0.00649
           Z            0.00069   0.00649   0.99998
 This molecule is an asymmetric top.
 Rotational symmetry number  1.
 Warning -- assumption of classical behavior for rotation
           may cause significant error
 Rotational temperatures (Kelvin)      0.05109     0.01487     0.01227
 Rotational constants (GHZ):           1.06454     0.30976     0.25562
 Zero-point vibrational energy     659498.4 (Joules/Mol)
                                  157.62390 (Kcal/Mol)
 Warning -- explicit consideration of  24 degrees of freedom as
           vibrations may cause significant error
 Vibrational temperatures:     47.09    73.04    85.82   142.14   152.57
          (Kelvin)            186.26   207.18   256.58   277.07   305.28
                              343.65   365.62   423.30   444.23   488.22
                              547.89   603.38   621.19   661.22   726.78
                              800.82   826.96   868.65   886.30   982.88
                             1049.21  1091.80  1100.85  1161.31  1227.78
                             1238.19  1258.98  1350.01  1387.16  1396.65
                             1448.58  1471.91  1543.37  1562.85  1581.61
                             1611.32  1636.29  1706.52  1717.87  1731.87
                             1748.73  1757.67  1765.30  1826.05  1864.26
                             1919.84  1954.06  1957.77  1990.00  2031.15
                             2062.81  2070.72  2149.61  2158.32  2176.52
                             2177.39  2191.88  2196.47  2204.71  2212.78
                             2262.61  2366.60  2401.62  2614.58  4291.94
                             4299.73  4386.38  4418.60  4432.82  4524.37
                             4541.44  4543.60  4580.33  4590.80  4602.81
                             4620.72  4629.45  5147.27  5368.90

 Zero-point correction=                           0.251190 (Hartree/Particle)
 Thermal correction to Energy=                    0.266494
 Thermal correction to Enthalpy=                  0.267438
 Thermal correction to Gibbs Free Energy=         0.207903
 Sum of electronic and zero-point Energies=           -708.422731
 Sum of electronic and thermal Energies=              -708.407427
 Sum of electronic and thermal Enthalpies=            -708.406483
 Sum of electronic and thermal Free Energies=         -708.466018

                     E (Thermal)             CV                S
                      KCal/Mol        Cal/Mol-Kelvin    Cal/Mol-Kelvin
 Total                  167.227             56.568            125.303
 Electronic               0.000              0.000              0.000
 Translational            0.889              2.981             41.917
 Rotational               0.889              2.981             32.611
 Vibrational            165.450             50.606             50.775
 Vibration     1          0.594              1.983              5.657
 Vibration     2          0.595              1.977              4.787
 Vibration     3          0.597              1.974              4.469
 Vibration     4          0.604              1.950              3.478
 Vibration     5          0.605              1.944              3.340
 Vibration     6          0.612              1.924              2.954
 Vibration     7          0.616              1.909              2.750
 Vibration     8          0.629              1.869              2.346
 Vibration     9          0.635              1.850              2.203
 Vibration    10          0.643              1.822              2.025
 Vibration    11          0.657              1.781              1.811
 Vibration    12          0.665              1.756              1.702
 Vibration    13          0.689              1.685              1.450
 Vibration    14          0.698              1.657              1.369
 Vibration    15          0.719              1.597              1.215
 Vibration    16          0.751              1.511              1.036
 Vibration    17          0.782              1.428              0.894
 Vibration    18          0.793              1.401              0.853
 Vibration    19          0.817              1.340              0.767
 Vibration    20          0.860              1.239              0.645
 Vibration    21          0.912              1.125              0.531
 Vibration    22          0.931              1.086              0.495
 Vibration    23          0.962              1.024              0.443
 Vibration    24          0.976              0.998              0.423

 Optimization completed.
    -- Stationary point found.
 Normal termination of Gaussian 16 at Thu Dec 10 16:55:30 2020.

 ----------------------------------------------------------------------
 # B3LYP/6-311++G(d,p) empiricaldispersion=gd3bj scf=xqc pop=npa geom=c
 heck
 ----------------------------------------------------------------------

 --------------------------------------
 CID_60666911_JID_5698_Energie_neutraal
 --------------------------------------
 Structure from the checkpoint file:  "JID_5698.chk"
 Charge =  0 Multiplicity = 1

 SCF Done:  E(RB3LYP) =  -708.887269525     A.U. after   15 cycles
 Normal termination of Gaussian 16 at Thu Dec 10 17:00:48 2020.

 ----------------------------------------------------------------------
 # B3LYP/6-311++G(d,p) empiricaldispersion=gd3bj scf=xqc pop=npa geom=c
 heck
 ----------------------------------------------------------------------

 ------------------------------------
 CID_60666911_JID_5698_Energie_kation
 ------------------------------------
 Structure from the checkpoint file:  "JID_5698.chk"
 Charge =  1 Multiplicity = 2

 SCF Done:  E(UB3LYP) =  -708.613543425     A.U. after   23 cycles
 Normal termination of Gaussian 16 at Thu Dec 10 17:11:15 2020.
 Gaussian 16:  ES64L-G16RevA.03 25-Dec-2016

 ----------------------------------------------------------------------
 # B3LYP/6-311++G(d,p) empiricaldispersion=gd3bj scf=xqc pop=npa geom=c
 heck
 ----------------------------------------------------------------------

 -----------------------------------
 CID_60666911_JID_5698_Energie_anion
 -----------------------------------
 Structure from the checkpoint file:  "JID_5698.chk"
 Charge = -1 Multiplicity = 2

                         Standard orientation:
 ---------------------------------------------------------------------
 Center     Atomic      Atomic             Coordinates (Angstroms)
 Number     Number       Type             X           Y           Z
 ---------------------------------------------------------------------
      1          6           0       -1.750729   -1.391962    1.517710
      2          6           0       -1.446682   -0.650611    0.203725
      3          6           0       -2.585826    0.291568   -0.169535
      4          8           0       -2.457281    1.481567   -0.372975
      5          8           0       -3.755537   -0.361110   -0.251514
      6          6           0       -4.891198    0.450490   -0.602338
      7          7           0       -0.238010    0.140045    0.287565
      8          6           0        1.019713   -0.393780    0.014705
      9          6           0        1.232783   -1.772045   -0.152073
     10          6           0        2.509948   -2.266814   -0.417780
     11          6           0        3.595643   -1.403211   -0.527397
     12          6           0        3.390066   -0.032771   -0.350881
     13          6           0        2.129132    0.483658   -0.066043
     14          6           0        1.933886    1.968934    0.165035
     15          8           0        3.143988    2.688166    0.348792
     16          1           0       -1.908199   -0.670442    2.325266
     17          1           0       -0.899216   -2.020930    1.789943
     18          1           0       -2.640199   -2.019140    1.416724
     19          1           0       -1.383156   -1.389148   -0.612368
     20          1           0       -5.042864    1.234206    0.143757
     21          1           0       -4.740253    0.912369   -1.581038
     22          1           0       -5.740102   -0.232286   -0.623843
     23          1           0       -0.395679    1.096625   -0.005150
     24          1           0        0.404178   -2.466975   -0.074309
     25          1           0        2.646000   -3.337607   -0.543939
     26          1           0        4.588709   -1.785065   -0.743684
     27          1           0        4.219106    0.662937   -0.435538
     28          1           0        1.451120    2.440219   -0.702009
     29          1           0        1.255003    2.117987    1.021370
     30          1           0        3.581840    2.307233    1.126661
 ---------------------------------------------------------------------

 SCF Done:  E(UB3LYP) =  -708.876045298     A.U. after   33 cycles
 SCF Done:  E(UB3LYP) =  -708.876045298     a.u. after    1 cycles

 The electronic state is 2-A.
 Alpha  occ. eigenvalues --  -19.08181 -19.04065 -19.02846 -14.23178 -10.21348
 Alpha  occ. eigenvalues --  -10.13503 -10.13379 -10.12896 -10.12453 -10.08544
 Alpha  occ. eigenvalues --  -10.08143 -10.07999 -10.07616 -10.07361 -10.07321
 Alpha  occ. eigenvalues --   -1.02426  -0.94281  -0.93809  -0.85227  -0.75792
 Alpha  occ. eigenvalues --   -0.69705  -0.67066  -0.64221  -0.62684  -0.59258
 Alpha  occ. eigenvalues --   -0.55871  -0.51226  -0.50468  -0.47159  -0.45483
 Alpha  occ. eigenvalues --   -0.43383  -0.41695  -0.40682  -0.39500  -0.37972
 Alpha  occ. eigenvalues --   -0.37837  -0.36215  -0.35361  -0.34519  -0.33934
 Alpha  occ. eigenvalues --   -0.32663  -0.31926  -0.30531  -0.29401  -0.29221
 Alpha  occ. eigenvalues --   -0.27763  -0.27217  -0.26614  -0.26223  -0.24490
 Alpha  occ. eigenvalues --   -0.22440  -0.21061  -0.19921  -0.19787  -0.15849
 Alpha  occ. eigenvalues --   -0.11475   0.04110
 Alpha virt. eigenvalues --    0.05658   0.06549   0.07234   0.07556   0.08499
 Alpha virt. eigenvalues --    0.08679   0.08827   0.09232   0.09304   0.10061
 Alpha virt. eigenvalues --    0.10459   0.10580   0.11836   0.11907   0.12560

  Beta  occ. eigenvalues --  -19.08168 -19.04040 -19.02808 -14.23180 -10.21311
  Beta  occ. eigenvalues --  -10.13495 -10.13373 -10.12838 -10.12443 -10.08541
  Beta  occ. eigenvalues --  -10.08132 -10.07993 -10.07602 -10.07346 -10.07287
  Beta  occ. eigenvalues --   -1.02376  -0.94225  -0.93754  -0.85215  -0.75769
  Beta  occ. eigenvalues --   -0.69661  -0.67031  -0.64175  -0.62622  -0.59220
  Beta  occ. eigenvalues --   -0.55804  -0.51184  -0.50426  -0.47098  -0.45455
  Beta  occ. eigenvalues --   -0.43344  -0.41649  -0.40599  -0.39424  -0.37937
  Beta  occ. eigenvalues --   -0.37801  -0.36181  -0.35332  -0.34480  -0.33896
  Beta  occ. eigenvalues --   -0.32615  -0.31875  -0.30481  -0.29336  -0.29168
  Beta  occ. eigenvalues --   -0.27712  -0.27181  -0.26578  -0.26181  -0.24465
  Beta  occ. eigenvalues --   -0.22341  -0.21020  -0.19882  -0.19759  -0.15821
  Beta  occ. eigenvalues --   -0.11442
  Beta virt. eigenvalues --    0.06042   0.06827   0.07072   0.07616   0.07706
  Beta virt. eigenvalues --    0.08795   0.09119   0.09192   0.09440   0.09590
  Beta virt. eigenvalues --    0.10624   0.10868   0.10956   0.12132   0.12205

 Mulliken charges and spin densities:
               1          2
     1  C    1.109870  -1.485585
     2  C    0.919428  -1.382706
     3  C   -1.838632   1.999475
     4  O   -0.257713   0.003822
     5  O   -0.134153   0.109074
     6  C    1.184568  -1.379594
     7  N    0.117548   0.012912
     8  C   -1.593145   1.282670
     9  C    0.156565  -0.231944
    10  C    0.881391  -1.187570
    11  C   -0.282168  -0.219315
    12  C    0.120385  -0.379684
    13  C   -0.252585   0.745424
    14  C    0.776647  -1.318079
    15  O   -0.255425  -0.001334
    16  H   -0.092688   0.256317
    17  H   -0.166501   0.323285
    18  H   -0.096957   0.257834
    19  H   -0.211410   0.457507
    20  H   -0.364645   0.544556
    21  H   -0.279040   0.450135
    22  H   -0.750572   0.919030
    23  H    0.463365  -0.167046
    24  H   -0.036795   0.196409
    25  H   -0.194283   0.352582
    26  H   -0.059566   0.192952
    27  H   -0.017004   0.160200
    28  H    0.103087   0.108959
    29  H    0.048669   0.140823
    30  H    0.001759   0.238891
 Sum of Mulliken charges =  -1.00000   1.00000

 Dipole moment (field-independent basis, Debye):
    X=              5.8926    Y=              0.4970    Z=              0.0837  Tot=              5.9141
 Quadrupole moment (field-independent basis, Debye-Ang):
   XX=           -192.8127   YY=           -136.0765   ZZ=           -117.8434
   XY=             -5.4436   XZ=             -2.6717   YZ=              0.9793

 Summary of Natural Population Analysis:

                                       Natural Population
                Natural  -----------------------------------------------
    Atom  No    Charge         Core      Valence    Rydberg      Total
 -----------------------------------------------------------------------
      C    1   -0.28419      0.99964     2.27833    0.00622     3.28419
      C    2   -0.05488      0.99957     2.04250    0.01280     3.05488
      C    3    0.41942      0.99966     1.55608    0.02484     2.58058
      O    4   -0.30916      0.99987     3.30377    0.00552     4.30916
      O    5   -0.27366      0.99986     3.26385    0.00995     4.27366
      C    6   -0.10279      0.99959     2.09422    0.00898     3.10279
      N    7   -0.32125      0.99966     2.81022    0.01137     3.82125
      C    8    0.09651      0.99946     1.89350    0.01053     2.90349
      C    9   -0.13283      0.99953     2.12415    0.00915     3.13283
      C   10   -0.09208      0.99957     2.08309    0.00942     3.09208
      C   11   -0.12238      0.99956     2.11235    0.01047     3.12238
      C   12   -0.09938      0.99952     2.09048    0.00938     3.09938
      C   13   -0.05163      0.99948     2.04218    0.00997     3.05163
      C   14   -0.01806      0.99955     2.00684    0.01167     3.01806
      O   15   -0.36441      0.99990     3.35845    0.00605     4.36441
      H   16    0.10169      0.00000     0.39684    0.00147     0.39831
      H   17    0.10350      0.00000     0.39508    0.00143     0.39650
      H   18    0.10797      0.00000     0.39054    0.00149     0.39203
      H   19    0.10541      0.00000     0.39185    0.00274     0.39459
      H   20    0.09348      0.00000     0.40465    0.00186     0.40652
      H   21    0.09160      0.00000     0.40703    0.00137     0.40840
      H   22    0.09697      0.00000     0.40000    0.00303     0.40303
      H   23    0.20069      0.00000     0.29585    0.00346     0.29931
      H   24    0.10369      0.00000     0.39466    0.00165     0.39631
      H   25    0.09924      0.00000     0.39984    0.00092     0.40076
      H   26    0.09805      0.00000     0.40116    0.00079     0.40195
      H   27    0.10489      0.00000     0.39390    0.00121     0.39511
      H   28    0.09110      0.00000     0.40721    0.00169     0.40890
      H   29    0.08454      0.00000     0.41350    0.00196     0.41546
      H   30    0.22796      0.00000     0.26839    0.00365     0.27204
 =======================================================================
   * Total *   -0.00000     14.99442    40.82052    0.18505    56.00000

 Normal termination of Gaussian 16 at Thu Dec 10 17:25:32 2020.
