 Gaussian 16, Revision A.03,

 -----------------------------------------------------------
 # opt freq B3LYP/6-31G(d) empiricaldispersion=gd3bj scf=xqc
 -----------------------------------------------------------

 -------------------------------
 CID_143646716_JID_3237_neutraal
 -------------------------------
 Symbolic Z-matrix:
 Charge =  0 Multiplicity = 1

 SCF Done:  E(RB3LYP) =  -895.919095527     A.U. after   17 cycles
 SCF Done:  E(RB3LYP) =  -895.942717348     A.U. after   13 cycles
 SCF Done:  E(RB3LYP) =  -895.948875754     A.U. after   13 cycles
 SCF Done:  E(RB3LYP) =  -895.949814749     A.U. after   12 cycles
 SCF Done:  E(RB3LYP) =  -895.950202950     A.U. after   12 cycles
 SCF Done:  E(RB3LYP) =  -895.950312053     A.U. after   12 cycles
 SCF Done:  E(RB3LYP) =  -895.950347923     A.U. after   11 cycles
 SCF Done:  E(RB3LYP) =  -895.950365574     A.U. after    9 cycles
 SCF Done:  E(RB3LYP) =  -895.950368622     A.U. after    9 cycles
 SCF Done:  E(RB3LYP) =  -895.950370229     A.U. after    8 cycles
 SCF Done:  E(RB3LYP) =  -895.950370785     A.U. after    8 cycles
 Optimization completed.
    -- Stationary point found.
 Normal termination of Gaussian 16 at Wed Dec  9 22:28:31 2020.

 --------------------------------------------------------------------
 #N Geom=AllCheck Guess=TCheck SCRF=Check GenChk RB3LYP/6-31G(d) Freq
 --------------------------------------------------------------------

 Structure from the checkpoint file:  "JID_3237.chk"
 -------------------------------
 CID_143646716_JID_3237_neutraal
 -------------------------------
 Charge =  0 Multiplicity = 1

 SCF Done:  E(RB3LYP) =  -895.950370785     A.U. after    1 cycles

  Exact polarizability: 213.838  -4.643 121.861   0.347  -1.301  79.665
 Approx polarizability: 322.469 -17.225 232.374  -2.593  -3.326 126.748

                      1                      2                      3
                      A                      A                      A
 Frequencies --     72.7626               105.5015               174.7410
 Red. masses --      3.9483                 4.5416                 3.4572
 Frc consts  --      0.0123                 0.0298                 0.0622
 IR Inten    --      1.7515                 0.9472                 2.1899

                      4                      5                      6
                      A                      A                      A
 Frequencies --    209.5612               228.3361               235.7961
 Red. masses --      3.6173                 1.4929                 1.6044
 Frc consts  --      0.0936                 0.0459                 0.0526
 IR Inten    --      1.3631                 4.1354                 1.7816

                      7                      8                      9
                      A                      A                      A
 Frequencies --    259.9444               285.4591               290.9895
 Red. masses --      1.3318                 2.8381                 3.1558
 Frc consts  --      0.0530                 0.1363                 0.1574
 IR Inten    --      1.4528                 0.8577                 3.9161

                     10                     11                     12
                      A                      A                      A
 Frequencies --    316.3908               331.7095               354.6866
 Red. masses --      1.3352                 1.7976                 2.5912
 Frc consts  --      0.0788                 0.1165                 0.1921
 IR Inten    --     33.0048                17.8772                 1.5283

                     13                     14                     15
                      A                      A                      A
 Frequencies --    402.4674               433.0230               466.3438
 Red. masses --      3.3659                 4.1844                 2.9538
 Frc consts  --      0.3212                 0.4623                 0.3785
 IR Inten    --      1.3389                 1.2986                 2.7321

                     16                     17                     18
                      A                      A                      A
 Frequencies --    496.8893               514.8368               535.2034
 Red. masses --      4.4549                 3.5552                 3.3181
 Frc consts  --      0.6481                 0.5552                 0.5600
 IR Inten    --     34.9427                32.8392               114.9694

                     19                     20                     21
                      A                      A                      A
 Frequencies --    578.0633               605.9915               646.1174
 Red. masses --      2.4730                 6.5549                 5.1353
 Frc consts  --      0.4869                 1.4182                 1.2631
 IR Inten    --     86.2990                 0.6857                55.5969

                     22                     23                     24
                      A                      A                      A
 Frequencies --    647.3136               657.7924               712.0370
 Red. masses --      2.8297                 5.8735                 4.8112
 Frc consts  --      0.6986                 1.4974                 1.4372
 IR Inten    --    129.4026                10.5014                12.9700

                     25                     26                     27
                      A                      A                      A
 Frequencies --    751.0673               767.4596               801.9981
 Red. masses --      2.3447                 1.9328                 2.8148
 Frc consts  --      0.7793                 0.6707                 1.0667
 IR Inten    --     30.8071                17.3677                 3.5205

                     28                     29                     30
                      A                      A                      A
 Frequencies --    858.1658               889.8937               959.1105
 Red. masses --      3.3454                 2.4632                 1.4916
 Frc consts  --      1.4516                 1.1493                 0.8084
 IR Inten    --     38.7310                16.2451                 0.9979

                     31                     32                     33
                      A                      A                      A
 Frequencies --    967.7362               988.4387              1009.1994
 Red. masses --      1.4418                 2.2451                 2.2119
 Frc consts  --      0.7956                 1.2923                 1.3273
 IR Inten    --      9.9669                40.6196                 5.3920

                     34                     35                     36
                      A                      A                      A
 Frequencies --   1034.7169              1046.6733              1110.4058
 Red. masses --      1.2534                 1.3948                 2.2537
 Frc consts  --      0.7907                 0.9003                 1.6372
 IR Inten    --      7.2736                11.3754                19.1555

                     37                     38                     39
                      A                      A                      A
 Frequencies --   1155.3074              1180.6635              1206.5142
 Red. masses --      3.0270                 2.3128                 2.2718
 Frc consts  --      2.3805                 1.8995                 1.9484
 IR Inten    --      3.2091                 3.5383                31.6448

                     40                     41                     42
                      A                      A                      A
 Frequencies --   1251.9449              1277.8190              1314.0809
 Red. masses --      1.7830                 1.5676                 2.0248
 Frc consts  --      1.6465                 1.5081                 2.0601
 IR Inten    --      5.5348                 6.4866                 8.6366

                     43                     44                     45
                      A                      A                      A
 Frequencies --   1334.2141              1393.6702              1412.5430
 Red. masses --      2.5212                 1.2479                 5.1489
 Frc consts  --      2.6443                 1.4280                 6.0530
 IR Inten    --     42.0592                 1.6040               164.5438

                     46                     47                     48
                      A                      A                      A
 Frequencies --   1423.9418              1426.4805              1448.2415
 Red. masses --      1.2827                 1.4678                 1.2646
 Frc consts  --      1.5324                 1.7598                 1.5627
 IR Inten    --     16.1168                16.9496                 4.0143

                     49                     50                     51
                      A                      A                      A
 Frequencies --   1489.7505              1514.6681              1518.2388
 Red. masses --      6.9299                 1.0510                 1.0491
 Frc consts  --      9.0616                 1.4207                 1.4248
 IR Inten    --     56.8649                 2.3086                 1.9058

                     52                     53                     54
                      A                      A                      A
 Frequencies --   1530.3642              1539.8017              1580.2848
 Red. masses --      1.0584                 1.0551                 3.8795
 Frc consts  --      1.4605                 1.4740                 5.7081
 IR Inten    --      2.3769                 5.2100               219.4063

                     55                     56                     57
                      A                      A                      A
 Frequencies --   1638.7473              1656.0768              1674.6552
 Red. masses --      5.4313                 4.5196                 1.4695
 Frc consts  --      8.5936                 7.3031                 2.4282
 IR Inten    --     11.2593                17.5562               215.6164

                     58                     59                     60
                      A                      A                      A
 Frequencies --   3044.2280              3053.5960              3111.2267
 Red. masses --      1.0346                 1.0356                 1.1028
 Frc consts  --      5.6489                 5.6894                 6.2895
 IR Inten    --     31.3743                37.6608                 7.3077

                     61                     62                     63
                      A                      A                      A
 Frequencies --   3117.6575              3118.8747              3122.9022
 Red. masses --      1.1015                 1.0972                 1.0917
 Frc consts  --      6.3081                 6.2882                 6.2727
 IR Inten    --     26.3508                10.1777                38.2539

                     64                     65                     66
                      A                      A                      A
 Frequencies --   3123.8184              3135.4573              3153.5223
 Red. masses --      1.0856                 1.1010                 1.0900
 Frc consts  --      6.2417                 6.3772                 6.3868
 IR Inten    --     15.7929                25.4364                30.2690

                     67                     68                     69
                      A                      A                      A
 Frequencies --   3157.4531              3555.1139              3664.3311
 Red. masses --      1.0882                 1.0468                 1.1000
 Frc consts  --      6.3920                 7.7949                 8.7021
 IR Inten    --     17.9447                50.9700                26.4664

 - Thermochemistry -
 -------------------
 Temperature   298.150 Kelvin.  Pressure   1.00000 Atm.
 Atom     1 has atomic number  6 and mass  12.00000

 Molecular mass:   192.07212 amu.
 Principal axes and moments of inertia in atomic units:
                           1         2         3
     Eigenvalues --   924.759134421.601094927.15181
           X            0.99999  -0.00525  -0.00146
           Y            0.00527   0.99980   0.01908
           Z            0.00136  -0.01909   0.99982
 This molecule is an asymmetric top.
 Rotational symmetry number  1.
 Warning -- assumption of classical behavior for rotation
           may cause significant error
 Rotational temperatures (Kelvin)      0.09366     0.01959     0.01758
 Rotational constants (GHZ):           1.95158     0.40816     0.36628
 Zero-point vibrational energy     532774.9 (Joules/Mol)
                                  127.33626 (Kcal/Mol)
 Warning -- explicit consideration of  20 degrees of freedom as
           vibrations may cause significant error
 Vibrational temperatures:    104.69   151.79   251.41   301.51   328.52
          (Kelvin)            339.26   374.00   410.71   418.67   455.22
                              477.26   510.31   579.06   623.02   670.96
                              714.91   740.74   770.04   831.70   871.89
                              929.62   931.34   946.42  1024.46  1080.62
                             1104.20  1153.90  1234.71  1280.36  1379.95
                             1392.36  1422.14  1452.01  1488.73  1505.93
                             1597.63  1662.23  1698.71  1735.90  1801.27
                             1838.50  1890.67  1919.64  2005.18  2032.33
                             2048.73  2052.39  2083.70  2143.42  2179.27
                             2184.41  2201.85  2215.43  2273.68  2357.79
                             2382.73  2409.46  4379.97  4393.44  4476.36
                             4485.61  4487.37  4493.16  4494.48  4511.22
                             4537.22  4542.87  5115.02  5272.16

 Zero-point correction=                           0.202923 (Hartree/Particle)
 Thermal correction to Energy=                    0.215029
 Thermal correction to Enthalpy=                  0.215973
 Thermal correction to Gibbs Free Energy=         0.165721
 Sum of electronic and zero-point Energies=           -895.747448
 Sum of electronic and thermal Energies=              -895.735341
 Sum of electronic and thermal Enthalpies=            -895.734397
 Sum of electronic and thermal Free Energies=         -895.784650

                     E (Thermal)             CV                S
                      KCal/Mol        Cal/Mol-Kelvin    Cal/Mol-Kelvin
 Total                  134.933             48.623            105.766
 Electronic               0.000              0.000              0.000
 Translational            0.889              2.981             41.664
 Rotational               0.889              2.981             31.377
 Vibrational            133.155             42.662             32.725
 Vibration     1          0.599              1.967              4.077
 Vibration     2          0.605              1.945              3.350
 Vibration     3          0.627              1.874              2.384
 Vibration     4          0.642              1.826              2.047
 Vibration     5          0.651              1.798              1.892
 Vibration     6          0.655              1.786              1.834
 Vibration     7          0.668              1.746              1.662
 Vibration     8          0.683              1.701              1.501
 Vibration     9          0.687              1.691              1.468
 Vibration    10          0.703              1.642              1.329
 Vibration    11          0.714              1.612              1.252
 Vibration    12          0.731              1.566              1.145
 Vibration    13          0.768              1.465              0.954
 Vibration    14          0.794              1.398              0.849
 Vibration    15          0.824              1.325              0.748
 Vibration    16          0.852              1.257              0.666
 Vibration    17          0.870              1.217              0.622
 Vibration    18          0.890              1.172              0.576
 Vibration    19          0.935              1.079              0.489
 Vibration    20          0.965              1.019              0.439

                           ! Non-Optimized Parameters !
 Normal termination of Gaussian 16 at Wed Dec  9 22:35:14 2020.

 ----------------------------------------------------------------------
 # B3LYP/6-311++G(d,p) empiricaldispersion=gd3bj scf=xqc pop=npa geom=c
 heck
 ----------------------------------------------------------------------

 ---------------------------------------
 CID_143646716_JID_3237_Energie_neutraal
 ---------------------------------------
 Structure from the checkpoint file:  "JID_3237.chk"
 Charge =  0 Multiplicity = 1

 SCF Done:  E(RB3LYP) =  -896.115296301     A.U. after   17 cycles
 Normal termination of Gaussian 16 at Wed Dec  9 22:38:47 2020.

 ----------------------------------------------------------------------
 # B3LYP/6-311++G(d,p) empiricaldispersion=gd3bj scf=xqc pop=npa geom=c
 heck
 ----------------------------------------------------------------------

 -------------------------------------
 CID_143646716_JID_3237_Energie_kation
 -------------------------------------
 Structure from the checkpoint file:  "JID_3237.chk"
 Charge =  1 Multiplicity = 2

 SCF Done:  E(UB3LYP) =  -895.847038759     A.U. after   26 cycles
 Normal termination of Gaussian 16 at Wed Dec  9 22:46:33 2020.
 Gaussian 16:  ES64L-G16RevA.03 25-Dec-2016

 ----------------------------------------------------------------------
 # B3LYP/6-311++G(d,p) empiricaldispersion=gd3bj scf=xqc pop=npa geom=c
 heck
 ----------------------------------------------------------------------

 ------------------------------------
 CID_143646716_JID_3237_Energie_anion
 ------------------------------------
 Structure from the checkpoint file:  "JID_3237.chk"
 Charge = -1 Multiplicity = 2

                         Standard orientation:
 ---------------------------------------------------------------------
 Center     Atomic      Atomic             Coordinates (Angstroms)
 Number     Number       Type             X           Y           Z
 ---------------------------------------------------------------------
      1          6           0       -3.717813    0.281545    1.155340
      2          6           0       -2.677735   -0.092244    0.086720
      3          6           0       -1.523570   -0.874668    0.644351
      4          6           0       -0.577497   -1.484840   -0.101487
      5          6           0        0.714827   -0.815543    0.034558
      6          6           0        0.593242    0.570770   -0.025895
      7          6           0       -0.570564    1.414777   -0.353528
      8          6           0       -1.905696    1.168773   -0.364282
      9         16           0        2.222538    1.265763   -0.003138
     10          6           0        2.873546   -0.383590    0.039448
     11          7           0        1.987496   -1.339588    0.040248
     12          7           0        4.225901   -0.595785    0.165502
     13          6           0       -3.372411   -0.721356   -1.132371
     14          1           0       -3.233841    0.726257    2.031454
     15          1           0       -4.267819   -0.609120    1.481057
     16          1           0       -4.442197    1.005434    0.764539
     17          1           0       -1.162004   -0.424183    1.570038
     18          1           0       -0.801941   -2.004554   -1.032208
     19          1           0       -0.287655    2.403771   -0.712553
     20          1           0       -2.537302    1.948179   -0.795006
     21          1           0        4.836337    0.063387   -0.299751
     22          1           0        4.484347   -1.564833    0.019885
     23          1           0       -3.922634   -1.621112   -0.835485
     24          1           0       -4.087029   -0.016306   -1.571637
     25          1           0       -2.650628   -0.993263   -1.907498
 ---------------------------------------------------------------------

 SCF Done:  E(UB3LYP) =  -896.116388588     A.U. after   33 cycles
 SCF Done:  E(UB3LYP) =  -896.116388588     a.u. after    1 cycles

 The electronic state is 2-A.
 Alpha  occ. eigenvalues --  -88.73300 -14.21143 -14.16702 -10.12815 -10.06252
 Alpha  occ. eigenvalues --  -10.05244 -10.05064 -10.04502 -10.04260 -10.03884
 Alpha  occ. eigenvalues --  -10.02557 -10.01534 -10.01456  -7.81965  -5.78258
 Alpha  occ. eigenvalues --   -5.77932  -5.77518  -0.84500  -0.77494  -0.71314
 Alpha  occ. eigenvalues --   -0.66421  -0.63808  -0.60685  -0.57127  -0.55826
 Alpha  occ. eigenvalues --   -0.48879  -0.47715  -0.44341  -0.41689  -0.39287
 Alpha  occ. eigenvalues --   -0.37387  -0.34727  -0.33652  -0.32294  -0.30824
 Alpha  occ. eigenvalues --   -0.29711  -0.28729  -0.28020  -0.27337  -0.25243
 Alpha  occ. eigenvalues --   -0.25049  -0.22890  -0.21961  -0.21429  -0.19646
 Alpha  occ. eigenvalues --   -0.18474  -0.15464  -0.14283  -0.13124  -0.09228
 Alpha  occ. eigenvalues --   -0.06400   0.04715
 Alpha virt. eigenvalues --    0.06733   0.08062   0.09798   0.09937   0.10349
 Alpha virt. eigenvalues --    0.10973   0.11669   0.12272   0.12918   0.13214
 Alpha virt. eigenvalues --    0.13476   0.13758   0.14227   0.14806   0.16005

  Beta  occ. eigenvalues --  -88.73276 -14.21093 -14.16770 -10.12681 -10.06261
  Beta  occ. eigenvalues --  -10.05075 -10.04881 -10.04489 -10.04218 -10.03849
  Beta  occ. eigenvalues --  -10.02271 -10.01503 -10.01176  -7.81942  -5.78251
  Beta  occ. eigenvalues --   -5.77924  -5.77435  -0.84384  -0.77398  -0.70995
  Beta  occ. eigenvalues --   -0.66209  -0.63562  -0.60382  -0.57062  -0.55458
  Beta  occ. eigenvalues --   -0.48584  -0.47283  -0.44137  -0.41512  -0.39052
  Beta  occ. eigenvalues --   -0.37200  -0.34580  -0.33516  -0.32055  -0.30637
  Beta  occ. eigenvalues --   -0.29595  -0.28420  -0.27819  -0.27261  -0.25031
  Beta  occ. eigenvalues --   -0.24938  -0.22616  -0.21681  -0.21247  -0.19138
  Beta  occ. eigenvalues --   -0.18248  -0.14971  -0.14287  -0.12446  -0.08351
  Beta  occ. eigenvalues --   -0.05231
  Beta virt. eigenvalues --    0.07772   0.07950   0.09388   0.09795   0.10168
  Beta virt. eigenvalues --    0.10747   0.11050   0.12075   0.12378   0.13090
  Beta virt. eigenvalues --    0.13337   0.13462   0.13761   0.14529   0.15074

 Mulliken charges and spin densities:
               1          2
     1  C   -0.604857   0.003922
     2  C    0.846143   0.219883
     3  C    0.187800   0.057260
     4  C   -0.826004   0.063017
     5  C   -1.106411   0.013169
     6  C    1.589215  -0.154018
     7  C   -0.460963   0.281527
     8  C   -0.705007   0.073763
     9  S   -0.632740   0.085989
    10  C    0.598196  -0.247929
    11  N    0.038566  -0.080225
    12  N   -0.320513   0.058780
    13  C   -0.597258  -0.129180
    14  H    0.121146   0.000104
    15  H    0.117645   0.012570
    16  H    0.111712  -0.001492
    17  H    0.159534  -0.016118
    18  H    0.117585   0.006413
    19  H    0.112633   0.022808
    20  H    0.111244  -0.010505
    21  H   -0.232824   0.480727
    22  H    0.086631   0.158470
    23  H    0.063552   0.075275
    24  H    0.090193   0.020856
    25  H    0.134782   0.004933
 Sum of Mulliken charges =  -1.00000   1.00000

 Dipole moment (field-independent basis, Debye):
    X=             -3.3937    Y=              1.6059    Z=             -0.5165  Tot=              3.7899
 Quadrupole moment (field-independent basis, Debye-Ang):
   XX=           -136.8538   YY=           -105.9104   ZZ=            -98.9259
   XY=             -1.1641   XZ=              1.6011   YZ=              1.9799

 Summary of Natural Population Analysis:

                                       Natural Population
                Natural  -----------------------------------------------
    Atom  No    Charge         Core      Valence    Rydberg      Total
 -----------------------------------------------------------------------
      C    1   -0.27417      0.99964     2.26907    0.00547     3.27417
      C    2   -0.08025      0.99952     2.06977    0.01096     3.08025
      C    3   -0.00429      0.99945     1.99285    0.01199     3.00429
      C    4   -0.12974      0.99942     2.11968    0.01065     3.12974
      C    5    0.08237      0.99935     1.90213    0.01614     2.91763
      C    6   -0.08649      0.99940     2.07626    0.01082     3.08649
      C    7   -0.11879      0.99951     2.10844    0.01084     3.11879
      C    8   -0.03238      0.99952     2.02263    0.01023     3.03238
      S    9    0.14653      4.99942     2.83377    0.02028     7.85347
      C   10    0.14991      0.99963     1.82880    0.02165     2.85009
      N   11   -0.28324      0.99962     2.77277    0.01085     3.78324
      N   12   -0.40492      0.99969     2.89322    0.01201     3.90492
      C   13   -0.27489      0.99963     2.26960    0.00566     3.27489
      H   14    0.09943      0.00000     0.39970    0.00087     0.40057
      H   15    0.09424      0.00000     0.40486    0.00091     0.40576
      H   16    0.09091      0.00000     0.40818    0.00091     0.40909
      H   17    0.08671      0.00000     0.41167    0.00162     0.41329
      H   18    0.09141      0.00000     0.40687    0.00173     0.40859
      H   19    0.09315      0.00000     0.40494    0.00192     0.40685
      H   20    0.08481      0.00000     0.41401    0.00118     0.41519
      H   21    0.19014      0.00000     0.30540    0.00446     0.30986
      H   22    0.19066      0.00000     0.30654    0.00280     0.30934
      H   23    0.09495      0.00000     0.40372    0.00133     0.40505
      H   24    0.09188      0.00000     0.40703    0.00109     0.40812
      H   25    0.10208      0.00000     0.39658    0.00134     0.39792
 =======================================================================
   * Total *   -0.00000     16.99381    33.82849    0.17770    51.00000

 Normal termination of Gaussian 16 at Wed Dec  9 22:56:30 2020.
