 Gaussian 16, Revision A.03,

 -----------------------------------------------------------
 # opt freq B3LYP/6-31G(d) empiricaldispersion=gd3bj scf=xqc
 -----------------------------------------------------------

 ------------------------------
 CID_11008394_JID_3220_neutraal
 ------------------------------
 Symbolic Z-matrix:
 Charge =  0 Multiplicity = 1

 SCF Done:  E(RB3LYP) =  -539.672533075     A.U. after   14 cycles
 SCF Done:  E(RB3LYP) =  -539.675057797     A.U. after   12 cycles
 SCF Done:  E(RB3LYP) =  -539.674490976     A.U. after   13 cycles
 SCF Done:  E(RB3LYP) =  -539.675350230     A.U. after   11 cycles
 SCF Done:  E(RB3LYP) =  -539.675356371     A.U. after   10 cycles
 SCF Done:  E(RB3LYP) =  -539.675360766     A.U. after   11 cycles
 SCF Done:  E(RB3LYP) =  -539.675364297     A.U. after    9 cycles
 SCF Done:  E(RB3LYP) =  -539.675368316     A.U. after   11 cycles
 SCF Done:  E(RB3LYP) =  -539.675372476     A.U. after   11 cycles
 SCF Done:  E(RB3LYP) =  -539.675373757     A.U. after   11 cycles
 SCF Done:  E(RB3LYP) =  -539.675378276     A.U. after   11 cycles
 SCF Done:  E(RB3LYP) =  -539.675379827     A.U. after   10 cycles
 SCF Done:  E(RB3LYP) =  -539.675380010     A.U. after    8 cycles
 SCF Done:  E(RB3LYP) =  -539.675380060     A.U. after    7 cycles
 SCF Done:  E(RB3LYP) =  -539.675380083     A.U. after    7 cycles
 Optimization completed.
    -- Stationary point found.
 Normal termination of Gaussian 16 at Wed Dec  9 22:30:29 2020.

 --------------------------------------------------------------------
 #N Geom=AllCheck Guess=TCheck SCRF=Check GenChk RB3LYP/6-31G(d) Freq
 --------------------------------------------------------------------

 Structure from the checkpoint file:  "JID_3220.chk"
 ------------------------------
 CID_11008394_JID_3220_neutraal
 ------------------------------
 Charge =  0 Multiplicity = 1

 SCF Done:  E(RB3LYP) =  -539.675380083     A.U. after    1 cycles

  Exact polarizability: 216.239   1.302 116.091   7.069  12.652  73.982
 Approx polarizability: 299.388  13.015 183.688  13.123  23.806 115.128

                      1                      2                      3
                      A                      A                      A
 Frequencies --      9.9554                33.5112                60.5662
 Red. masses --      3.8448                 4.1818                 3.4554
 Frc consts  --      0.0002                 0.0028                 0.0075
 IR Inten    --      0.2465                 0.3850                 0.0924

                      4                      5                      6
                      A                      A                      A
 Frequencies --     84.1973               126.6010               161.3643
 Red. masses --      3.6367                 2.0709                 4.2469
 Frc consts  --      0.0152                 0.0196                 0.0652
 IR Inten    --      0.7404                 0.2237                 3.6105

                      7                      8                      9
                      A                      A                      A
 Frequencies --    183.6703               207.7789               239.1605
 Red. masses --      2.8282                 1.3606                 2.4100
 Frc consts  --      0.0562                 0.0346                 0.0812
 IR Inten    --      0.1470                 3.2403                21.2905

                     10                     11                     12
                      A                      A                      A
 Frequencies --    284.5966               314.6760               365.2440
 Red. masses --      1.4100                 5.5211                 4.7354
 Frc consts  --      0.0673                 0.3221                 0.3722
 IR Inten    --    127.4320                 1.7010                18.0574

                     13                     14                     15
                      A                      A                      A
 Frequencies --    413.0663               414.2522               477.4047
 Red. masses --      3.1275                 4.4366                 4.1768
 Frc consts  --      0.3144                 0.4486                 0.5609
 IR Inten    --      0.4506                 3.9943                 5.4188

                     16                     17                     18
                      A                      A                      A
 Frequencies --    508.8396               544.7182               562.5855
 Red. masses --      4.4415                 3.8611                 4.5885
 Frc consts  --      0.6776                 0.6750                 0.8557
 IR Inten    --     14.7507                 7.9228                 8.4258

                     19                     20                     21
                      A                      A                      A
 Frequencies --    596.2021               638.4160               705.4620
 Red. masses --      5.9396                 6.5460                 2.0069
 Frc consts  --      1.2439                 1.5719                 0.5885
 IR Inten    --     16.4395                 0.0444                20.6592

                     22                     23                     24
                      A                      A                      A
 Frequencies --    747.3202               774.1511               822.1823
 Red. masses --      4.0699                 1.7477                 1.9080
 Frc consts  --      1.3392                 0.6171                 0.7599
 IR Inten    --      4.5198                34.2442                 2.2768

                     25                     26                     27
                      A                      A                      A
 Frequencies --    857.0255               929.8948               944.8788
 Red. masses --      1.2471                 1.3976                 1.7915
 Frc consts  --      0.5397                 0.7120                 0.9424
 IR Inten    --      0.0039                 1.8115                14.3210

                     28                     29                     30
                      A                      A                      A
 Frequencies --    957.8796               968.2144               997.4435
 Red. masses --      3.8682                 1.3447                 1.2522
 Frc consts  --      2.0911                 0.7427                 0.7340
 IR Inten    --     61.8774                 0.0073                 0.0626

                     31                     32                     33
                      A                      A                      A
 Frequencies --   1003.3416              1020.3730              1035.7613
 Red. masses --      1.0926                 6.1986                 5.5612
 Frc consts  --      0.6480                 3.8024                 3.5151
 IR Inten    --     34.0611                 2.3105                84.0485

                     34                     35                     36
                      A                      A                      A
 Frequencies --   1060.8748              1079.3981              1104.0982
 Red. masses --      2.0789                 1.5377                 3.3915
 Frc consts  --      1.3785                 1.0556                 2.4359
 IR Inten    --     14.1984                 1.3902                22.3942

                     37                     38                     39
                      A                      A                      A
 Frequencies --   1110.4466              1142.8110              1194.8467
 Red. masses --      1.5745                 2.0535                 1.0969
 Frc consts  --      1.1439                 1.5801                 0.9227
 IR Inten    --      4.4104                 8.8643                 0.0020

                     40                     41                     42
                      A                      A                      A
 Frequencies --   1211.7540              1251.7920              1279.1701
 Red. masses --      1.1316                 1.2649                 1.4127
 Frc consts  --      0.9790                 1.1678                 1.3619
 IR Inten    --      0.1538                19.8372                10.4426

                     43                     44                     45
                      A                      A                      A
 Frequencies --   1300.4526              1332.5533              1342.2315
 Red. masses --      2.7586                 2.8819                 1.2818
 Frc consts  --      2.7487                 3.0150                 1.3605
 IR Inten    --     32.5548                 0.0841                 1.3633

                     46                     47                     48
                      A                      A                      A
 Frequencies --   1365.5564              1381.6988              1422.3320
 Red. masses --      1.8772                 1.3706                 1.2052
 Frc consts  --      2.0625                 1.5416                 1.4365
 IR Inten    --      0.3727                21.9009               104.2673

                     49                     50                     51
                      A                      A                      A
 Frequencies --   1442.0593              1490.7747              1509.2798
 Red. masses --      1.2629                 2.2292                 1.0450
 Frc consts  --      1.5473                 2.9190                 1.4025
 IR Inten    --      5.7758                 4.1643                 6.3090

                     52                     53                     54
                      A                      A                      A
 Frequencies --   1520.5129              1544.1222              1630.5223
 Red. masses --      1.0550                 2.2894                 5.2205
 Frc consts  --      1.4371                 3.2162                 8.1774
 IR Inten    --     10.9180                25.9987                 1.4147

                     55                     56                     57
                      A                      A                      A
 Frequencies --   1662.2712              1757.4939              2339.5156
 Red. masses --      5.5451                 5.8927                11.9618
 Frc consts  --      9.0273                10.7239                38.5743
 IR Inten    --      6.6950                14.9306                10.2237

                     58                     59                     60
                      A                      A                      A
 Frequencies --   3035.0372              3067.3899              3082.8912
 Red. masses --      1.0372                 1.0842                 1.1001
 Frc consts  --      5.6293                 6.0101                 6.1602
 IR Inten    --     35.8297                16.9348                22.6571

                     61                     62                     63
                      A                      A                      A
 Frequencies --   3119.2723              3143.7308              3149.8191
 Red. masses --      1.0987                 1.0929                 1.0870
 Frc consts  --      6.2987                 6.3639                 6.3542
 IR Inten    --      8.0846                10.5376                39.3930

                     64                     65                     66
                      A                      A                      A
 Frequencies --   3186.2603              3195.2169              3206.3324
 Red. masses --      1.0851                 1.0886                 1.0923
 Frc consts  --      6.4908                 6.5481                 6.6164
 IR Inten    --      0.8796                 7.3137                25.7521

                     67                     68                     69
                      A                      A                      A
 Frequencies --   3214.6330              3218.8116              3730.0579
 Red. masses --      1.0943                 1.0972                 1.0662
 Frc consts  --      6.6625                 6.6975                 8.7403
 IR Inten    --     24.1886                 7.9399                15.2852

 - Thermochemistry -
 -------------------
 Temperature   298.150 Kelvin.  Pressure   1.00000 Atm.
 Atom     1 has atomic number  6 and mass  12.00000

 Molecular mass:   172.08882 amu.
 Principal axes and moments of inertia in atomic units:
                           1         2         3
     Eigenvalues --  1003.081116292.369577047.42805
           X            0.99990  -0.01392   0.00152
           Y            0.01389   0.99973   0.01858
           Z           -0.00178  -0.01856   0.99983
 This molecule is an asymmetric top.
 Rotational symmetry number  1.
 Warning -- assumption of classical behavior for rotation
           may cause significant error
 Rotational temperatures (Kelvin)      0.08635     0.01376     0.01229
 Rotational constants (GHZ):           1.79920     0.28681     0.25609
 Zero-point vibrational energy     537223.5 (Joules/Mol)
                                  128.39950 (Kcal/Mol)
 Warning -- explicit consideration of  19 degrees of freedom as
           vibrations may cause significant error
 Vibrational temperatures:     14.32    48.22    87.14   121.14   182.15
          (Kelvin)            232.17   264.26   298.95   344.10   409.47
                              452.75   525.50   594.31   596.02   686.88
                              732.11   783.73   809.44   857.80   918.54
                             1015.00  1075.23  1113.83  1182.94  1233.07
                             1337.91  1359.47  1378.18  1393.04  1435.10
                             1443.58  1468.09  1490.23  1526.36  1553.01
                             1588.55  1597.68  1644.25  1719.12  1743.44
                             1801.05  1840.44  1871.06  1917.25  1931.17
                             1964.73  1987.96  2046.42  2074.80  2144.89
                             2171.52  2187.68  2221.65  2345.96  2391.64
                             2528.64  3366.04  4366.74  4413.29  4435.59
                             4487.94  4523.13  4531.89  4584.32  4597.20
                             4613.20  4625.14  4631.15  5366.72

 Zero-point correction=                           0.204618 (Hartree/Particle)
 Thermal correction to Energy=                    0.217697
 Thermal correction to Enthalpy=                  0.218641
 Thermal correction to Gibbs Free Energy=         0.162237
 Sum of electronic and zero-point Energies=           -539.470762
 Sum of electronic and thermal Energies=              -539.457683
 Sum of electronic and thermal Enthalpies=            -539.456739
 Sum of electronic and thermal Free Energies=         -539.513143

                     E (Thermal)             CV                S
                      KCal/Mol        Cal/Mol-Kelvin    Cal/Mol-Kelvin
 Total                  136.607             47.712            118.713
 Electronic               0.000              0.000              0.000
 Translational            0.889              2.981             41.336
 Rotational               0.889              2.981             32.164
 Vibrational            134.830             41.751             45.212
 Vibration     1          0.593              1.987              8.020
 Vibration     2          0.594              1.983              5.610
 Vibration     3          0.597              1.973              4.439
 Vibration     4          0.601              1.960              3.791
 Vibration     5          0.611              1.927              2.997
 Vibration     6          0.622              1.890              2.534
 Vibration     7          0.631              1.862              2.291
 Vibration     8          0.641              1.829              2.063
 Vibration     9          0.657              1.781              1.809
 Vibration    10          0.683              1.702              1.506
 Vibration    11          0.702              1.646              1.338
 Vibration    12          0.738              1.544              1.100
 Vibration    13          0.777              1.442              0.916
 Vibration    14          0.778              1.439              0.912
 Vibration    15          0.834              1.300              0.717
 Vibration    16          0.864              1.230              0.636
 Vibration    17          0.900              1.151              0.555
 Vibration    18          0.918              1.112              0.519
 Vibration    19          0.954              1.040              0.456

 Optimization completed.
    -- Stationary point found.
 Normal termination of Gaussian 16 at Wed Dec  9 22:35:30 2020.

 ----------------------------------------------------------------------
 # B3LYP/6-311++G(d,p) empiricaldispersion=gd3bj scf=xqc pop=npa geom=c
 heck
 ----------------------------------------------------------------------

 --------------------------------------
 CID_11008394_JID_3220_Energie_neutraal
 --------------------------------------
 Structure from the checkpoint file:  "JID_3220.chk"
 Charge =  0 Multiplicity = 1

 SCF Done:  E(RB3LYP) =  -539.832893641     A.U. after   15 cycles
 Normal termination of Gaussian 16 at Wed Dec  9 22:37:55 2020.

 ----------------------------------------------------------------------
 # B3LYP/6-311++G(d,p) empiricaldispersion=gd3bj scf=xqc pop=npa geom=c
 heck
 ----------------------------------------------------------------------

 ------------------------------------
 CID_11008394_JID_3220_Energie_kation
 ------------------------------------
 Structure from the checkpoint file:  "JID_3220.chk"
 Charge =  1 Multiplicity = 2

 SCF Done:  E(UB3LYP) =  -539.531848926     A.U. after   23 cycles
 Normal termination of Gaussian 16 at Wed Dec  9 22:43:24 2020.
 Gaussian 16:  ES64L-G16RevA.03 25-Dec-2016

 ----------------------------------------------------------------------
 # B3LYP/6-311++G(d,p) empiricaldispersion=gd3bj scf=xqc pop=npa geom=c
 heck
 ----------------------------------------------------------------------

 -----------------------------------
 CID_11008394_JID_3220_Energie_anion
 -----------------------------------
 Structure from the checkpoint file:  "JID_3220.chk"
 Charge = -1 Multiplicity = 2

                         Standard orientation:
 ---------------------------------------------------------------------
 Center     Atomic      Atomic             Coordinates (Angstroms)
 Number     Number       Type             X           Y           Z
 ---------------------------------------------------------------------
      1          6           0       -4.839148    1.810226   -0.196059
      2          6           0       -3.988814    0.621161   -0.530725
      3          6           0       -3.013346    0.133899    0.236869
      4          6           0       -2.181112   -1.073750   -0.122998
      5          6           0       -0.752958   -0.726859   -0.145716
      6          6           0        0.420521   -0.423718   -0.097145
      7          6           0        1.803635   -0.074201   -0.059146
      8          6           0        2.206873    1.194953    0.395784
      9          6           0        3.556802    1.532040    0.432037
     10          6           0        4.522871    0.612571    0.017895
     11          6           0        4.132096   -0.649473   -0.434773
     12          6           0        2.784199   -0.994120   -0.474746
     13          8           0       -2.431785   -2.181211    0.756148
     14          1           0       -4.566562    2.239179    0.773691
     15          1           0       -5.902347    1.537960   -0.163075
     16          1           0       -4.738494    2.595331   -0.957199
     17          1           0       -4.198683    0.130236   -1.482485
     18          1           0       -2.772638    0.606255    1.190123
     19          1           0       -2.487673   -1.434893   -1.111522
     20          1           0        1.451036    1.905212    0.715436
     21          1           0        3.856500    2.514961    0.784302
     22          1           0        5.575624    0.878449    0.047558
     23          1           0        4.880411   -1.367482   -0.758007
     24          1           0        2.473565   -1.972952   -0.825577
     25          1           0       -2.026182   -1.958941    1.609920
 ---------------------------------------------------------------------

 SCF Done:  E(UB3LYP) =  -539.827677583     A.U. after   33 cycles
 SCF Done:  E(UB3LYP) =  -539.827677584     a.u. after    1 cycles

 The electronic state is 2-A.
 Alpha  occ. eigenvalues --  -19.00226 -10.12522 -10.07015 -10.06573 -10.06043
 Alpha  occ. eigenvalues --  -10.05083 -10.04751 -10.04747 -10.04304 -10.04269
 Alpha  occ. eigenvalues --  -10.03602 -10.03151 -10.02473  -0.90512  -0.72981
 Alpha  occ. eigenvalues --   -0.69700  -0.65323  -0.63008  -0.61986  -0.58840
 Alpha  occ. eigenvalues --   -0.53991  -0.48719  -0.47880  -0.45693  -0.41771
 Alpha  occ. eigenvalues --   -0.39716  -0.36906  -0.35045  -0.34928  -0.32551
 Alpha  occ. eigenvalues --   -0.31711  -0.30703  -0.29822  -0.29809  -0.28478
 Alpha  occ. eigenvalues --   -0.25799  -0.25197  -0.24137  -0.23086  -0.22228
 Alpha  occ. eigenvalues --   -0.18352  -0.17275  -0.15254  -0.13361  -0.13094
 Alpha  occ. eigenvalues --   -0.10491   0.04978
 Alpha virt. eigenvalues --    0.06565   0.08099   0.08825   0.09280   0.09561
 Alpha virt. eigenvalues --    0.09784   0.10728   0.10954   0.11075   0.11391
 Alpha virt. eigenvalues --    0.11913   0.13086   0.13468   0.14570   0.15449

  Beta  occ. eigenvalues --  -19.00114 -10.12523 -10.07001 -10.06500 -10.06042
  Beta  occ. eigenvalues --  -10.04870 -10.04784 -10.04776 -10.04205 -10.04164
  Beta  occ. eigenvalues --  -10.03306 -10.03106 -10.02322  -0.90237  -0.72652
  Beta  occ. eigenvalues --   -0.69586  -0.64962  -0.62719  -0.61752  -0.58642
  Beta  occ. eigenvalues --   -0.53845  -0.48178  -0.47797  -0.45591  -0.41588
  Beta  occ. eigenvalues --   -0.39591  -0.36795  -0.34923  -0.34655  -0.32386
  Beta  occ. eigenvalues --   -0.31627  -0.30568  -0.29761  -0.29670  -0.28397
  Beta  occ. eigenvalues --   -0.25715  -0.24303  -0.23990  -0.22934  -0.22124
  Beta  occ. eigenvalues --   -0.17740  -0.16690  -0.15001  -0.12952  -0.12706
  Beta  occ. eigenvalues --   -0.09276
  Beta virt. eigenvalues --    0.06937   0.08011   0.08754   0.09023   0.09456
  Beta virt. eigenvalues --    0.09874   0.10358   0.10929   0.11102   0.11220
  Beta virt. eigenvalues --    0.11648   0.11882   0.13036   0.13457   0.14593

 Mulliken charges and spin densities:
               1          2
     1  C    0.437837  -1.237839
     2  C   -0.801081   0.771622
     3  C    0.159347   0.102429
     4  C    0.124917  -0.753113
     5  C    0.133361   0.387906
     6  C    0.923931  -0.110344
     7  C    0.690974   0.214595
     8  C   -1.239933   0.028648
     9  C    0.205851  -0.043616
    10  C   -0.666891   0.214935
    11  C    0.251851  -0.066712
    12  C   -1.372123   0.275131
    13  O   -0.129566  -0.025973
    14  H   -0.110029   0.243124
    15  H   -0.174967   0.313500
    16  H    0.053077   0.079211
    17  H   -0.071641   0.182075
    18  H    0.008667   0.130149
    19  H    0.167571  -0.024556
    20  H    0.040983   0.020851
    21  H    0.116166   0.015794
    22  H    0.098160  -0.015791
    23  H    0.120525   0.006691
    24  H    0.067276   0.014188
    25  H   -0.034265   0.277093
 Sum of Mulliken charges =  -1.00000   1.00000

 Dipole moment (field-independent basis, Debye):
    X=              1.9662    Y=              1.3865    Z=             -1.2839  Tot=              2.7270
 Quadrupole moment (field-independent basis, Debye-Ang):
   XX=           -150.3897   YY=            -99.8945   ZZ=            -91.5577
   XY=             -2.3744   XZ=              4.8159   YZ=              4.2414

 Summary of Natural Population Analysis:

                                       Natural Population
                Natural  -----------------------------------------------
    Atom  No    Charge         Core      Valence    Rydberg      Total
 -----------------------------------------------------------------------
      C    1   -0.30045      0.99966     2.29505    0.00574     3.30045
      C    2   -0.07808      0.99952     2.06998    0.00858     3.07808
      C    3   -0.09267      0.99949     2.08251    0.01067     3.09267
      C    4    0.01830      0.99949     1.96788    0.01434     2.98170
      C    5   -0.00187      0.99924     1.99491    0.00772     3.00187
      C    6    0.00804      0.99927     1.98448    0.00820     2.99196
      C    7   -0.03657      0.99948     2.02768    0.00942     3.03657
      C    8   -0.06741      0.99954     2.05705    0.01082     3.06741
      C    9   -0.11780      0.99957     2.10967    0.00855     3.11780
      C   10   -0.05722      0.99957     2.04796    0.00968     3.05722
      C   11   -0.11817      0.99957     2.10943    0.00917     3.11817
      C   12   -0.06566      0.99954     2.05763    0.00848     3.06566
      O   13   -0.35885      0.99990     3.35269    0.00625     4.35885
      H   14    0.10006      0.00000     0.39901    0.00093     0.39994
      H   15    0.10191      0.00000     0.39657    0.00153     0.39809
      H   16    0.09901      0.00000     0.40010    0.00089     0.40099
      H   17    0.08665      0.00000     0.41214    0.00121     0.41335
      H   18    0.09147      0.00000     0.40728    0.00125     0.40853
      H   19    0.09493      0.00000     0.40258    0.00249     0.40507
      H   20    0.09691      0.00000     0.40228    0.00081     0.40309
      H   21    0.09223      0.00000     0.40686    0.00091     0.40777
      H   22    0.08744      0.00000     0.41152    0.00104     0.41256
      H   23    0.09175      0.00000     0.40721    0.00104     0.40825
      H   24    0.09678      0.00000     0.40231    0.00090     0.40322
      H   25    0.22926      0.00000     0.26692    0.00382     0.27074
 =======================================================================
   * Total *    0.00000     12.99384    32.87169    0.13446    46.00000

 Normal termination of Gaussian 16 at Wed Dec  9 22:51:10 2020.
