 Gaussian 16, Revision A.03,

 -----------------------------------------------------------
 # opt freq B3LYP/6-31G(d) empiricaldispersion=gd3bj scf=xqc
 -----------------------------------------------------------

 ---------------------------
 CID_198458_JID_289_neutraal
 ---------------------------
 Symbolic Z-matrix:
 Charge =  0 Multiplicity = 1

 SCF Done:  E(RB3LYP) =  -421.559596010     A.U. after   13 cycles
 SCF Done:  E(RB3LYP) =  -421.563874975     A.U. after   12 cycles
 SCF Done:  E(RB3LYP) =  -421.564868692     A.U. after   11 cycles
 SCF Done:  E(RB3LYP) =  -421.564985081     A.U. after   11 cycles
 SCF Done:  E(RB3LYP) =  -421.565013293     A.U. after   10 cycles
 SCF Done:  E(RB3LYP) =  -421.565025777     A.U. after   10 cycles
 SCF Done:  E(RB3LYP) =  -421.565034947     A.U. after   10 cycles
 SCF Done:  E(RB3LYP) =  -421.565048519     A.U. after   10 cycles
 SCF Done:  E(RB3LYP) =  -421.565072755     A.U. after   11 cycles
 SCF Done:  E(RB3LYP) =  -421.560484324     A.U. after   12 cycles
 SCF Done:  E(RB3LYP) =  -421.572704650     A.U. after   10 cycles
 SCF Done:  E(RB3LYP) =  -421.572761780     A.U. after   11 cycles
 SCF Done:  E(RB3LYP) =  -421.572768257     A.U. after   10 cycles
 SCF Done:  E(RB3LYP) =  -421.572768990     A.U. after    8 cycles
 SCF Done:  E(RB3LYP) =  -421.572769085     A.U. after    7 cycles
 Optimization completed.
    -- Stationary point found.

 1\1\GINC-NODE108\FOpt\RB3LYP\6-31G(d)\C8H12N2\VSC10255\08-Dec-2020\0\\
 # opt freq B3LYP/6-31G(d) empiricaldispersion=gd3bj scf=xqc\\CID_19845
 8_JID_289_neutraal\\0,1\C,0.8420694315,0.2603690358,-0.1220243605\N,-0
 .0200944397,1.1196644277,0.6800343794\C,-1.4466553569,0.7730290322,0.5
 898314089\C,-1.8042841814,-0.6145825181,1.0897645815\C,-1.9877954292,-
 0.8507727072,2.4592917743\C,-2.256240499,-2.1355675777,2.9311329701\C,
 -2.3473925854,-3.2057830005,2.0390987681\C,-2.1700456436,-2.9828413955
 ,0.6731261325\C,-1.8997469093,-1.6961921153,0.2059105718\N,0.370949415

 Normal termination of Gaussian 16 at Tue Dec  8 10:26:57 2020.

 --------------------------------------------------------------------
 #N Geom=AllCheck Guess=TCheck SCRF=Check GenChk RB3LYP/6-31G(d) Freq
 --------------------------------------------------------------------

 Structure from the checkpoint file:  "JID_289.chk"
 ---------------------------
 CID_198458_JID_289_neutraal
 ---------------------------
 Charge =  0 Multiplicity = 1

 SCF Done:  E(RB3LYP) =  -421.572769085     A.U. after    1 cycles

  Exact polarizability: 114.143  -0.197 100.482 -12.915  -2.388  61.972
 Approx polarizability: 163.155  -1.617 167.849 -29.401  -4.815  93.997

                      1                      2                      3
                      A                      A                      A
 Frequencies --     55.1893                96.0681               117.8682
 Red. masses --      3.4230                 3.6745                 3.2650
 Frc consts  --      0.0061                 0.0200                 0.0267
 IR Inten    --      0.5799                 0.6523                 0.5187

                      4                      5                      6
                      A                      A                      A
 Frequencies --    251.5759               283.7557               297.3217
 Red. masses --      3.0438                 1.2773                 2.4001
 Frc consts  --      0.1135                 0.0606                 0.1250
 IR Inten    --      6.1908                 0.9395                 0.6796

                      7                      8                      9
                      A                      A                      A
 Frequencies --    353.2695               419.2381               428.7219
 Red. masses --      1.2348                 2.9925                 2.6985
 Frc consts  --      0.0908                 0.3099                 0.2922
 IR Inten    --     81.9723                 0.3737                 0.1339

                     10                     11                     12
                      A                      A                      A
 Frequencies --    434.4025               471.0094               500.9869
 Red. masses --      2.1301                 2.1150                 3.8023
 Frc consts  --      0.2368                 0.2765                 0.5623
 IR Inten    --      0.4434                 7.6043                 7.5443

                     13                     14                     15
                      A                      A                      A
 Frequencies --    629.7163               638.1320               719.1921
 Red. masses --      3.8756                 6.1796                 1.7505
 Frc consts  --      0.9055                 1.4826                 0.5335
 IR Inten    --     19.3982                 0.0372                31.5600

                     16                     17                     18
                      A                      A                      A
 Frequencies --    763.0878               827.8646               840.9024
 Red. masses --      2.2745                 4.6305                 3.1356
 Frc consts  --      0.7803                 1.8698                 1.3064
 IR Inten    --     22.3609                22.2039                 3.3707

                     19                     20                     21
                      A                      A                      A
 Frequencies --    865.7987               932.1658               949.9911
 Red. masses --      1.2459                 1.5467                 1.8680
 Frc consts  --      0.5503                 0.7919                 0.9933
 IR Inten    --      0.2203                14.4842                13.5470

                     22                     23                     24
                      A                      A                      A
 Frequencies --    970.1156               984.9997               997.0896
 Red. masses --      1.3562                 1.9512                 1.2776
 Frc consts  --      0.7520                 1.1154                 0.7484
 IR Inten    --      1.1954                40.6472                 1.9738

                     25                     26                     27
                      A                      A                      A
 Frequencies --   1022.8414              1060.8710              1079.8187
 Red. masses --      6.2247                 2.2373                 1.4944
 Frc consts  --      3.8369                 1.4836                 1.0266
 IR Inten    --      0.1543                 1.6699                 6.7562

                     28                     29                     30
                      A                      A                      A
 Frequencies --   1110.2057              1134.7211              1165.0229
 Red. masses --      1.7089                 1.7508                 1.3580
 Frc consts  --      1.2410                 1.3282                 1.0860
 IR Inten    --     33.0003                 5.2140                 2.7981

                     31                     32                     33
                      A                      A                      A
 Frequencies --   1193.4008              1214.7891              1226.6402
 Red. masses --      1.0978                 1.1496                 3.0277
 Frc consts  --      0.9212                 0.9996                 2.6841
 IR Inten    --      0.0492                 0.2432                 5.7139

                     34                     35                     36
                      A                      A                      A
 Frequencies --   1286.0585              1321.3964              1351.0296
 Red. masses --      2.3209                 1.9513                 1.2750
 Frc consts  --      2.2617                 2.0074                 1.3712
 IR Inten    --      2.3759                 3.0971                 6.9187

                     37                     38                     39
                      A                      A                      A
 Frequencies --   1367.3129              1380.2242              1383.7977
 Red. masses --      2.4659                 1.4167                 1.2742
 Frc consts  --      2.7162                 1.5901                 1.4376
 IR Inten    --      0.5706                 0.6290                18.4833

                     40                     41                     42
                      A                      A                      A
 Frequencies --   1473.1397              1498.9646              1503.7378
 Red. masses --      1.1735                 1.1143                 2.1504
 Frc consts  --      1.5005                 1.4752                 2.8650
 IR Inten    --      0.2101                 5.9091                 6.2403

                     43                     44                     45
                      A                      A                      A
 Frequencies --   1514.4919              1532.6031              1546.3747
 Red. masses --      1.0506                 1.0625                 2.1507
 Frc consts  --      1.4198                 1.4704                 3.0301
 IR Inten    --     13.3111                 3.1490                 6.5939

                     46                     47                     48
                      A                      A                      A
 Frequencies --   1645.8180              1666.0681              1700.9052
 Red. masses --      5.4870                 5.5271                 1.0809
 Frc consts  --      8.7569                 9.0393                 1.8425
 IR Inten    --      0.6737                 1.0229                20.0570

                     49                     50                     51
                      A                      A                      A
 Frequencies --   2968.4549              3061.8820              3076.3340
 Red. masses --      1.0554                 1.0636                 1.0760
 Frc consts  --      5.4796                 5.8752                 5.9997
 IR Inten    --     51.6417                29.8681                53.4886

                     52                     53                     54
                      A                      A                      A
 Frequencies --   3116.6761              3123.2035              3172.2322
 Red. masses --      1.1032                 1.1032                 1.0864
 Frc consts  --      6.3135                 6.3401                 6.4415
 IR Inten    --     27.8703                20.2293                 9.4934

                     55                     56                     57
                      A                      A                      A
 Frequencies --   3182.2042              3192.4647              3203.1648
 Red. masses --      1.0865                 1.0911                 1.0935
 Frc consts  --      6.4824                 6.5521                 6.6106
 IR Inten    --      0.4129                27.0858                30.4779

                     58                     59                     60
                      A                      A                      A
 Frequencies --   3210.4950              3345.3715              3516.1841
 Red. masses --      1.0971                 1.0569                 1.0838
 Frc consts  --      6.6627                 6.9690                 7.8946
 IR Inten    --     13.7562                17.2599                 0.9058

 - Thermochemistry -
 -------------------
 Temperature   298.150 Kelvin.  Pressure   1.00000 Atm.
 Atom     1 has atomic number  6 and mass  12.00000

 Molecular mass:   136.10005 amu.
 Principal axes and moments of inertia in atomic units:
                           1         2         3
     Eigenvalues --   684.687401990.665242288.58160
           X            0.99995   0.00892   0.00382
           Y           -0.00893   0.99996   0.00246
           Z           -0.00380  -0.00249   0.99999
 This molecule is an asymmetric top.
 Rotational symmetry number  1.
 Warning -- assumption of classical behavior for rotation
           may cause significant error
 Rotational temperatures (Kelvin)      0.12650     0.04351     0.03785
 Rotational constants (GHZ):           2.63586     0.90660     0.78859
 Zero-point vibrational energy     504688.7 (Joules/Mol)
                                  120.62350 (Kcal/Mol)
 Warning -- explicit consideration of  12 degrees of freedom as
           vibrations may cause significant error
 Vibrational temperatures:     79.41   138.22   169.59   361.96   408.26
          (Kelvin)            427.78   508.28   603.19   616.84   625.01
                              677.68   720.81   906.02   918.13  1034.76
                             1097.91  1191.11  1209.87  1245.69  1341.18
                             1366.83  1395.78  1417.19  1434.59  1471.64
                             1526.36  1553.62  1597.34  1632.61  1676.21
                             1717.04  1747.81  1764.86  1850.35  1901.19
                             1943.83  1967.26  1985.83  1990.98  2119.52
                             2156.68  2163.54  2179.02  2205.07  2224.89
                             2367.96  2397.10  2447.22  4270.94  4405.37
                             4426.16  4484.20  4493.59  4564.13  4578.48
                             4593.24  4608.64  4619.19  4813.24  5059.00

 Zero-point correction=                           0.192226 (Hartree/Particle)
 Thermal correction to Energy=                    0.201536
 Thermal correction to Enthalpy=                  0.202480
 Thermal correction to Gibbs Free Energy=         0.157649
 Sum of electronic and zero-point Energies=           -421.380543
 Sum of electronic and thermal Energies=              -421.371233
 Sum of electronic and thermal Enthalpies=            -421.370289
 Sum of electronic and thermal Free Energies=         -421.415121

                     E (Thermal)             CV                S
                      KCal/Mol        Cal/Mol-Kelvin    Cal/Mol-Kelvin
 Total                  126.466             36.203             94.355
 Electronic               0.000              0.000              0.000
 Translational            0.889              2.981             40.637
 Rotational               0.889              2.981             29.524
 Vibrational            124.688             30.241             24.195
 Vibration     1          0.596              1.975              4.622
 Vibration     2          0.603              1.952              3.533
 Vibration     3          0.608              1.934              3.135
 Vibration     4          0.664              1.760              1.720
 Vibration     5          0.682              1.704              1.511
 Vibration     6          0.691              1.679              1.432
 Vibration     7          0.729              1.569              1.152
 Vibration     8          0.782              1.428              0.895
 Vibration     9          0.790              1.408              0.863
 Vibration    10          0.795              1.395              0.844
 Vibration    11          0.828              1.314              0.735
 Vibration    12          0.856              1.248              0.656

                           ! Non-Optimized Parameters !

 1\1\GINC-NODE108\Freq\RB3LYP\6-31G(d)\C8H12N2\VSC10255\08-Dec-2020\0\\
 #N Geom=AllCheck Guess=TCheck SCRF=Check GenChk RB3LYP/6-31G(d) Freq\\
 CID_198458_JID_289_neutraal\\0,1\C,0.8420694315,0.2603690358,-0.122024
 3605\N,-0.0200944397,1.1196644277,0.6800343794\C,-1.4466553569,0.77302
 90322,0.5898314089\C,-1.8042841814,-0.6145825181,1.0897645815\C,-1.987
 7954292,-0.8507727072,2.4592917743\C,-2.256240499,-2.1355675777,2.9311
 329701\C,-2.3473925854,-3.2057830005,2.0390987681\C,-2.1700456436,-2.9
 828413955,0.6731261325\C,-1.8997469093,-1.6961921153,0.2059105718\N,0.

 Normal termination of Gaussian 16 at Tue Dec  8 10:31:00 2020.

 ----------------------------------------------------------------------
 # B3LYP/6-311++G(d,p) empiricaldispersion=gd3bj scf=xqc pop=npa geom=c
 heck
 ----------------------------------------------------------------------

 -----------------------------------
 CID_198458_JID_289_Energie_neutraal
 -----------------------------------
 Structure from the checkpoint file:  "JID_289.chk"
 Charge =  0 Multiplicity = 1

 SCF Done:  E(RB3LYP) =  -421.694011181     A.U. after   13 cycles
 Normal termination of Gaussian 16 at Tue Dec  8 10:33:49 2020.

 ----------------------------------------------------------------------
 # B3LYP/6-311++G(d,p) empiricaldispersion=gd3bj scf=xqc pop=npa geom=c
 heck
 ----------------------------------------------------------------------

 ---------------------------------
 CID_198458_JID_289_Energie_kation
 ---------------------------------
 Structure from the checkpoint file:  "JID_289.chk"
 Charge =  1 Multiplicity = 2

 SCF Done:  E(UB3LYP) =  -421.391188480     A.U. after   25 cycles
 Normal termination of Gaussian 16 at Tue Dec  8 10:38:39 2020.
 Gaussian 16:  ES64L-G16RevA.03 25-Dec-2016

 --------------------------------
 CID_198458_JID_289_Energie_anion
 --------------------------------
 Structure from the checkpoint file:  "JID_289.chk"
 Charge = -1 Multiplicity = 2

                         Standard orientation:
 ---------------------------------------------------------------------
 Center     Atomic      Atomic             Coordinates (Angstroms)
 Number     Number       Type             X           Y           Z
 ---------------------------------------------------------------------
      1          6           0       -2.214401   -1.106829   -0.822458
      2          7           0       -2.234846   -0.022180    0.151262
      3          6           0       -1.175688   -0.121437    1.166988
      4          6           0        0.241254   -0.055612    0.627322
      5          6           0        0.836706    1.181416    0.344009
      6          6           0        2.115349    1.246714   -0.209346
      7          6           0        2.820500    0.074029   -0.486774
      8          6           0        2.239854   -1.163345   -0.206072
      9          6           0        0.959718   -1.223803    0.345666
     10          7           0       -2.183941    1.268295   -0.461585
     11          1           0       -2.256854   -2.069395   -0.300719
     12          1           0       -1.316831   -1.102506   -1.467269
     13          1           0       -3.100410   -1.026549   -1.461927
     14          1           0       -1.349955    0.695467    1.872190
     15          1           0       -1.329214   -1.068985    1.696546
     16          1           0        0.284938    2.091784    0.559272
     17          1           0        2.564648    2.213766   -0.419219
     18          1           0        3.818175    0.124559   -0.914076
     19          1           0        2.784412   -2.080690   -0.413184
     20          1           0        0.512789   -2.190268    0.568254
     21          1           0       -1.514972    1.263162   -1.241931
     22          1           0       -3.104973    1.440047   -0.861689
 ---------------------------------------------------------------------

 SCF Done:  E(UB3LYP) =  -421.677855447     A.U. after   33 cycles
 SCF Done:  E(UB3LYP) =  -421.677855447     a.u. after    1 cycles

 The electronic state is 2-A.
 Alpha  occ. eigenvalues --  -14.22592 -14.21259 -10.08961 -10.07725 -10.07416
 Alpha  occ. eigenvalues --  -10.07186 -10.07093 -10.07041 -10.06888 -10.06838
 Alpha  occ. eigenvalues --   -0.86868  -0.75435  -0.69717  -0.65289  -0.64281
 Alpha  occ. eigenvalues --   -0.59478  -0.51909  -0.50320  -0.47439  -0.41239
 Alpha  occ. eigenvalues --   -0.39766  -0.38640  -0.36005  -0.34872  -0.34020
 Alpha  occ. eigenvalues --   -0.31969  -0.31470  -0.29704  -0.27719  -0.26976
 Alpha  occ. eigenvalues --   -0.25686  -0.24728  -0.23724  -0.15750  -0.15160
 Alpha  occ. eigenvalues --   -0.14786  -0.12050   0.04690
 Alpha virt. eigenvalues --    0.06819   0.07476   0.08171   0.08725   0.08890
 Alpha virt. eigenvalues --    0.09427   0.09931   0.11044   0.11450   0.11989
 Alpha virt. eigenvalues --    0.12854   0.13341   0.15155   0.15504   0.16055

  Beta  occ. eigenvalues --  -14.22588 -14.21220 -10.08948 -10.07682 -10.07417
  Beta  occ. eigenvalues --  -10.07171 -10.07077 -10.07025 -10.06867 -10.06828
  Beta  occ. eigenvalues --   -0.86829  -0.75407  -0.69654  -0.65250  -0.64244
  Beta  occ. eigenvalues --   -0.59424  -0.51853  -0.50272  -0.47390  -0.41178
  Beta  occ. eigenvalues --   -0.39723  -0.38593  -0.35958  -0.34838  -0.33984
  Beta  occ. eigenvalues --   -0.31931  -0.31432  -0.29661  -0.27674  -0.26948
  Beta  occ. eigenvalues --   -0.25656  -0.24688  -0.23690  -0.15711  -0.15138
  Beta  occ. eigenvalues --   -0.14763  -0.12025
  Beta virt. eigenvalues --    0.07041   0.07969   0.08325   0.08466   0.08786
  Beta virt. eigenvalues --    0.09526   0.10123   0.10371   0.11512   0.11991
  Beta virt. eigenvalues --    0.12576   0.13443   0.13681   0.15467   0.15639

 Mulliken charges and spin densities:
               1          2
     1  C    1.079674  -1.449966
     2  N    0.068900   0.107382
     3  C    1.620740  -2.251604
     4  C   -0.536403   1.211940
     5  C   -1.439213   1.004448
     6  C    0.179134  -0.436777
     7  C    1.404957  -1.763511
     8  C    0.520968  -0.832627
     9  C   -0.292114   0.371914
    10  N   -0.653599   0.025025
    11  H   -0.367846   0.528889
    12  H    0.097551   0.033403
    13  H   -0.616361   0.745853
    14  H    0.076410   0.077983
    15  H   -0.217818   0.388406
    16  H    0.028327   0.149721
    17  H   -0.443081   0.618062
    18  H   -0.450111   0.596806
    19  H   -0.762745   0.948988
    20  H   -0.300066   0.458378
    21  H    0.031155   0.171614
    22  H   -0.028459   0.295673
 Sum of Mulliken charges =  -1.00000   1.00000

 Dipole moment (field-independent basis, Debye):
    X=              0.0812    Y=              2.2607    Z=              2.1745  Tot=              3.1378
 Quadrupole moment (field-independent basis, Debye-Ang):
   XX=           -127.3782   YY=           -102.3281   ZZ=            -90.4531
   XY=              0.2262   XZ=             -1.1528   YZ=             -0.2878

 Summary of Natural Population Analysis:

                                       Natural Population
                Natural  -----------------------------------------------
    Atom  No    Charge         Core      Valence    Rydberg      Total
 -----------------------------------------------------------------------
      C    1   -0.18676      0.99964     2.17756    0.00956     3.18676
      N    2   -0.19084      0.99974     2.67401    0.01709     3.69084
      C    3   -0.09082      0.99957     2.07786    0.01339     3.09082
      C    4   -0.03195      0.99950     2.02174    0.01072     3.03195
      C    5   -0.10109      0.99951     2.09107    0.01051     3.10109
      C    6   -0.10118      0.99956     2.09066    0.01096     3.10118
      C    7   -0.10239      0.99956     2.09265    0.01018     3.10239
      C    8   -0.09925      0.99956     2.08880    0.01089     3.09925
      C    9   -0.09795      0.99951     2.08728    0.01116     3.09795
      N   10   -0.32807      0.99977     2.81564    0.01266     3.82807
      H   11    0.09762      0.00000     0.40038    0.00200     0.40238
      H   12    0.08489      0.00000     0.41300    0.00212     0.41511
      H   13    0.09649      0.00000     0.40138    0.00213     0.40351
      H   14    0.10181      0.00000     0.39667    0.00152     0.39819
      H   15    0.09795      0.00000     0.40069    0.00136     0.40205
      H   16    0.10612      0.00000     0.39265    0.00123     0.39388
      H   17    0.09994      0.00000     0.39893    0.00113     0.40006
      H   18    0.10161      0.00000     0.39662    0.00177     0.39839
      H   19    0.10237      0.00000     0.39578    0.00184     0.39763
      H   20    0.10235      0.00000     0.39586    0.00179     0.39765
      H   21    0.16369      0.00000     0.33406    0.00225     0.33631
      H   22    0.17547      0.00000     0.32194    0.00258     0.32453
 =======================================================================
   * Total *    0.00000      9.99591    26.86524    0.13884    37.00000

 Normal termination of Gaussian 16 at Tue Dec  8 10:50:21 2020.
