 Gaussian 16, Revision A.03,

 -----------------------------------------------------------
 # opt freq B3LYP/6-31G(d) empiricaldispersion=gd3bj scf=xqc
 -----------------------------------------------------------

 ------------------------------
 CID_66581280_JID_3767_neutraal
 ------------------------------
 Symbolic Z-matrix:
 Charge =  0 Multiplicity = 1

 SCF Done:  E(RB3LYP) =  -561.885717368     A.U. after   13 cycles
 SCF Done:  E(RB3LYP) =  -561.885697388     A.U. after   12 cycles
 SCF Done:  E(RB3LYP) =  -561.886007365     A.U. after   12 cycles
 SCF Done:  E(RB3LYP) =  -561.887012416     A.U. after   12 cycles
 SCF Done:  E(RB3LYP) =  -561.887198262     A.U. after   10 cycles
 SCF Done:  E(RB3LYP) =  -561.887238517     A.U. after   10 cycles
 SCF Done:  E(RB3LYP) =  -561.887242185     A.U. after   10 cycles
 SCF Done:  E(RB3LYP) =  -561.887246589     A.U. after    9 cycles
 SCF Done:  E(RB3LYP) =  -561.887247396     A.U. after    8 cycles
 SCF Done:  E(RB3LYP) =  -561.887248303     A.U. after    8 cycles
 SCF Done:  E(RB3LYP) =  -561.887263191     A.U. after    8 cycles
 SCF Done:  E(RB3LYP) =  -561.887266861     A.U. after   10 cycles
 SCF Done:  E(RB3LYP) =  -561.887279243     A.U. after    9 cycles
 SCF Done:  E(RB3LYP) =  -561.887280599     A.U. after    8 cycles
 SCF Done:  E(RB3LYP) =  -561.887280709     A.U. after    7 cycles
 SCF Done:  E(RB3LYP) =  -561.887280738     A.U. after    7 cycles
 Optimization completed.
    -- Stationary point found.
 Normal termination of Gaussian 16 at Mon Dec 14 16:41:21 2020.

 --------------------------------------------------------------------
 #N Geom=AllCheck Guess=TCheck SCRF=Check GenChk RB3LYP/6-31G(d) Freq
 --------------------------------------------------------------------

 Structure from the checkpoint file:  "JID_3767.chk"
 ------------------------------
 CID_66581280_JID_3767_neutraal
 ------------------------------
 Charge =  0 Multiplicity = 1

 SCF Done:  E(RB3LYP) =  -561.887280738     A.U. after    1 cycles

  Exact polarizability: 127.778   1.870 117.532   2.621   0.295 111.214
 Approx polarizability: 161.302  -2.321 166.799   6.945  -1.751 179.402

                      1                      2                      3
                      A                      A                      A
 Frequencies --     33.8480                73.4840                93.6612
 Red. masses --      3.5603                 5.6092                 3.3750
 Frc consts  --      0.0024                 0.0178                 0.0174
 IR Inten    --      1.3152                10.3466                 0.9440

                      4                      5                      6
                      A                      A                      A
 Frequencies --    133.1302               159.8562               197.1882
 Red. masses --      3.2078                 3.0662                 2.6929
 Frc consts  --      0.0335                 0.0462                 0.0617
 IR Inten    --      0.7581                 0.7172                36.9203

                      7                      8                      9
                      A                      A                      A
 Frequencies --    218.3213               247.4778               252.7079
 Red. masses --      1.2856                 1.1216                 2.1537
 Frc consts  --      0.0361                 0.0405                 0.0810
 IR Inten    --    194.1813                29.3633                 2.7306

                     10                     11                     12
                      A                      A                      A
 Frequencies --    273.7864               282.6371               301.7666
 Red. masses --      1.4663                 2.0403                 1.5973
 Frc consts  --      0.0648                 0.0960                 0.0857
 IR Inten    --      1.6815                 9.6037                16.2418

                     13                     14                     15
                      A                      A                      A
 Frequencies --    344.4981               360.1306               375.8339
 Red. masses --      2.4824                 2.1512                 2.1424
 Frc consts  --      0.1736                 0.1644                 0.1783
 IR Inten    --      4.5905                 0.6566                 1.6632

                     16                     17                     18
                      A                      A                      A
 Frequencies --    407.9073               437.8692               476.0253
 Red. masses --      2.2006                 2.7256                 2.5405
 Frc consts  --      0.2157                 0.3079                 0.3392
 IR Inten    --      1.2221                 0.1464                 2.8243

                     19                     20                     21
                      A                      A                      A
 Frequencies --    483.7774               492.0390               555.2104
 Red. masses --      2.2410                 2.1832                 1.6502
 Frc consts  --      0.3090                 0.3114                 0.2997
 IR Inten    --      0.5914                 2.8475                 2.5401

                     22                     23                     24
                      A                      A                      A
 Frequencies --    585.6329               617.4756               713.6290
 Red. masses --      1.8085                 2.0025                 3.1109
 Frc consts  --      0.3654                 0.4499                 0.9334
 IR Inten    --     11.7419                 8.2978                 4.1581

                     25                     26                     27
                      A                      A                      A
 Frequencies --    772.6225               792.3259               805.6387
 Red. masses --      3.7115                 3.2149                 1.6317
 Frc consts  --      1.3054                 1.1891                 0.6240
 IR Inten    --      5.9472                 1.7409                 0.4523

                     28                     29                     30
                      A                      A                      A
 Frequencies --    842.0729               847.7696               877.7402
 Red. masses --      1.8794                 2.1733                 2.4760
 Frc consts  --      0.7852                 0.9203                 1.1239
 IR Inten    --      0.9010                 3.3378                 2.5479

                     31                     32                     33
                      A                      A                      A
 Frequencies --    890.8024               919.6991               956.2385
 Red. masses --      1.8776                 1.9166                 1.4318
 Frc consts  --      0.8778                 0.9551                 0.7714
 IR Inten    --      2.9312                 0.6486                 1.6391

                     34                     35                     36
                      A                      A                      A
 Frequencies --    966.7351               984.8195              1003.7679
 Red. masses --      1.4974                 1.6870                 2.0210
 Frc consts  --      0.8245                 0.9640                 1.1997
 IR Inten    --      1.8303                 0.9960                 1.9623

                     37                     38                     39
                      A                      A                      A
 Frequencies --   1037.7503              1052.8656              1054.6993
 Red. masses --      1.5441                 1.9443                 1.7192
 Frc consts  --      0.9797                 1.2699                 1.1267
 IR Inten    --      0.9994                 1.3250                 0.9095

                     40                     41                     42
                      A                      A                      A
 Frequencies --   1065.9826              1092.3456              1107.3210
 Red. masses --      1.7150                 1.8545                 1.8565
 Frc consts  --      1.1482                 1.3038                 1.3412
 IR Inten    --      0.2398                 0.8206                 0.0420

                     43                     44                     45
                      A                      A                      A
 Frequencies --   1144.1761              1152.8239              1159.4222
 Red. masses --      1.3274                 1.1314                 1.7268
 Frc consts  --      1.0238                 0.8859                 1.3676
 IR Inten    --      0.5360                 1.0684                 1.1860

                     46                     47                     48
                      A                      A                      A
 Frequencies --   1203.7887              1211.9946              1249.9419
 Red. masses --      2.4723                 1.9593                 2.7232
 Frc consts  --      2.1108                 1.6957                 2.5067
 IR Inten    --      3.7508                 9.1655                 5.0514

                     49                     50                     51
                      A                      A                      A
 Frequencies --   1272.8019              1304.1421              1308.2515
 Red. masses --      1.6188                 1.3542                 1.2524
 Frc consts  --      1.5451                 1.3570                 1.2629
 IR Inten    --     23.9763                21.0096                 1.8666

                     52                     53                     54
                      A                      A                      A
 Frequencies --   1318.4757              1335.5645              1362.4343
 Red. masses --      1.2542                 1.4181                 2.1371
 Frc consts  --      1.2845                 1.4904                 2.3373
 IR Inten    --      4.5588                 0.4812                32.6402

                     55                     56                     57
                      A                      A                      A
 Frequencies --   1371.8292              1392.2318              1397.1133
 Red. masses --      1.3494                 1.6110                 1.4757
 Frc consts  --      1.4962                 1.8398                 1.6971
 IR Inten    --      1.3416                17.4412                 1.3410

                     58                     59                     60
                      A                      A                      A
 Frequencies --   1399.6056              1411.5279              1415.8984
 Red. masses --      1.4399                 1.4405                 1.4226
 Frc consts  --      1.6618                 1.6910                 1.6803
 IR Inten    --      0.7742                 1.2420                 0.9924

                     61                     62                     63
                      A                      A                      A
 Frequencies --   1428.8750              1433.3286              1453.1552
 Red. masses --      1.3858                 1.2746                 1.2366
 Frc consts  --      1.6671                 1.5429                 1.5385
 IR Inten    --      2.9595                 3.9783                10.2171

                     64                     65                     66
                      A                      A                      A
 Frequencies --   1507.9246              1513.8643              1515.8234
 Red. masses --      1.0722                 1.0754                 1.0708
 Frc consts  --      1.4364                 1.4520                 1.4496
 IR Inten    --      0.0065                 0.1781                 4.2417

                     67                     68                     69
                      A                      A                      A
 Frequencies --   1517.4722              1519.3323              1526.7924
 Red. masses --      1.0686                 1.0766                 1.0925
 Frc consts  --      1.4498                 1.4643                 1.5004
 IR Inten    --      2.6581                 1.9187                 3.2833

                     70                     71                     72
                      A                      A                      A
 Frequencies --   1532.0427              1532.4233              1540.6987
 Red. masses --      1.0714                 1.0637                 1.0683
 Frc consts  --      1.4816                 1.4717                 1.4941
 IR Inten    --      9.4442                 4.8704                13.0723

                     73                     74                     75
                      A                      A                      A
 Frequencies --   1544.0463              1642.9191              1785.7508
 Red. masses --      1.0944                 1.2444                 8.8805
 Frc consts  --      1.5373                 1.9791                16.6852
 IR Inten    --      4.9437                95.2937               228.1944

                     76                     77                     78
                      A                      A                      A
 Frequencies --   3021.8628              3023.2558              3025.1374
 Red. masses --      1.0665                 1.0637                 1.0700
 Frc consts  --      5.7380                 5.7285                 5.7693
 IR Inten    --     17.0533                12.5170                19.2298

                     79                     80                     81
                      A                      A                      A
 Frequencies --   3029.1061              3030.8100              3041.4114
 Red. masses --      1.0647                 1.0687                 1.0627
 Frc consts  --      5.7555                 5.7842                 5.7915
 IR Inten    --     25.2953                27.9136                23.2789

                     82                     83                     84
                      A                      A                      A
 Frequencies --   3047.9508              3050.0476              3062.0082
 Red. masses --      1.0363                 1.0799                 1.0432
 Frc consts  --      5.6720                 5.9191                 5.7628
 IR Inten    --     27.5846                10.7899                18.7535

                     85                     86                     87
                      A                      A                      A
 Frequencies --   3063.9983              3068.5512              3070.1958
 Red. masses --      1.0977                 1.0927                 1.0955
 Frc consts  --      6.0719                 6.0623                 6.0842
 IR Inten    --     41.7279               126.3140                13.1091

                     88                     89                     90
                      A                      A                      A
 Frequencies --   3073.9125              3083.3945              3114.5204
 Red. masses --      1.1023                 1.1019                 1.1021
 Frc consts  --      6.1366                 6.1724                 6.2985
 IR Inten    --     36.3653               120.9939                39.4417

                     91                     92                     93
                      A                      A                      A
 Frequencies --   3121.6529              3122.9196              3131.6787
 Red. masses --      1.0903                 1.1027                 1.0992
 Frc consts  --      6.2598                 6.3364                 6.3518
 IR Inten    --     11.9190                11.7486                36.4133

                     94                     95                     96
                      A                      A                      A
 Frequencies --   3157.8785              3595.7489              3722.3043
 Red. masses --      1.1001                 1.0454                 1.1038
 Frc consts  --      6.4639                 7.9634                 9.0109
 IR Inten    --     20.2699                24.3385                25.9085

 - Thermochemistry -
 -------------------
 Temperature   298.150 Kelvin.  Pressure   1.00000 Atm.
 Atom     1 has atomic number  6 and mass  12.00000

 Molecular mass:   183.16231 amu.
 Principal axes and moments of inertia in atomic units:
                           1         2         3
     Eigenvalues --  1445.375453325.809583743.26741
           X            0.99961   0.02724  -0.00539
           Y           -0.02711   0.99934   0.02430
           Z            0.00605  -0.02414   0.99969
 This molecule is an asymmetric top.
 Rotational symmetry number  1.
 Warning -- assumption of classical behavior for rotation
           may cause significant error
 Rotational temperatures (Kelvin)      0.05992     0.02604     0.02314
 Rotational constants (GHZ):           1.24863     0.54265     0.48213
 Zero-point vibrational energy     820960.7 (Joules/Mol)
                                  196.21431 (Kcal/Mol)
 Warning -- explicit consideration of  23 degrees of freedom as
           vibrations may cause significant error
 Vibrational temperatures:     48.70   105.73   134.76   191.54   230.00
          (Kelvin)            283.71   314.12   356.07   363.59   393.92
                              406.65   434.17   495.66   518.15   540.74
                              586.89   630.00   684.89   696.05   707.93
                              798.82   842.60   888.41  1026.75  1111.63
                             1139.98  1159.13  1211.56  1219.75  1262.87
                             1281.67  1323.24  1375.81  1390.92  1416.94
                             1444.20  1493.09  1514.84  1517.48  1533.71
                             1571.64  1593.19  1646.21  1658.66  1668.15
                             1731.98  1743.79  1798.39  1831.28  1876.37
                             1882.28  1896.99  1921.58  1960.24  1973.76
                             2003.11  2010.13  2013.72  2030.87  2037.16
                             2055.83  2062.24  2090.77  2169.57  2178.11
                             2180.93  2183.30  2185.98  2196.71  2204.27
                             2204.82  2216.72  2221.54  2363.79  2569.30
                             4347.79  4349.79  4352.50  4358.21  4360.66
                             4375.91  4385.32  4388.34  4405.55  4408.41
                             4414.96  4417.33  4422.67  4436.32  4481.10
                             4491.36  4493.18  4505.79  4543.48  5173.48
                             5355.57

 Zero-point correction=                           0.312687 (Hartree/Particle)
 Thermal correction to Energy=                    0.326711
 Thermal correction to Enthalpy=                  0.327655
 Thermal correction to Gibbs Free Energy=         0.272796
 Sum of electronic and zero-point Energies=           -561.574593
 Sum of electronic and thermal Energies=              -561.560570
 Sum of electronic and thermal Enthalpies=            -561.559626
 Sum of electronic and thermal Free Energies=         -561.614485

                     E (Thermal)             CV                S
                      KCal/Mol        Cal/Mol-Kelvin    Cal/Mol-Kelvin
 Total                  205.014             55.258            115.460
 Electronic               0.000              0.000              0.000
 Translational            0.889              2.981             41.522
 Rotational               0.889              2.981             31.265
 Vibrational            203.237             49.296             42.673
 Vibration     1          0.594              1.983              5.590
 Vibration     2          0.599              1.967              4.058
 Vibration     3          0.603              1.954              3.582
 Vibration     4          0.613              1.920              2.900
 Vibration     5          0.622              1.892              2.551
 Vibration     6          0.637              1.844              2.159
 Vibration     7          0.646              1.813              1.973
 Vibration     8          0.661              1.767              1.748
 Vibration     9          0.664              1.758              1.712
 Vibration    10          0.676              1.722              1.572
 Vibration    11          0.682              1.706              1.518
 Vibration    12          0.694              1.670              1.407
 Vibration    13          0.723              1.586              1.191
 Vibration    14          0.735              1.554              1.122
 Vibration    15          0.747              1.522              1.056
 Vibration    16          0.772              1.453              0.934
 Vibration    17          0.798              1.388              0.833
 Vibration    18          0.833              1.303              0.721
 Vibration    19          0.840              1.286              0.700
 Vibration    20          0.848              1.268              0.678
 Vibration    21          0.911              1.128              0.533
 Vibration    22          0.943              1.062              0.475
 Vibration    23          0.977              0.995              0.421

 Optimization completed.
    -- Stationary point found.
 Normal termination of Gaussian 16 at Mon Dec 14 16:51:46 2020.

 ----------------------------------------------------------------------
 # B3LYP/6-311++G(d,p) empiricaldispersion=gd3bj scf=xqc pop=npa geom=c
 heck
 ----------------------------------------------------------------------

 --------------------------------------
 CID_66581280_JID_3767_Energie_neutraal
 --------------------------------------
 Structure from the checkpoint file:  "JID_3767.chk"
 Charge =  0 Multiplicity = 1

 SCF Done:  E(RB3LYP) =  -562.051648564     A.U. after   13 cycles
 Normal termination of Gaussian 16 at Mon Dec 14 16:56:28 2020.

 ----------------------------------------------------------------------
 # B3LYP/6-311++G(d,p) empiricaldispersion=gd3bj scf=xqc pop=npa geom=c
 heck
 ----------------------------------------------------------------------

 ------------------------------------
 CID_66581280_JID_3767_Energie_kation
 ------------------------------------
 Structure from the checkpoint file:  "JID_3767.chk"
 Charge =  1 Multiplicity = 2

 SCF Done:  E(UB3LYP) =  -561.719152004     A.U. after   32 cycles
 Normal termination of Gaussian 16 at Mon Dec 14 17:12:35 2020.
 Gaussian 16:  ES64L-G16RevA.03 25-Dec-2016

 ----------------------------------------------------------------------
 # B3LYP/6-311++G(d,p) empiricaldispersion=gd3bj scf=xqc pop=npa geom=c
 heck
 ----------------------------------------------------------------------

 -----------------------------------
 CID_66581280_JID_3767_Energie_anion
 -----------------------------------
 Structure from the checkpoint file:  "JID_3767.chk"
 Charge = -1 Multiplicity = 2

                         Standard orientation:
 ---------------------------------------------------------------------
 Center     Atomic      Atomic             Coordinates (Angstroms)
 Number     Number       Type             X           Y           Z
 ---------------------------------------------------------------------
      1          6           0       -2.125739   -1.240238   -1.184532
      2          6           0       -1.658482   -0.588703    0.123255
      3          6           0       -2.553958   -1.091529    1.279225
      4          6           0       -0.189278   -0.976751    0.451228
      5          6           0        0.865432   -0.847610   -0.666120
      6          6           0        1.109017    0.589480   -1.172670
      7          6           0        1.842098    1.467309   -0.148000
      8          6           0        3.166257    0.827392    0.289872
      9          6           0        2.949809   -0.598232    0.815200
     10          6           0        2.208314   -1.463173   -0.215101
     11          6           0       -1.847861    0.938042    0.003614
     12          8           0       -2.278933    1.482489   -1.004347
     13          7           0       -1.554783    1.666660    1.127308
     14          1           0       -1.947006   -2.321047   -1.147320
     15          1           0       -1.606530   -0.825835   -2.050579
     16          1           0       -3.194781   -1.069052   -1.337808
     17          1           0       -2.546807   -2.186976    1.304242
     18          1           0       -2.208996   -0.734660    2.256002
     19          1           0       -3.589415   -0.760558    1.146724
     20          1           0        0.138884   -0.426783    1.342250
     21          1           0       -0.208801   -2.031972    0.757612
     22          1           0        0.505994   -1.442413   -1.514761
     23          1           0        1.731145    0.523291   -2.076898
     24          1           0        0.171472    1.059359   -1.481782
     25          1           0        1.203639    1.625642    0.731178
     26          1           0        2.023275    2.461013   -0.576045
     27          1           0        3.659000    1.444876    1.051548
     28          1           0        3.847390    0.790216   -0.573012
     29          1           0        2.377042   -0.557716    1.752242
     30          1           0        3.912260   -1.061882    1.065017
     31          1           0        2.044027   -2.472778    0.183975
     32          1           0        2.850448   -1.577720   -1.099794
     33          1           0       -1.064650    1.269521    1.913288
     34          1           0       -1.576303    2.673034    1.041718
 ---------------------------------------------------------------------

 SCF Done:  E(UB3LYP) =  -562.040500505     A.U. after   32 cycles

 The electronic state is 2-A.
 Alpha  occ. eigenvalues --  -18.98489 -14.22226 -10.16815 -10.09226 -10.06937
 Alpha  occ. eigenvalues --  -10.06585 -10.06318 -10.06173 -10.05847 -10.05797
 Alpha  occ. eigenvalues --  -10.05770 -10.05659 -10.05544  -0.93514  -0.79784
 Alpha  occ. eigenvalues --   -0.73851  -0.71072  -0.64965  -0.63646  -0.58873
 Alpha  occ. eigenvalues --   -0.57667  -0.53208  -0.50405  -0.49409  -0.45592
 Alpha  occ. eigenvalues --   -0.43472  -0.41853  -0.38618  -0.37179  -0.35841
 Alpha  occ. eigenvalues --   -0.34304  -0.33435  -0.33221  -0.32329  -0.30372
 Alpha  occ. eigenvalues --   -0.30085  -0.29024  -0.28364  -0.27370  -0.27165
 Alpha  occ. eigenvalues --   -0.26213  -0.25665  -0.25201  -0.23685  -0.23265
 Alpha  occ. eigenvalues --   -0.22365  -0.20353  -0.19461  -0.19225  -0.16762
 Alpha  occ. eigenvalues --   -0.15188   0.04441
 Alpha virt. eigenvalues --    0.06779   0.07188   0.08017   0.09035   0.09302
 Alpha virt. eigenvalues --    0.09636   0.09894   0.10787   0.11025   0.11499
 Alpha virt. eigenvalues --    0.11780   0.12199   0.12790   0.13137   0.13596

  Beta  occ. eigenvalues --  -18.98481 -14.22158 -10.16811 -10.09224 -10.06934
  Beta  occ. eigenvalues --  -10.06557 -10.06283 -10.06163 -10.05832 -10.05775
  Beta  occ. eigenvalues --  -10.05757 -10.05654 -10.05521  -0.93497  -0.79695
  Beta  occ. eigenvalues --   -0.73824  -0.71045  -0.64934  -0.63613  -0.58828
  Beta  occ. eigenvalues --   -0.57616  -0.53141  -0.50359  -0.49355  -0.45487
  Beta  occ. eigenvalues --   -0.43420  -0.41790  -0.38572  -0.37135  -0.35806
  Beta  occ. eigenvalues --   -0.34277  -0.33406  -0.33193  -0.32296  -0.30342
  Beta  occ. eigenvalues --   -0.30053  -0.28997  -0.28339  -0.27340  -0.27143
  Beta  occ. eigenvalues --   -0.26185  -0.25633  -0.25170  -0.23649  -0.23231
  Beta  occ. eigenvalues --   -0.22329  -0.20324  -0.19432  -0.19199  -0.16705
  Beta  occ. eigenvalues --   -0.15145
  Beta virt. eigenvalues --    0.06650   0.07623   0.07890   0.08442   0.09463
  Beta virt. eigenvalues --    0.09659   0.09836   0.10691   0.10951   0.11173
  Beta virt. eigenvalues --    0.11704   0.12074   0.12715   0.12955   0.13303

 Mulliken charges and spin densities:
               1          2
     1  C    0.311598  -0.926763
     2  C   -0.110814   1.072834
     3  C    0.712420  -1.197863
     4  C   -0.021589  -0.964009
     5  C   -0.445471   1.013751
     6  C   -0.132474  -0.140145
     7  C   -0.424699   0.122327
     8  C    0.551344  -1.067856
     9  C    0.097974  -0.360411
    10  C   -0.186256  -0.346863
    11  C    0.247467  -0.780084
    12  O   -0.286288   0.006679
    13  N   -0.353637   0.082474
    14  H    0.020657   0.115823
    15  H    0.127775   0.038421
    16  H    0.108138   0.056251
    17  H   -0.216558   0.354022
    18  H   -0.558190   0.707324
    19  H    0.090160   0.078285
    20  H    0.598730  -0.462811
    21  H    0.176077  -0.000953
    22  H    0.209955  -0.007849
    23  H   -0.074327   0.228847
    24  H    0.215857  -0.031400
    25  H   -0.118910   0.260598
    26  H   -0.092280   0.244358
    27  H   -0.322144   0.491696
    28  H    0.156884  -0.047578
    29  H   -0.443623   0.593517
    30  H   -0.214934   0.384996
    31  H   -0.178442   0.314004
    32  H   -0.084387   0.224683
    33  H   -0.304272   0.575536
    34  H   -0.055743   0.368162
 Sum of Mulliken charges =  -1.00000   1.00000

 Dipole moment (field-independent basis, Debye):
    X=             -0.0387    Y=             -2.1449    Z=             -5.1675  Tot=              5.5951
 Quadrupole moment (field-independent basis, Debye-Ang):
   XX=           -138.3470   YY=           -123.8485   ZZ=           -129.0371
   XY=              3.0749   XZ=             -4.6723   YZ=             -0.2495

 Summary of Natural Population Analysis:

                                       Natural Population
                Natural  -----------------------------------------------
    Atom  No    Charge         Core      Valence    Rydberg      Total
 -----------------------------------------------------------------------
      C    1   -0.28403      0.99964     2.27783    0.00656     3.28403
      C    2   -0.07842      0.99953     2.06662    0.01227     3.07842
      C    3   -0.27893      0.99964     2.27153    0.00777     3.27893
      C    4   -0.18902      0.99958     2.17759    0.01185     3.18902
      C    5   -0.10958      0.99959     2.10011    0.00989     3.10958
      C    6   -0.19341      0.99960     2.18639    0.00742     3.19341
      C    7   -0.19278      0.99963     2.18451    0.00864     3.19278
      C    8   -0.18812      0.99963     2.17974    0.00874     3.18812
      C    9   -0.19161      0.99963     2.18355    0.00843     3.19161
      C   10   -0.18511      0.99962     2.17617    0.00933     3.18511
      C   11    0.34653      0.99962     1.62798    0.02586     2.65347
      O   12   -0.32711      0.99988     3.32150    0.00573     4.32711
      N   13   -0.40323      0.99970     2.89413    0.00940     3.90323
      H   14    0.09606      0.00000     0.40313    0.00081     0.40394
      H   15    0.10645      0.00000     0.39272    0.00083     0.39355
      H   16    0.10396      0.00000     0.39526    0.00077     0.39604
      H   17    0.09919      0.00000     0.39976    0.00105     0.40081
      H   18    0.10509      0.00000     0.39327    0.00164     0.39491
      H   19    0.10075      0.00000     0.39823    0.00102     0.39925
      H   20    0.10221      0.00000     0.39481    0.00298     0.39779
      H   21    0.10049      0.00000     0.39805    0.00147     0.39951
      H   22    0.09633      0.00000     0.40195    0.00172     0.40367
      H   23    0.09215      0.00000     0.40677    0.00108     0.40785
      H   24    0.10829      0.00000     0.39041    0.00130     0.39171
      H   25    0.09804      0.00000     0.39969    0.00227     0.40196
      H   26    0.09657      0.00000     0.40248    0.00095     0.40343
      H   27    0.09969      0.00000     0.39923    0.00108     0.40031
      H   28    0.08775      0.00000     0.41106    0.00120     0.41225
      H   29    0.09746      0.00000     0.40056    0.00198     0.40254
      H   30    0.09667      0.00000     0.40226    0.00107     0.40333
      H   31    0.09807      0.00000     0.40095    0.00098     0.40193
      H   32    0.09258      0.00000     0.40630    0.00111     0.40742
      H   33    0.20094      0.00000     0.29137    0.00769     0.29906
      H   34    0.19608      0.00000     0.30163    0.00229     0.30392
 =======================================================================
   * Total *    0.00000     12.99527    37.83755    0.16718    51.00000

 Normal termination of Gaussian 16 at Mon Dec 14 17:28:26 2020.
