 Gaussian 16, Revision A.03,

 -----------------------------------------------------------
 # opt freq B3LYP/6-31G(d) empiricaldispersion=gd3bj scf=xqc
 -----------------------------------------------------------

 -------------------------------
 CID_151778282_JID_6160_neutraal
 -------------------------------
 Symbolic Z-matrix:
 Charge =  0 Multiplicity = 1

 SCF Done:  E(RB3LYP) =  -1050.76911396     A.U. after   15 cycles
 SCF Done:  E(RB3LYP) =  -1050.77586062     A.U. after   15 cycles
 SCF Done:  E(RB3LYP) =  -1050.78049562     A.U. after   13 cycles
 SCF Done:  E(RB3LYP) =  -1050.78251223     A.U. after   16 cycles
 SCF Done:  E(RB3LYP) =  -1050.78338496     A.U. after   13 cycles
 SCF Done:  E(RB3LYP) =  -1050.78409125     A.U. after   15 cycles
 SCF Done:  E(RB3LYP) =  -1050.78468137     A.U. after   16 cycles
 SCF Done:  E(RB3LYP) =  -1050.78504747     A.U. after   14 cycles
 SCF Done:  E(RB3LYP) =  -1050.78535878     A.U. after   12 cycles
 SCF Done:  E(RB3LYP) =  -1050.78560479     A.U. after   13 cycles
 SCF Done:  E(RB3LYP) =  -1050.78606005     A.U. after   10 cycles
 SCF Done:  E(RB3LYP) =  -1050.78606113     A.U. after   10 cycles
 SCF Done:  E(RB3LYP) =  -1050.78606115     A.U. after    9 cycles
 SCF Done:  E(RB3LYP) =  -1050.78606129     A.U. after    8 cycles
 Optimization completed.
    -- Stationary point found.
 Normal termination of Gaussian 16 at Thu Dec 10 21:23:53 2020.

 --------------------------------------------------------------------
 #N Geom=AllCheck Guess=TCheck SCRF=Check GenChk RB3LYP/6-31G(d) Freq
 --------------------------------------------------------------------

 Structure from the checkpoint file:  "JID_6160.chk"
 -------------------------------
 CID_151778282_JID_6160_neutraal
 -------------------------------
 Charge =  0 Multiplicity = 1

 SCF Done:  E(RB3LYP) =  -1050.78606129     A.U. after    1 cycles

  Exact polarizability: 201.528  13.284 152.150   1.666  -0.935 130.981
 Approx polarizability: 254.485  36.178 232.674   9.690   4.464 206.894

                      1                      2                      3
                      A                      A                      A
 Frequencies --     11.6187                20.3892                31.2187
 Red. masses --      5.4698                 5.3032                 5.3372
 Frc consts  --      0.0004                 0.0013                 0.0031
 IR Inten    --      0.3022                 0.2151                 0.1803

                      4                      5                      6
                      A                      A                      A
 Frequencies --     35.4004                44.5317                49.7878
 Red. masses --      4.5188                 4.6384                 4.3827
 Frc consts  --      0.0033                 0.0054                 0.0064
 IR Inten    --      0.4098                 0.5047                 0.3298

                      7                      8                      9
                      A                      A                      A
 Frequencies --     63.6427                90.0591               100.4676
 Red. masses --      4.0068                 3.2232                 4.1282
 Frc consts  --      0.0096                 0.0154                 0.0246
 IR Inten    --      0.1509                 0.3779                 0.7172

                     10                     11                     12
                      A                      A                      A
 Frequencies --    119.6902               162.7618               181.9691
 Red. masses --      3.4595                 2.9378                 2.2513
 Frc consts  --      0.0292                 0.0459                 0.0439
 IR Inten    --      1.1842                 1.6432                 2.2238

                     13                     14                     15
                      A                      A                      A
 Frequencies --    212.3111               237.0880               247.1729
 Red. masses --      1.7621                 2.4942                 2.3826
 Frc consts  --      0.0468                 0.0826                 0.0858
 IR Inten    --      5.1949                 8.0322                 2.2683

                     16                     17                     18
                      A                      A                      A
 Frequencies --    279.4383               296.2743               313.3162
 Red. masses --      2.2344                 2.2784                 2.0645
 Frc consts  --      0.1028                 0.1178                 0.1194
 IR Inten    --      3.6269                 1.8682                 0.9492

                     19                     20                     21
                      A                      A                      A
 Frequencies --    326.5411               361.6447               382.3490
 Red. masses --      2.4503                 2.0542                 2.0249
 Frc consts  --      0.1539                 0.1583                 0.1744
 IR Inten    --      0.8337                 1.0185                 1.0293

                     22                     23                     24
                      A                      A                      A
 Frequencies --    421.8501               452.1721               491.2928
 Red. masses --      1.8665                 2.0807                 1.9581
 Frc consts  --      0.1957                 0.2507                 0.2785
 IR Inten    --      0.1734                 0.9536                 0.4701

                     25                     26                     27
                      A                      A                      A
 Frequencies --    540.7280               564.2573               587.8574
 Red. masses --      2.4372                 8.0641                 3.0921
 Frc consts  --      0.4199                 1.5127                 0.6296
 IR Inten    --      0.4758                 3.4406                12.0249

                     28                     29                     30
                      A                      A                      A
 Frequencies --    635.5089               651.4179               708.3782
 Red. masses --      6.1354                 3.7505                 1.2333
 Frc consts  --      1.4599                 0.9377                 0.3646
 IR Inten    --     34.4863                 2.2159                19.1147

                     31                     32                     33
                      A                      A                      A
 Frequencies --    719.0430               732.6393               765.1031
 Red. masses --      1.3506                 1.2945                 1.9837
 Frc consts  --      0.4114                 0.4094                 0.6842
 IR Inten    --     28.8427                 4.6173                 5.7283

                     34                     35                     36
                      A                      A                      A
 Frequencies --    797.4538               817.3649               840.6716
 Red. masses --      1.4442                 2.1415                 2.3549
 Frc consts  --      0.5411                 0.8430                 0.9805
 IR Inten    --      1.4904                 3.9556                 1.6810

                     37                     38                     39
                      A                      A                      A
 Frequencies --    849.7937               877.5140               890.0173
 Red. masses --      2.7918                 2.3818                 2.1092
 Frc consts  --      1.1878                 1.0806                 0.9844
 IR Inten    --      3.2700                20.2681                 7.1077

                     40                     41                     42
                      A                      A                      A
 Frequencies --    927.6129               938.9937               970.3794
 Red. masses --      1.9929                 1.7060                 1.6607
 Frc consts  --      1.0104                 0.8863                 0.9214
 IR Inten    --     11.8794                 9.5330                19.0363

                     43                     44                     45
                      A                      A                      A
 Frequencies --    981.4593               993.2809              1014.0771
 Red. masses --      2.2904                 1.5734                 1.5654
 Frc consts  --      1.2999                 0.9146                 0.9484
 IR Inten    --     24.3718                 4.7702                 5.5576

                     46                     47                     48
                      A                      A                      A
 Frequencies --   1023.4577              1046.0664              1064.5357
 Red. masses --      1.7971                 1.6313                 2.2128
 Frc consts  --      1.1091                 1.0517                 1.4774
 IR Inten    --     14.8558                 3.8801                 0.9681

                     49                     50                     51
                      A                      A                      A
 Frequencies --   1078.0147              1093.8552              1116.2295
 Red. masses --      1.8490                 1.6686                 2.2117
 Frc consts  --      1.2660                 1.1763                 1.6236
 IR Inten    --      6.4420                 0.2869                 0.5077

                     52                     53                     54
                      A                      A                      A
 Frequencies --   1119.0631              1135.4419              1140.8903
 Red. masses --      2.4462                 2.5206                 1.5029
 Frc consts  --      1.8049                 1.9146                 1.1526
 IR Inten    --      3.6661                 1.7466                 5.5668

                     55                     56                     57
                      A                      A                      A
 Frequencies --   1178.5966              1188.8588              1212.1284
 Red. masses --      1.5964                 1.1748                 1.3643
 Frc consts  --      1.3065                 0.9783                 1.1810
 IR Inten    --      1.3550                 0.8451                16.7026

                     58                     59                     60
                      A                      A                      A
 Frequencies --   1225.9039              1239.0302              1265.2718
 Red. masses --      1.3945                 1.9849                 1.4735
 Frc consts  --      1.2348                 1.7954                 1.3898
 IR Inten    --      5.0452                23.2172                14.6773

                     61                     62                     63
                      A                      A                      A
 Frequencies --   1279.1169              1294.0492              1322.5143
 Red. masses --      1.2917                 1.2693                 1.2589
 Frc consts  --      1.2452                 1.2523                 1.2973
 IR Inten    --      7.4297                 6.3783                 4.7667

                     64                     65                     66
                      A                      A                      A
 Frequencies --   1329.9824              1343.0723              1346.3841
 Red. masses --      1.2284                 1.2109                 1.1893
 Frc consts  --      1.2802                 1.2870                 1.2702
 IR Inten    --     18.2558                15.6386                 1.5742

                     67                     68                     69
                      A                      A                      A
 Frequencies --   1353.2855              1367.6585              1381.2719
 Red. masses --      1.1043                 1.1487                 1.3878
 Frc consts  --      1.1915                 1.2660                 1.5601
 IR Inten    --      1.1694                 2.3366                20.4454

                     70                     71                     72
                      A                      A                      A
 Frequencies --   1391.4451              1396.8228              1406.9297
 Red. masses --      1.4388                 1.4180                 1.3667
 Frc consts  --      1.6413                 1.6301                 1.5939
 IR Inten    --      9.2921                 2.5971                 1.1690

                     73                     74                     75
                      A                      A                      A
 Frequencies --   1409.6401              1420.6109              1423.7091
 Red. masses --      1.4302                 1.4539                 1.4256
 Frc consts  --      1.6744                 1.7287                 1.7025
 IR Inten    --      1.1660                 2.4111                 1.8536

                     76                     77                     78
                      A                      A                      A
 Frequencies --   1425.8364              1430.4024              1498.0288
 Red. masses --      1.4083                 1.4582                 1.0817
 Frc consts  --      1.6869                 1.7578                 1.4302
 IR Inten    --      4.1308                 1.0517                 3.2442

                     79                     80                     81
                      A                      A                      A
 Frequencies --   1500.0015              1506.5527              1507.8866
 Red. masses --      1.0901                 1.0944                 1.0974
 Frc consts  --      1.4452                 1.4635                 1.4702
 IR Inten    --     14.3749                 5.1824                 3.9168

                     82                     83                     84
                      A                      A                      A
 Frequencies --   1517.0365              1518.8746              1523.8009
 Red. masses --      1.1256                 1.0869                 1.0778
 Frc consts  --      1.5262                 1.4774                 1.4745
 IR Inten    --     10.8344                 2.4084                 8.0431

                     85                     86                     87
                      A                      A                      A
 Frequencies --   1525.8559              1527.5173              1531.1998
 Red. masses --      1.0781                 1.0832                 1.0887
 Frc consts  --      1.4789                 1.4891                 1.5039
 IR Inten    --      6.6040                 9.1766                 7.4498

                     88                     89                     90
                      A                      A                      A
 Frequencies --   1535.6913              1540.4815              2230.2239
 Red. masses --      1.0984                 1.0915                13.9259
 Frc consts  --      1.5263                 1.5261                40.8104
 IR Inten    --      0.3172                 4.7666               543.9455

                     91                     92                     93
                      A                      A                      A
 Frequencies --   2682.1675              3019.6353              3020.3133
 Red. masses --      1.0385                 1.0641                 1.0655
 Frc consts  --      4.4016                 5.7167                 5.7265
 IR Inten    --     21.0074                18.6652                 7.2358

                     94                     95                     96
                      A                      A                      A
 Frequencies --   3027.0220              3029.2483              3030.6756
 Red. masses --      1.0656                 1.0653                 1.0649
 Frc consts  --      5.7525                 5.7597                 5.7631
 IR Inten    --     49.4695                 1.2612                13.7041

                     97                     98                     99
                      A                      A                      A
 Frequencies --   3036.2491              3040.7803              3048.4095
 Red. masses --      1.0690                 1.0679                 1.0731
 Frc consts  --      5.8063                 5.8177                 5.8752
 IR Inten    --     32.7977                33.1692                 2.8750

                    100                    101                    102
                      A                      A                      A
 Frequencies --   3052.7391              3055.1634              3061.8043
 Red. masses --      1.0940                 1.0629                 1.0687
 Frc consts  --      6.0070                 5.8455                 5.9027
 IR Inten    --     22.7464                 2.6268                20.1308

                    103                    104                    105
                      A                      A                      A
 Frequencies --   3062.9871              3067.7881              3070.2402
 Red. masses --      1.0890                 1.0903                 1.0961
 Frc consts  --      6.0194                 6.0455                 6.0877
 IR Inten    --     24.0931                69.2310                68.2141

                    106                    107                    108
                      A                      A                      A
 Frequencies --   3079.8213              3081.0121              3085.5306
 Red. masses --      1.0731                 1.0956                 1.0936
 Frc consts  --      5.9973                 6.1275                 6.1344
 IR Inten    --      9.7269               112.6214                52.3039

                    109                    110                    111
                      A                      A                      A
 Frequencies --   3089.3533              3094.3331              3102.0939
 Red. masses --      1.0895                 1.1016                 1.0940
 Frc consts  --      6.1264                 6.2146                 6.2026
 IR Inten    --     51.1719                48.3158                47.4194

                    112                    113                    114
                      A                      A                      A
 Frequencies --   3106.5341              3129.5246              3486.5887
 Red. masses --      1.1040                 1.1064                 1.0743
 Frc consts  --      6.2773                 6.3841                 7.6944
 IR Inten    --     35.9355                21.4097                 0.9980

 - Thermochemistry -
 -------------------
 Temperature   298.150 Kelvin.  Pressure   1.00000 Atm.
 Atom     1 has atomic number  6 and mass  12.00000

 Molecular mass:   244.17217 amu.
 Principal axes and moments of inertia in atomic units:
                           1         2         3
     Eigenvalues --  2064.52887********************
           X            1.00000  -0.00255   0.00101
           Y            0.00254   0.99999   0.00367
           Z           -0.00102  -0.00367   0.99999
 This molecule is an asymmetric top.
 Rotational symmetry number  1.
 Warning -- assumption of classical behavior for rotation
           may cause significant error
 Rotational temperatures (Kelvin)      0.04195     0.00571     0.00528
 Rotational constants (GHZ):           0.87417     0.11889     0.10997
 Zero-point vibrational energy     934342.0 (Joules/Mol)
                                  223.31309 (Kcal/Mol)
 Warning -- explicit consideration of  27 degrees of freedom as
           vibrations may cause significant error
 Vibrational temperatures:     16.72    29.34    44.92    50.93    64.07
          (Kelvin)             71.63    91.57   129.58   144.55   172.21
                              234.18   261.81   305.47   341.12   355.63
                              402.05   426.27   450.79   469.82   520.33
                              550.11   606.95   650.57   706.86   777.99
                              811.84   845.80   914.36   937.25  1019.20
                             1034.54  1054.10  1100.81  1147.36  1176.01
                             1209.54  1222.66  1262.55  1280.54  1334.63
                             1351.00  1396.16  1412.10  1429.11  1459.03
                             1472.53  1505.06  1531.63  1551.02  1573.81
                             1606.01  1610.08  1633.65  1641.49  1695.74
                             1710.50  1743.98  1763.80  1782.69  1820.44
                             1840.36  1861.85  1902.80  1913.55  1932.38
                             1937.15  1947.08  1967.76  1987.34  2001.98
                             2009.72  2024.26  2028.16  2043.94  2048.40
                             2051.46  2058.03  2155.33  2158.17  2167.59
                             2169.51  2182.68  2185.32  2192.41  2195.37
                             2197.76  2203.05  2209.52  2216.41  3208.79
                             3859.04  4344.58  4345.56  4355.21  4358.41
                             4360.47  4368.49  4375.00  4385.98  4392.21
                             4395.70  4405.25  4406.96  4413.86  4417.39
                             4431.18  4432.89  4439.39  4444.89  4452.06
                             4463.22  4469.61  4502.69  5016.42

 Zero-point correction=                           0.355872 (Hartree/Particle)
 Thermal correction to Energy=                    0.375203
 Thermal correction to Enthalpy=                  0.376147
 Thermal correction to Gibbs Free Energy=         0.303040
 Sum of electronic and zero-point Energies=          -1050.430189
 Sum of electronic and thermal Energies=             -1050.410859
 Sum of electronic and thermal Enthalpies=           -1050.409914
 Sum of electronic and thermal Free Energies=        -1050.483021

                     E (Thermal)             CV                S
                      KCal/Mol        Cal/Mol-Kelvin    Cal/Mol-Kelvin
 Total                  235.443             69.426            153.865
 Electronic               0.000              0.000              0.000
 Translational            0.889              2.981             42.379
 Rotational               0.889              2.981             34.596
 Vibrational            233.666             63.464             76.890
 Vibration     1          0.593              1.987              7.713
 Vibration     2          0.593              1.986              6.596
 Vibration     3          0.594              1.983              5.750
 Vibration     4          0.594              1.982              5.501
 Vibration     5          0.595              1.980              5.047
 Vibration     6          0.595              1.978              4.826
 Vibration     7          0.597              1.972              4.341
 Vibration     8          0.602              1.956              3.659
 Vibration     9          0.604              1.949              3.445
 Vibration    10          0.609              1.933              3.105
 Vibration    11          0.623              1.888              2.517
 Vibration    12          0.630              1.864              2.308
 Vibration    13          0.643              1.822              2.024
 Vibration    14          0.656              1.784              1.825
 Vibration    15          0.661              1.767              1.751
 Vibration    16          0.680              1.712              1.537
 Vibration    17          0.690              1.681              1.438
 Vibration    18          0.701              1.648              1.345
 Vibration    19          0.710              1.622              1.277
 Vibration    20          0.736              1.551              1.115
 Vibration    21          0.752              1.508              1.030
 Vibration    22          0.784              1.423              0.886
 Vibration    23          0.811              1.356              0.789
 Vibration    24          0.847              1.269              0.680
 Vibration    25          0.896              1.160              0.564
 Vibration    26          0.920              1.109              0.515
 Vibration    27          0.945              1.058              0.471

                           ! Non-Optimized Parameters !
 Normal termination of Gaussian 16 at Thu Dec 10 21:35:58 2020.

 ----------------------------------------------------------------------
 # B3LYP/6-311++G(d,p) empiricaldispersion=gd3bj scf=xqc pop=npa geom=c
 heck
 ----------------------------------------------------------------------

 ---------------------------------------
 CID_151778282_JID_6160_Energie_neutraal
 ---------------------------------------
 Structure from the checkpoint file:  "JID_6160.chk"
 Charge =  0 Multiplicity = 1

 SCF Done:  E(RB3LYP) =  -1051.00159237     A.U. after   16 cycles
 Normal termination of Gaussian 16 at Thu Dec 10 21:43:58 2020.

 ----------------------------------------------------------------------
 # B3LYP/6-311++G(d,p) empiricaldispersion=gd3bj scf=xqc pop=npa geom=c
 heck
 ----------------------------------------------------------------------

 -------------------------------------
 CID_151778282_JID_6160_Energie_kation
 -------------------------------------
 Structure from the checkpoint file:  "JID_6160.chk"
 Charge =  1 Multiplicity = 2

 SCF Done:  E(UB3LYP) =  -1050.65209331     A.U. after   33 cycles
 SCF Done:  E(UB3LYP) =  -1050.69783572     a.u. after   17 cycles
 Normal termination of Gaussian 16 at Thu Dec 10 23:30:12 2020.
 Gaussian 16:  ES64L-G16RevA.03 25-Dec-2016

 ----------------------------------------------------------------------
 # B3LYP/6-311++G(d,p) empiricaldispersion=gd3bj scf=xqc pop=npa geom=c
 heck
 ----------------------------------------------------------------------

 ------------------------------------
 CID_151778282_JID_6160_Energie_anion
 ------------------------------------
 Structure from the checkpoint file:  "JID_6160.chk"
 Charge = -1 Multiplicity = 2

                         Standard orientation:
 ---------------------------------------------------------------------
 Center     Atomic      Atomic             Coordinates (Angstroms)
 Number     Number       Type             X           Y           Z
 ---------------------------------------------------------------------
      1          6           0       -0.965771   -1.906830    0.020623
      2          6           0        0.351531   -2.011528    0.814496
      3          6           0        1.632047   -2.145749   -0.027045
      4          6           0        2.015279   -0.946467   -0.908998
      5          6           0        2.212779    0.382998   -0.165611
      6          6           0        3.254306    0.336874    0.960719
      7          7           0        4.605141   -0.124504    0.593513
      8          7           0        5.097563    0.646251   -0.548098
      9          7           0        6.018326    1.411729   -0.198213
     10          7           0        6.855260    2.170333   -0.042418
     11          6           0       -1.376954   -0.484483   -0.382268
     12          6           0       -2.687961   -0.417535   -1.180940
     13          6           0       -3.929493   -0.972223   -0.463404
     14          6           0       -4.231939   -0.333382    0.898727
     15          6           0       -4.376615    1.190593    0.885399
     16         16           0       -5.767898    1.836750   -0.137594
     17          1           0       -1.769366   -2.338289    0.630057
     18          1           0       -0.901576   -2.537332   -0.878691
     19          1           0        0.433932   -1.153773    1.496611
     20          1           0        0.298344   -2.897294    1.460171
     21          1           0        2.463254   -2.373436    0.655575
     22          1           0        1.531779   -3.029867   -0.671422
     23          1           0        2.938836   -1.192804   -1.450501
     24          1           0        1.257582   -0.804522   -1.688416
     25          1           0        2.512252    1.149405   -0.889169
     26          1           0        1.264033    0.718631    0.270757
     27          1           0        3.361648    1.330476    1.409556
     28          1           0        2.933797   -0.339107    1.762757
     29          1           0        4.530883   -1.066599    0.210830
     30          1           0       -1.461102    0.129035    0.525811
     31          1           0       -0.588363   -0.019940   -0.983257
     32          1           0       -2.868093    0.627555   -1.468295
     33          1           0       -2.558042   -0.966427   -2.123662
     34          1           0       -4.800701   -0.845986   -1.118038
     35          1           0       -3.821693   -2.054114   -0.320210
     36          1           0       -5.151521   -0.773058    1.301990
     37          1           0       -3.429493   -0.579454    1.608673
     38          1           0       -4.600153    1.554874    1.892697
     39          1           0       -3.452115    1.680584    0.567425
     40          1           0       -5.255039    1.513167   -1.343411
 ---------------------------------------------------------------------

 SCF Done:  E(UB3LYP) =  -1051.00248442     A.U. after   33 cycles
 SCF Done:  E(UB3LYP) =  -1051.00248442     a.u. after    1 cycles

 The electronic state is 2-A.
 Alpha  occ. eigenvalues --  -88.75965 -14.32696 -14.24502 -14.23952 -14.22836
 Alpha  occ. eigenvalues --  -10.12105 -10.09692 -10.09038 -10.08304 -10.08229
 Alpha  occ. eigenvalues --  -10.07894 -10.07868 -10.07832 -10.07673 -10.07224
 Alpha  occ. eigenvalues --  -10.06839  -7.84646  -5.81013  -5.80680  -5.80030
 Alpha  occ. eigenvalues --   -1.00478  -0.87517  -0.76255  -0.74131  -0.72092
 Alpha  occ. eigenvalues --   -0.69589  -0.66612  -0.63886  -0.61010  -0.58478
 Alpha  occ. eigenvalues --   -0.55676  -0.52455  -0.50443  -0.46733  -0.46332
 Alpha  occ. eigenvalues --   -0.43842  -0.40609  -0.39644  -0.38954  -0.38423
 Alpha  occ. eigenvalues --   -0.37408  -0.37044  -0.35381  -0.34380  -0.34116
 Alpha  occ. eigenvalues --   -0.33451  -0.33007  -0.32369  -0.31762  -0.30568
 Alpha  occ. eigenvalues --   -0.29783  -0.29106  -0.27929  -0.27158  -0.26976
 Alpha  occ. eigenvalues --   -0.26043  -0.25426  -0.24215  -0.23908  -0.23708
 Alpha  occ. eigenvalues --   -0.22838  -0.22236  -0.22043  -0.21943  -0.15972
 Alpha  occ. eigenvalues --   -0.14129  -0.12452   0.03639
 Alpha virt. eigenvalues --    0.04900   0.05908   0.06125   0.07074   0.07654
 Alpha virt. eigenvalues --    0.08017   0.09025   0.09116   0.09491   0.09560
 Alpha virt. eigenvalues --    0.10206   0.10909   0.10949   0.11082   0.11705

  Beta  occ. eigenvalues --  -88.75953 -14.32375 -14.24559 -14.23479 -14.22699
  Beta  occ. eigenvalues --  -10.12087 -10.09686 -10.09023 -10.08292 -10.08213
  Beta  occ. eigenvalues --  -10.07886 -10.07861 -10.07817 -10.07659 -10.07211
  Beta  occ. eigenvalues --  -10.06835  -7.84633  -5.80989  -5.80671  -5.80020
  Beta  occ. eigenvalues --   -0.99837  -0.87198  -0.75990  -0.74101  -0.72050
  Beta  occ. eigenvalues --   -0.69541  -0.66557  -0.63834  -0.60947  -0.58414
  Beta  occ. eigenvalues --   -0.55606  -0.52383  -0.50379  -0.46668  -0.46260
  Beta  occ. eigenvalues --   -0.43604  -0.40575  -0.39603  -0.38588  -0.37976
  Beta  occ. eigenvalues --   -0.37062  -0.36705  -0.35263  -0.34233  -0.34005
  Beta  occ. eigenvalues --   -0.33353  -0.32762  -0.32135  -0.31098  -0.30524
  Beta  occ. eigenvalues --   -0.29720  -0.29043  -0.27891  -0.27119  -0.26839
  Beta  occ. eigenvalues --   -0.26008  -0.25383  -0.24106  -0.23840  -0.23663
  Beta  occ. eigenvalues --   -0.22742  -0.22039  -0.21939  -0.21584  -0.15940
  Beta  occ. eigenvalues --   -0.13924  -0.12288
  Beta virt. eigenvalues --    0.05396   0.06204   0.06363   0.07061   0.07731
  Beta virt. eigenvalues --    0.08060   0.08664   0.09149   0.09509   0.09566
  Beta virt. eigenvalues --    0.09772   0.10390   0.11006   0.11067   0.11166

 Mulliken charges and spin densities:
               1          2
     1  C   -0.166238  -0.260995
     2  C   -0.007407  -0.132301
     3  C   -0.181122  -0.272383
     4  C    0.025442  -0.151220
     5  C   -0.278418   0.121922
     6  C   -0.321506  -0.484029
     7  N   -0.038640  -0.040573
     8  N   -0.536000   0.162924
     9  N    0.456246   0.057917
    10  N   -0.300420   0.226397
    11  C   -0.524053   0.512898
    12  C    0.630199  -1.076932
    13  C   -0.487287   0.041730
    14  C    0.074555  -0.197306
    15  C    0.089075  -0.412098
    16  S    0.061674  -0.209263
    17  H    0.117816  -0.005795
    18  H    0.041943   0.095249
    19  H    0.094852   0.007060
    20  H   -0.125723   0.299303
    21  H    0.082866   0.050426
    22  H   -0.079450   0.228120
    23  H    0.066700   0.138682
    24  H    0.028106   0.091415
    25  H    0.112737   0.070979
    26  H    0.013606   0.121579
    27  H    0.155393   0.006385
    28  H    0.071473   0.107940
    29  H    0.066347   0.165062
    30  H    0.205609  -0.124218
    31  H    0.171148  -0.030335
    32  H   -0.064864   0.245575
    33  H    0.059927   0.089260
    34  H   -0.015701   0.183045
    35  H   -0.112020   0.264497
    36  H   -0.146560   0.282065
    37  H   -0.049969   0.237893
    38  H   -0.122711   0.345996
    39  H    0.049320   0.104142
    40  H   -0.116943   0.138988
 Sum of Mulliken charges =  -1.00000   1.00000

 Dipole moment (field-independent basis, Debye):
    X=             -5.2725    Y=             -2.1564    Z=              0.1293  Tot=              5.6979
 Quadrupole moment (field-independent basis, Debye-Ang):
   XX=           -275.0029   YY=           -148.0026   ZZ=           -133.1217
   XY=            -11.5734   XZ=              3.8914   YZ=              1.1326

 Summary of Natural Population Analysis:

                                       Natural Population
                Natural  -----------------------------------------------
    Atom  No    Charge         Core      Valence    Rydberg      Total
 -----------------------------------------------------------------------
      C    1   -0.19292      0.99962     2.18490    0.00840     3.19292
      C    2   -0.19133      0.99963     2.18247    0.00924     3.19133
      C    3   -0.19012      0.99962     2.18189    0.00860     3.19012
      C    4   -0.19774      0.99962     2.18873    0.00939     3.19774
      C    5   -0.20470      0.99962     2.19779    0.00729     3.20470
      C    6   -0.09085      0.99962     2.08019    0.01103     3.09085
      N    7   -0.24217      0.99975     2.72906    0.01336     3.74217
      N    8   -0.16167      0.99973     2.64560    0.01634     3.66167
      N    9    0.13763      0.99971     2.34710    0.01555     3.36237
      N   10    0.00890      0.99982     2.47699    0.01430     3.49110
      C   11   -0.19186      0.99962     2.18495    0.00729     3.19186
      C   12   -0.19154      0.99963     2.18241    0.00950     3.19154
      C   13   -0.19452      0.99962     2.18665    0.00825     3.19452
      C   14   -0.19927      0.99961     2.18927    0.01039     3.19927
      C   15   -0.24290      0.99958     2.23469    0.00863     3.24290
      S   16   -0.02925      4.99967     3.01438    0.01520     8.02925
      H   17    0.09599      0.00000     0.40267    0.00134     0.40401
      H   18    0.09328      0.00000     0.40556    0.00116     0.40672
      H   19    0.09334      0.00000     0.40539    0.00128     0.40666
      H   20    0.09734      0.00000     0.40177    0.00089     0.40266
      H   21    0.09425      0.00000     0.40455    0.00121     0.40575
      H   22    0.09561      0.00000     0.40336    0.00102     0.40439
      H   23    0.10114      0.00000     0.39729    0.00157     0.39886
      H   24    0.09642      0.00000     0.40245    0.00113     0.40358
      H   25    0.10609      0.00000     0.39276    0.00115     0.39391
      H   26    0.09570      0.00000     0.40298    0.00132     0.40430
      H   27    0.09340      0.00000     0.40556    0.00105     0.40660
      H   28    0.09236      0.00000     0.40635    0.00129     0.40764
      H   29    0.16967      0.00000     0.32706    0.00327     0.33033
      H   30    0.09120      0.00000     0.40734    0.00145     0.40880
      H   31    0.09966      0.00000     0.39901    0.00133     0.40034
      H   32    0.09481      0.00000     0.40403    0.00116     0.40519
      H   33    0.09783      0.00000     0.40111    0.00106     0.40217
      H   34    0.09918      0.00000     0.39938    0.00143     0.40082
      H   35    0.09930      0.00000     0.39951    0.00119     0.40070
      H   36    0.10154      0.00000     0.39712    0.00134     0.39846
      H   37    0.09980      0.00000     0.39889    0.00131     0.40020
      H   38    0.10597      0.00000     0.39265    0.00137     0.39403
      H   39    0.10181      0.00000     0.39675    0.00144     0.39819
      H   40    0.05860      0.00000     0.43835    0.00305     0.44140
 =======================================================================
   * Total *   -0.00000     19.99447    46.79897    0.20656    67.00000

 Normal termination of Gaussian 16 at Thu Dec 10 23:53:15 2020.
