 Gaussian 16, Revision A.03,

 -----------------------------------------------------------
 # opt freq B3LYP/6-31G(d) empiricaldispersion=gd3bj scf=xqc
 -----------------------------------------------------------

 ------------------------------
 CID_64967299_JID_9956_neutraal
 ------------------------------
 Symbolic Z-matrix:
 Charge =  0 Multiplicity = 1

 SCF Done:  E(RB3LYP) =  -862.086259660     A.U. after   14 cycles
 SCF Done:  E(RB3LYP) =  -862.093715636     A.U. after   13 cycles
 SCF Done:  E(RB3LYP) =  -862.094919643     A.U. after   13 cycles
 SCF Done:  E(RB3LYP) =  -862.096146082     A.U. after   12 cycles
 SCF Done:  E(RB3LYP) =  -862.096409674     A.U. after   12 cycles
 SCF Done:  E(RB3LYP) =  -862.096819502     A.U. after   12 cycles
 SCF Done:  E(RB3LYP) =  -862.096975804     A.U. after   12 cycles
 SCF Done:  E(RB3LYP) =  -862.097093560     A.U. after   11 cycles
 SCF Done:  E(RB3LYP) =  -862.097194072     A.U. after   11 cycles
 SCF Done:  E(RB3LYP) =  -862.097257684     A.U. after   11 cycles
 SCF Done:  E(RB3LYP) =  -862.098535655     A.U. after   11 cycles
 SCF Done:  E(RB3LYP) =  -862.098555105     A.U. after   11 cycles
 SCF Done:  E(RB3LYP) =  -862.098555047     A.U. after    9 cycles
 SCF Done:  E(RB3LYP) =  -862.098555145     A.U. after    8 cycles
 SCF Done:  E(RB3LYP) =  -862.098555112     A.U. after    7 cycles
 Optimization completed.
    -- Stationary point found.
 Normal termination of Gaussian 16 at Sat Dec 12 10:51:20 2020.

 --------------------------------------------------------------------
 #N Geom=AllCheck Guess=TCheck SCRF=Check GenChk RB3LYP/6-31G(d) Freq
 --------------------------------------------------------------------

 Structure from the checkpoint file:  "JID_9956.chk"
 ------------------------------
 CID_64967299_JID_9956_neutraal
 ------------------------------
 Charge =  0 Multiplicity = 1

 SCF Done:  E(RB3LYP) =  -862.098555112     A.U. after    1 cycles

  Exact polarizability: 177.708  -1.393 154.255   4.810   9.729 151.201
 Approx polarizability: 230.480  -3.285 218.207  18.376  24.355 249.690

                      1                      2                      3
                      A                      A                      A
 Frequencies --     25.2707                41.5265                48.9064
 Red. masses --      3.7278                 4.4432                 4.2533
 Frc consts  --      0.0014                 0.0045                 0.0060
 IR Inten    --      0.3379                 0.7682                 0.2400

                      4                      5                      6
                      A                      A                      A
 Frequencies --     65.9513                74.5680                75.5261
 Red. masses --      3.3440                 3.3413                 3.5661
 Frc consts  --      0.0086                 0.0109                 0.0120
 IR Inten    --      0.0645                 0.1204                 3.8065

                      7                      8                      9
                      A                      A                      A
 Frequencies --    100.8452               136.3908               149.3145
 Red. masses --      2.6115                 2.1738                 4.1369
 Frc consts  --      0.0156                 0.0238                 0.0543
 IR Inten    --      1.3070                 0.9030                 0.6533

                     10                     11                     12
                      A                      A                      A
 Frequencies --    178.6568               192.2736               216.2389
 Red. masses --      2.6833                 3.7613                 3.6269
 Frc consts  --      0.0505                 0.0819                 0.0999
 IR Inten    --      1.6118                 2.1344                 0.0580

                     13                     14                     15
                      A                      A                      A
 Frequencies --    237.5302               249.1770               264.5033
 Red. masses --      2.8855                 1.6072                 2.1461
 Frc consts  --      0.0959                 0.0588                 0.0885
 IR Inten    --      1.3462                 0.9867                 1.4248

                     16                     17                     18
                      A                      A                      A
 Frequencies --    311.4049               335.6683               354.1142
 Red. masses --      2.9131                 3.0677                 2.1735
 Frc consts  --      0.1664                 0.2037                 0.1606
 IR Inten    --      2.6392                 1.9879                 0.4365

                     19                     20                     21
                      A                      A                      A
 Frequencies --    380.0417               414.0869               431.3188
 Red. masses --      3.3876                 4.9533                 4.6287
 Frc consts  --      0.2883                 0.5004                 0.5073
 IR Inten    --     12.9143                 8.7885                 8.7784

                     22                     23                     24
                      A                      A                      A
 Frequencies --    452.8015               463.9039               472.4195
 Red. masses --      3.1337                 4.0266                 2.8140
 Frc consts  --      0.3785                 0.5106                 0.3700
 IR Inten    --     17.7857                 3.4902                 3.3607

                     25                     26                     27
                      A                      A                      A
 Frequencies --    511.4888               538.5387               580.4372
 Red. masses --      1.7152                 2.9174                 2.8199
 Frc consts  --      0.2644                 0.4985                 0.5597
 IR Inten    --     15.3024                10.7245                 3.6517

                     28                     29                     30
                      A                      A                      A
 Frequencies --    606.8150               652.3721               655.3173
 Red. masses --      4.0015                 2.3811                 2.7996
 Frc consts  --      0.8681                 0.5971                 0.7084
 IR Inten    --      2.8326                41.8363                60.7351

                     31                     32                     33
                      A                      A                      A
 Frequencies --    755.5819               774.2647               789.3104
 Red. masses --      2.3417                 2.0001                 1.5114
 Frc consts  --      0.7877                 0.7065                 0.5548
 IR Inten    --     11.4573                 2.0850                 3.3120

                     34                     35                     36
                      A                      A                      A
 Frequencies --    789.9348               811.2899               815.9161
 Red. masses --      2.7354                 1.8522                 2.9615
 Frc consts  --      1.0057                 0.7183                 1.1616
 IR Inten    --      0.5686                 1.7103                 6.8690

                     37                     38                     39
                      A                      A                      A
 Frequencies --    820.0713               835.4170               860.6603
 Red. masses --      1.4730                 2.1731                 2.4679
 Frc consts  --      0.5837                 0.8936                 1.0770
 IR Inten    --      7.1024                11.2885                 3.7830

                     40                     41                     42
                      A                      A                      A
 Frequencies --    871.7707               899.6634               910.8948
 Red. masses --      2.7625                 2.9529                 1.6903
 Frc consts  --      1.2370                 1.4082                 0.8263
 IR Inten    --      0.4226                11.5602                 2.1085

                     43                     44                     45
                      A                      A                      A
 Frequencies --    929.1902               955.9465               961.2960
 Red. masses --      2.2717                 2.4963                 2.9521
 Frc consts  --      1.1556                 1.3440                 1.6073
 IR Inten    --     13.5022                 0.7390                 1.0261

                     46                     47                     48
                      A                      A                      A
 Frequencies --    971.9779              1011.8658              1017.7645
 Red. masses --      2.3643                 1.8893                 1.9758
 Frc consts  --      1.3160                 1.1397                 1.2058
 IR Inten    --     10.3237                 1.7467                 0.8136

                     49                     50                     51
                      A                      A                      A
 Frequencies --   1039.9446              1047.1029              1071.7989
 Red. masses --      2.0107                 1.4649                 1.9000
 Frc consts  --      1.2812                 0.9463                 1.2860
 IR Inten    --     15.2444                 2.8377                 5.4859

                     52                     53                     54
                      A                      A                      A
 Frequencies --   1076.8328              1085.7548              1097.2505
 Red. masses --      1.8492                 1.4100                 1.7270
 Frc consts  --      1.2634                 0.9794                 1.2251
 IR Inten    --     14.5526                 2.1682                 7.0805

                     55                     56                     57
                      A                      A                      A
 Frequencies --   1107.3590              1118.7550              1135.2904
 Red. masses --      1.9894                 1.8904                 1.8930
 Frc consts  --      1.4373                 1.3940                 1.4376
 IR Inten    --      0.7948                 2.0014                 4.4690

                     58                     59                     60
                      A                      A                      A
 Frequencies --   1143.2544              1165.0799              1169.8660
 Red. masses --      1.2214                 2.2446                 2.8944
 Frc consts  --      0.9406                 1.7952                 2.3339
 IR Inten    --      3.0690                48.7121                18.5910

                     61                     62                     63
                      A                      A                      A
 Frequencies --   1207.3668              1213.8284              1221.1947
 Red. masses --      1.3647                 1.5647                 2.3911
 Frc consts  --      1.1721                 1.3583                 2.1010
 IR Inten    --      1.9461                21.3310                11.2255

                     64                     65                     66
                      A                      A                      A
 Frequencies --   1240.2245              1256.2539              1268.2701
 Red. masses --      2.0617                 1.2803                 1.3592
 Frc consts  --      1.8684                 1.1905                 1.2881
 IR Inten    --      4.2737                 6.9321                13.4637

                     67                     68                     69
                      A                      A                      A
 Frequencies --   1277.4510              1284.4899              1294.3514
 Red. masses --      1.4788                 1.0939                 1.3843
 Frc consts  --      1.4218                 1.0634                 1.3664
 IR Inten    --     12.5446                 1.6505                10.9535

                     70                     71                     72
                      A                      A                      A
 Frequencies --   1310.1948              1321.5778              1339.1360
 Red. masses --      1.2343                 1.8855                 1.8094
 Frc consts  --      1.2484                 1.9403                 1.9118
 IR Inten    --     12.1008                24.9020                41.0533

                     73                     74                     75
                      A                      A                      A
 Frequencies --   1346.3326              1349.7674              1371.1867
 Red. masses --      1.4486                 1.3712                 1.5907
 Frc consts  --      1.5471                 1.4719                 1.7621
 IR Inten    --     16.1706                 2.6186                14.9002

                     76                     77                     78
                      A                      A                      A
 Frequencies --   1375.6960              1395.5459              1405.2729
 Red. masses --      1.6488                 1.3907                 1.4019
 Frc consts  --      1.8385                 1.5958                 1.6311
 IR Inten    --     92.2180                33.3976                32.3836

                     79                     80                     81
                      A                      A                      A
 Frequencies --   1417.8941              1421.3600              1435.9781
 Red. masses --      1.5756                 1.4529                 1.6538
 Frc consts  --      1.8663                 1.7294                 2.0093
 IR Inten    --     14.6699                 7.9501                33.5513

                     82                     83                     84
                      A                      A                      A
 Frequencies --   1438.7975              1445.5107              1489.8981
 Red. masses --      1.4513                 1.2965                 1.1099
 Frc consts  --      1.7702                 1.5962                 1.4516
 IR Inten    --     32.9385                 7.7322                 6.2297

                     85                     86                     87
                      A                      A                      A
 Frequencies --   1491.6574              1497.0693              1505.1422
 Red. masses --      1.4255                 1.4528                 1.0999
 Frc consts  --      1.8688                 1.9184                 1.4681
 IR Inten    --     13.5074                79.7404                14.7465

                     88                     89                     90
                      A                      A                      A
 Frequencies --   1515.1013              1522.8983              1531.3673
 Red. masses --      1.4733                 1.0728                 1.0747
 Frc consts  --      1.9926                 1.4659                 1.4849
 IR Inten    --     22.6052                 6.3500                 4.1035

                     91                     92                     93
                      A                      A                      A
 Frequencies --   1534.8432              1536.3591              1542.4678
 Red. masses --      1.1621                 1.2567                 1.1625
 Frc consts  --      1.6129                 1.7478                 1.6295
 IR Inten    --      7.2142                11.4227                13.3485

                     94                     95                     96
                      A                      A                      A
 Frequencies --   1546.4269              1549.9159              1762.1291
 Red. masses --      1.4996                 1.1024                10.0691
 Frc consts  --      2.1129                 1.5603                18.4211
 IR Inten    --     13.9057                12.0638               221.9811

                     97                     98                     99
                      A                      A                      A
 Frequencies --   1808.2078              2927.4471              2976.2164
 Red. masses --      8.5151                 1.0733                 1.0734
 Frc consts  --     16.4036                 5.4193                 5.6018
 IR Inten    --    421.5344                77.7038                82.5902

                    100                    101                    102
                      A                      A                      A
 Frequencies --   3031.1114              3040.8620              3041.2470
 Red. masses --      1.0701                 1.0613                 1.0645
 Frc consts  --      5.7926                 5.7822                 5.8008
 IR Inten    --     31.9387                25.7562                24.8979

                    103                    104                    105
                      A                      A                      A
 Frequencies --   3049.2549              3050.1101              3066.5209
 Red. masses --      1.0834                 1.0419                 1.0799
 Frc consts  --      5.9349                 5.7109                 5.9833
 IR Inten    --     37.9714                19.0119                17.0644

                    106                    107                    108
                      A                      A                      A
 Frequencies --   3072.3350              3081.3262              3084.6617
 Red. masses --      1.0981                 1.0850                 1.0983
 Frc consts  --      6.1071                 6.0694                 6.1570
 IR Inten    --     12.3768                71.1464                 4.3369

                    109                    110                    111
                      A                      A                      A
 Frequencies --   3085.4583              3107.2063              3112.4999
 Red. masses --      1.0852                 1.1007                 1.0946
 Frc consts  --      6.0870                 6.2614                 6.2480
 IR Inten    --     34.1940                29.6885                21.2551

                    112                    113                    114
                      A                      A                      A
 Frequencies --   3129.2787              3134.9876              3138.7750
 Red. masses --      1.0897                 1.0876                 1.0971
 Frc consts  --      6.2871                 6.2980                 6.3682
 IR Inten    --     10.5412                22.8691                44.3031

                    115                    116                    117
                      A                      A                      A
 Frequencies --   3147.8155              3156.2406              3195.8580
 Red. masses --      1.0529                 1.0581                 1.0930
 Frc consts  --      6.1467                 6.2104                 6.5772
 IR Inten    --     15.1969                12.3942                 4.6239

                    118                    119                    120
                      A                      A                      A
 Frequencies --   3223.5347              3238.2175              3581.2976
 Red. masses --      1.1190                 1.1155                 1.0758
 Frc consts  --      6.8506                 6.8918                 8.1293
 IR Inten    --      2.9319                21.8834                17.2489

 - Thermochemistry -
 -------------------
 Temperature   298.150 Kelvin.  Pressure   1.00000 Atm.
 Atom     1 has atomic number  6 and mass  12.00000

 Molecular mass:   265.17903 amu.
 Principal axes and moments of inertia in atomic units:
                           1         2         3
     Eigenvalues --  2899.465476648.753557223.42108
           X            0.99988  -0.01306  -0.00852
           Y            0.01300   0.99990  -0.00624
           Z            0.00860   0.00612   0.99994
 This molecule is an asymmetric top.
 Rotational symmetry number  1.
 Warning -- assumption of classical behavior for rotation
           may cause significant error
 Rotational temperatures (Kelvin)      0.02987     0.01303     0.01199
 Rotational constants (GHZ):           0.62244     0.27144     0.24985
 Zero-point vibrational energy     971379.3 (Joules/Mol)
                                  232.16523 (Kcal/Mol)
 Warning -- explicit consideration of  28 degrees of freedom as
           vibrations may cause significant error
 Vibrational temperatures:     36.36    59.75    70.37    94.89   107.29
          (Kelvin)            108.67   145.09   196.24   214.83   257.05
                              276.64   311.12   341.75   358.51   380.56
                              448.04   482.95   509.49   546.80   595.78
                              620.57   651.48   667.45   679.71   735.92
                              774.84   835.12   873.07   938.62   942.86
                             1087.11  1113.99  1135.64  1136.54  1167.27
                             1173.92  1179.90  1201.98  1238.30  1254.28
                             1294.41  1310.57  1336.90  1375.39  1383.09
                             1398.46  1455.85  1464.34  1496.25  1506.55
                             1542.08  1549.32  1562.16  1578.70  1593.24
                             1609.64  1633.43  1644.89  1676.29  1683.18
                             1737.13  1746.43  1757.03  1784.41  1807.47
                             1824.76  1837.97  1848.09  1862.28  1885.08
                             1901.46  1926.72  1937.07  1942.01  1972.83
                             1979.32  2007.88  2021.87  2040.03  2045.02
                             2066.05  2070.11  2079.77  2143.63  2146.16
                             2153.95  2165.56  2179.89  2191.11  2203.30
                             2208.30  2210.48  2219.27  2224.96  2229.98
                             2535.31  2601.61  4211.94  4282.11  4361.09
                             4375.12  4375.68  4387.20  4388.43  4412.04
                             4420.40  4433.34  4438.14  4439.29  4470.58
                             4478.19  4502.33  4510.55  4516.00  4529.00
                             4541.13  4598.13  4637.95  4659.07  5152.69

 Zero-point correction=                           0.369979 (Hartree/Particle)
 Thermal correction to Energy=                    0.388471
 Thermal correction to Enthalpy=                  0.389416
 Thermal correction to Gibbs Free Energy=         0.322347
 Sum of electronic and zero-point Energies=           -861.728576
 Sum of electronic and thermal Energies=              -861.710084
 Sum of electronic and thermal Enthalpies=            -861.709139
 Sum of electronic and thermal Free Energies=         -861.776208

                     E (Thermal)             CV                S
                      KCal/Mol        Cal/Mol-Kelvin    Cal/Mol-Kelvin
 Total                  243.770             71.014            141.159
 Electronic               0.000              0.000              0.000
 Translational            0.889              2.981             42.625
 Rotational               0.889              2.981             33.298
 Vibrational            241.992             65.053             65.235
 Vibration     1          0.593              1.985              6.170
 Vibration     2          0.594              1.981              5.185
 Vibration     3          0.595              1.978              4.861
 Vibration     4          0.597              1.971              4.271
 Vibration     5          0.599              1.966              4.029
 Vibration     6          0.599              1.965              4.004
 Vibration     7          0.604              1.948              3.438
 Vibration     8          0.614              1.917              2.854
 Vibration     9          0.618              1.903              2.681
 Vibration    10          0.629              1.869              2.342
 Vibration    11          0.634              1.851              2.206
 Vibration    12          0.645              1.816              1.990
 Vibration    13          0.656              1.783              1.821
 Vibration    14          0.662              1.764              1.736
 Vibration    15          0.671              1.738              1.632
 Vibration    16          0.700              1.652              1.355
 Vibration    17          0.717              1.604              1.233
 Vibration    18          0.730              1.567              1.148
 Vibration    19          0.750              1.513              1.039
 Vibration    20          0.778              1.440              0.912
 Vibration    21          0.792              1.402              0.854
 Vibration    22          0.811              1.355              0.787
 Vibration    23          0.821              1.330              0.755
 Vibration    24          0.829              1.311              0.731
 Vibration    25          0.867              1.225              0.630
 Vibration    26          0.894              1.165              0.568
 Vibration    27          0.937              1.074              0.485
 Vibration    28          0.966              1.017              0.438

 Optimization completed.
    -- Stationary point found.
 Normal termination of Gaussian 16 at Sat Dec 12 11:16:03 2020.

 ----------------------------------------------------------------------
 # B3LYP/6-311++G(d,p) empiricaldispersion=gd3bj scf=xqc pop=npa geom=c
 heck
 ----------------------------------------------------------------------

 --------------------------------------
 CID_64967299_JID_9956_Energie_neutraal
 --------------------------------------
 Structure from the checkpoint file:  "JID_9956.chk"
 Charge =  0 Multiplicity = 1

 SCF Done:  E(RB3LYP) =  -862.340419496     A.U. after   15 cycles
 Normal termination of Gaussian 16 at Sat Dec 12 11:27:17 2020.

 ----------------------------------------------------------------------
 # B3LYP/6-311++G(d,p) empiricaldispersion=gd3bj scf=xqc pop=npa geom=c
 heck
 ----------------------------------------------------------------------

 ------------------------------------
 CID_64967299_JID_9956_Energie_kation
 ------------------------------------
 Structure from the checkpoint file:  "JID_9956.chk"
 Charge =  1 Multiplicity = 2

 SCF Done:  E(UB3LYP) =  -862.060049455     A.U. after   25 cycles
 Normal termination of Gaussian 16 at Sat Dec 12 11:53:51 2020.
 Gaussian 16:  ES64L-G16RevA.03 25-Dec-2016

 ----------------------------------------------------------------------
 # B3LYP/6-311++G(d,p) empiricaldispersion=gd3bj scf=xqc pop=npa geom=c
 heck
 ----------------------------------------------------------------------

 -----------------------------------
 CID_64967299_JID_9956_Energie_anion
 -----------------------------------
 Structure from the checkpoint file:  "JID_9956.chk"
 Charge = -1 Multiplicity = 2

                         Standard orientation:
 ---------------------------------------------------------------------
 Center     Atomic      Atomic             Coordinates (Angstroms)
 Number     Number       Type             X           Y           Z
 ---------------------------------------------------------------------
      1          6           0       -1.142556    2.324301   -1.221097
      2          6           0       -0.674272    2.358890    0.237567
      3          6           0       -1.716373    1.952629    1.290758
      4          6           0       -2.208617    0.484412    1.250895
      5          6           0       -0.980882   -0.428640    1.212172
      6          8           0       -0.214265   -0.348721    2.166634
      7          7           0       -0.785503   -1.214156    0.114813
      8          6           0       -1.787855   -1.407326   -0.929045
      9          6           0       -3.069453   -0.597305   -0.849802
     10          8           0       -3.924529   -0.730225   -1.715272
     11          7           0       -3.182694    0.251590    0.195863
     12          6           0        0.490174   -1.883508   -0.212617
     13          6           0        1.469637   -2.159194    0.945244
     14          6           0        2.412255   -0.933133    0.984807
     15          7           0        1.991307   -0.109243   -0.157150
     16          6           0        1.347711   -0.987590   -1.120521
     17          6           0        2.911012    0.834432   -0.725783
     18          6           0        4.079106    1.374594    0.042660
     19          6           0        4.324158    0.475689   -1.152648
     20          1           0       -1.312291    1.305203   -1.578669
     21          1           0       -0.387235    2.775435   -1.875002
     22          1           0       -2.078259    2.878926   -1.361346
     23          1           0        0.215257    1.727690    0.353013
     24          1           0       -0.358082    3.381991    0.479609
     25          1           0       -1.281327    2.104072    2.283085
     26          1           0       -2.600399    2.602748    1.222588
     27          1           0       -2.690394    0.273954    2.213720
     28          1           0       -1.350335   -1.177998   -1.908249
     29          1           0       -2.082681   -2.464689   -0.964499
     30          1           0       -4.029810    0.808194    0.200360
     31          1           0        0.215313   -2.817602   -0.712867
     32          1           0        2.035198   -3.058003    0.676593
     33          1           0        0.970141   -2.335089    1.894228
     34          1           0        2.297796   -0.363751    1.908617
     35          1           0        3.459945   -1.267808    0.903379
     36          1           0        2.063397   -1.609879   -1.693738
     37          1           0        0.762404   -0.404923   -1.840587
     38          1           0        2.396622    1.548946   -1.367361
     39          1           0        4.299967    2.434578   -0.044355
     40          1           0        4.282308    0.962628    1.026268
     41          1           0        4.678511   -0.531278   -0.949482
     42          1           0        4.718268    0.911371   -2.066425
 ---------------------------------------------------------------------

 SCF Done:  E(UB3LYP) =  -862.330521506     A.U. after   33 cycles
 SCF Done:  E(UB3LYP) =  -862.330521505     a.u. after    1 cycles

 The electronic state is 2-A.
 Alpha  occ. eigenvalues --  -19.00210 -18.99642 -14.26524 -14.25670 -14.21484
 Alpha  occ. eigenvalues --  -10.19326 -10.18973 -10.13711 -10.13427 -10.12898
 Alpha  occ. eigenvalues --  -10.11562 -10.10497 -10.09846 -10.08639 -10.08311
 Alpha  occ. eigenvalues --  -10.08065 -10.07854 -10.07158 -10.06664  -0.96047
 Alpha  occ. eigenvalues --   -0.95055  -0.87075  -0.85341  -0.83762  -0.76070
 Alpha  occ. eigenvalues --   -0.70918  -0.68478  -0.66165  -0.64357  -0.63362
 Alpha  occ. eigenvalues --   -0.57901  -0.55865  -0.54010  -0.51781  -0.49799
 Alpha  occ. eigenvalues --   -0.49074  -0.47214  -0.45194  -0.43920  -0.43286
 Alpha  occ. eigenvalues --   -0.41944  -0.41668  -0.39875  -0.37635  -0.36839
 Alpha  occ. eigenvalues --   -0.36637  -0.35429  -0.34939  -0.33540  -0.32934
 Alpha  occ. eigenvalues --   -0.32722  -0.32569  -0.32062  -0.31611  -0.29738
 Alpha  occ. eigenvalues --   -0.29540  -0.28294  -0.27842  -0.27201  -0.26817
 Alpha  occ. eigenvalues --   -0.26120  -0.25705  -0.25063  -0.24385  -0.24190
 Alpha  occ. eigenvalues --   -0.22594  -0.21234  -0.17701  -0.17376  -0.16818
 Alpha  occ. eigenvalues --   -0.16039  -0.11736   0.03829
 Alpha virt. eigenvalues --    0.05361   0.06037   0.07091   0.07592   0.07828
 Alpha virt. eigenvalues --    0.08565   0.08761   0.08974   0.09462   0.09712
 Alpha virt. eigenvalues --    0.09993   0.10613   0.11277   0.11361   0.11978

  Beta  occ. eigenvalues --  -19.00206 -18.99639 -14.26522 -14.25648 -14.21485
  Beta  occ. eigenvalues --  -10.19328 -10.18969 -10.13700 -10.13403 -10.12881
  Beta  occ. eigenvalues --  -10.11555 -10.10477 -10.09837 -10.08632 -10.08292
  Beta  occ. eigenvalues --  -10.08045 -10.07838 -10.07152 -10.06643  -0.96037
  Beta  occ. eigenvalues --   -0.95050  -0.87063  -0.85320  -0.83741  -0.76052
  Beta  occ. eigenvalues --   -0.70888  -0.68449  -0.66136  -0.64327  -0.63324
  Beta  occ. eigenvalues --   -0.57860  -0.55834  -0.53981  -0.51740  -0.49757
  Beta  occ. eigenvalues --   -0.49030  -0.47182  -0.45167  -0.43873  -0.43248
  Beta  occ. eigenvalues --   -0.41920  -0.41633  -0.39834  -0.37602  -0.36819
  Beta  occ. eigenvalues --   -0.36613  -0.35406  -0.34912  -0.33509  -0.32910
  Beta  occ. eigenvalues --   -0.32697  -0.32545  -0.32037  -0.31587  -0.29717
  Beta  occ. eigenvalues --   -0.29511  -0.28273  -0.27815  -0.27174  -0.26791
  Beta  occ. eigenvalues --   -0.26096  -0.25677  -0.25036  -0.24365  -0.24164
  Beta  occ. eigenvalues --   -0.22574  -0.21218  -0.17685  -0.17354  -0.16807
  Beta  occ. eigenvalues --   -0.16020  -0.11719
  Beta virt. eigenvalues --    0.05886   0.06425   0.06772   0.07400   0.07986
  Beta virt. eigenvalues --    0.08233   0.08848   0.08912   0.09231   0.09705
  Beta virt. eigenvalues --    0.10016   0.10321   0.10792   0.11477   0.11581

 Mulliken charges and spin densities:
               1          2
     1  C    0.313549  -0.925001
     2  C   -0.889689   0.815608
     3  C    0.135041  -1.111685
     4  C    0.653423  -0.044089
     5  C   -0.005540  -0.491788
     6  O   -0.252962   0.030871
     7  N    0.303693  -0.076501
     8  C    0.733697  -0.822536
     9  C   -0.381819   0.137845
    10  O   -0.330792   0.020495
    11  N   -0.165102  -0.111268
    12  C   -1.051981   1.104705
    13  C    1.034004  -1.460338
    14  C   -0.727618   0.335316
    15  N    0.385685  -0.104517
    16  C    0.717557  -1.339704
    17  C   -0.847967   0.870790
    18  C   -0.143564  -0.182007
    19  C    0.597485  -1.110116
    20  H    0.230373  -0.047813
    21  H   -0.157855   0.298196
    22  H    0.037073   0.096201
    23  H    0.220788   0.088130
    24  H   -0.084947   0.248819
    25  H    0.245200  -0.082480
    26  H   -0.451155   0.621996
    27  H   -0.275979   0.556736
    28  H    0.056185   0.180534
    29  H   -0.057320   0.287771
    30  H    0.027900   0.296361
    31  H   -0.614130   0.845445
    32  H   -0.231766   0.408141
    33  H    0.126156   0.086632
    34  H    0.193386   0.002189
    35  H    0.004690   0.098905
    36  H   -0.310928   0.456434
    37  H    0.044274   0.084982
    38  H    0.043923   0.220381
    39  H   -0.014422   0.169338
    40  H    0.050808   0.095542
    41  H   -0.023631   0.174435
    42  H   -0.135721   0.277045
 Sum of Mulliken charges =  -1.00000   1.00000

 Dipole moment (field-independent basis, Debye):
    X=              1.9032    Y=              1.0933    Z=              2.1482  Tot=              3.0713
 Quadrupole moment (field-independent basis, Debye-Ang):
   XX=           -196.2824   YY=           -170.4272   ZZ=           -161.2991
   XY=              6.1128   XZ=              2.1372   YZ=             -4.5776

 Summary of Natural Population Analysis:

                                       Natural Population
                Natural  -----------------------------------------------
    Atom  No    Charge         Core      Valence    Rydberg      Total
 -----------------------------------------------------------------------
      C    1   -0.28361      0.99966     2.27894    0.00501     3.28361
      C    2   -0.20363      0.99962     2.19558    0.00842     3.20363
      C    3   -0.18406      0.99960     2.17515    0.00930     3.18406
      C    4   -0.04348      0.99955     2.02991    0.01403     3.04348
      C    5    0.35056      0.99961     1.62615    0.02368     2.64944
      O    6   -0.32544      0.99988     3.32045    0.00511     4.32544
      N    7   -0.25319      0.99962     2.74079    0.01279     3.75319
      C    8   -0.12388      0.99956     2.11378    0.01055     3.12388
      C    9    0.34043      0.99966     1.63883    0.02108     2.65957
      O   10   -0.32351      0.99988     3.31799    0.00564     4.32351
      N   11   -0.31108      0.99965     2.80115    0.01027     3.81108
      C   12   -0.00463      0.99956     1.98947    0.01560     3.00463
      C   13   -0.19736      0.99961     2.18889    0.00886     3.19736
      C   14   -0.08339      0.99963     2.07353    0.01023     3.08339
      N   15   -0.28373      0.99970     2.77165    0.01238     3.78373
      C   16   -0.08316      0.99959     2.07266    0.01092     3.08316
      C   17   -0.00401      0.99957     1.99144    0.01300     3.00401
      C   18   -0.20312      0.99962     2.19592    0.00757     3.20312
      C   19   -0.21403      0.99963     2.20683    0.00758     3.21403
      H   20    0.09284      0.00000     0.40559    0.00156     0.40716
      H   21    0.09840      0.00000     0.40064    0.00096     0.40160
      H   22    0.09640      0.00000     0.40261    0.00099     0.40360
      H   23    0.10978      0.00000     0.38756    0.00266     0.39022
      H   24    0.09530      0.00000     0.40370    0.00099     0.40470
      H   25    0.10892      0.00000     0.38999    0.00109     0.39108
      H   26    0.09694      0.00000     0.40145    0.00161     0.40306
      H   27    0.10810      0.00000     0.39048    0.00142     0.39190
      H   28    0.10972      0.00000     0.38884    0.00144     0.39028
      H   29    0.11023      0.00000     0.38856    0.00121     0.38977
      H   30    0.19932      0.00000     0.29757    0.00311     0.30068
      H   31    0.10412      0.00000     0.39376    0.00212     0.39588
      H   32    0.10171      0.00000     0.39684    0.00144     0.39829
      H   33    0.11768      0.00000     0.38137    0.00094     0.38232
      H   34    0.10394      0.00000     0.39487    0.00119     0.39606
      H   35    0.08208      0.00000     0.41657    0.00135     0.41792
      H   36    0.08782      0.00000     0.41031    0.00187     0.41218
      H   37    0.09883      0.00000     0.39965    0.00151     0.40117
      H   38    0.10026      0.00000     0.39845    0.00129     0.39974
      H   39    0.10238      0.00000     0.39687    0.00075     0.39762
      H   40    0.10415      0.00000     0.39500    0.00085     0.39585
      H   41    0.10322      0.00000     0.39580    0.00098     0.39678
      H   42    0.10215      0.00000     0.39670    0.00115     0.39785
 =======================================================================
   * Total *   -0.00000     18.99318    52.76231    0.24451    72.00000

 Normal termination of Gaussian 16 at Sat Dec 12 12:28:27 2020.
