 Gaussian 16, Revision A.03,

 -----------------------------------------------------------
 # opt freq B3LYP/6-31G(d) empiricaldispersion=gd3bj scf=xqc
 -----------------------------------------------------------

 ------------------------------
 CID_144279719_JID_368_neutraal
 ------------------------------
 Symbolic Z-matrix:
 Charge =  0 Multiplicity = 1

 SCF Done:  E(RB3LYP) =  -441.688231364     A.U. after   21 cycles
 SCF Done:  E(RB3LYP) =  -441.743962959     A.U. after   18 cycles
 SCF Done:  E(RB3LYP) =  -441.838805123     A.U. after   18 cycles
 SCF Done:  E(RB3LYP) =  -441.909987654     A.U. after   18 cycles
 SCF Done:  E(RB3LYP) =  -441.993086407     A.U. after   17 cycles
 SCF Done:  E(RB3LYP) =  -442.124983080     A.U. after   18 cycles
 SCF Done:  E(RB3LYP) =  -442.181558380     A.U. after   17 cycles
 SCF Done:  E(RB3LYP) =  -442.275165755     A.U. after   18 cycles
 SCF Done:  E(RB3LYP) =  -442.341493595     A.U. after   17 cycles
 SCF Done:  E(RB3LYP) =  -442.379776231     A.U. after   17 cycles
 SCF Done:  E(RB3LYP) =  -442.674387621     A.U. after    8 cycles
 SCF Done:  E(RB3LYP) =  -442.674390724     A.U. after    8 cycles
 SCF Done:  E(RB3LYP) =  -442.674392097     A.U. after    8 cycles
 SCF Done:  E(RB3LYP) =  -442.674393261     A.U. after    8 cycles
 SCF Done:  E(RB3LYP) =  -442.674393450     A.U. after    7 cycles
 Optimization completed.
    -- Stationary point found.
 Normal termination of Gaussian 16 at Tue Dec  8 11:00:20 2020.

 --------------------------------------------------------------------
 #N Geom=AllCheck Guess=TCheck SCRF=Check GenChk RB3LYP/6-31G(d) Freq
 --------------------------------------------------------------------

 Structure from the checkpoint file:  "JID_368.chk"
 ------------------------------
 CID_144279719_JID_368_neutraal
 ------------------------------
 Charge =  0 Multiplicity = 1

 SCF Done:  E(RB3LYP) =  -442.674393450     A.U. after    1 cycles

  Exact polarizability: 107.178   8.810  95.230   3.380   0.490  68.926
 Approx polarizability: 158.720  31.367 148.332   8.175   2.500  99.890

                      1                      2                      3
                      A                      A                      A
 Frequencies --     73.0167               133.3312               191.5448
 Red. masses --      4.3683                 3.3765                 2.0018
 Frc consts  --      0.0137                 0.0354                 0.0433
 IR Inten    --      3.9260                 1.1789                 0.7921

                      4                      5                      6
                      A                      A                      A
 Frequencies --    197.2539               235.8383               237.9752
 Red. masses --      6.0058                 2.1736                 1.3997
 Frc consts  --      0.1377                 0.0712                 0.0467
 IR Inten    --      6.2007                 4.2161                 1.5222

                      7                      8                      9
                      A                      A                      A
 Frequencies --    295.7700               304.2179               324.1521
 Red. masses --      2.8148                 1.1270                 1.7499
 Frc consts  --      0.1451                 0.0615                 0.1083
 IR Inten    --      9.0032                32.5944                 9.6462

                     10                     11                     12
                      A                      A                      A
 Frequencies --    359.0120               416.0039               472.6566
 Red. masses --      2.1819                 4.1274                 3.2210
 Frc consts  --      0.1657                 0.4208                 0.4240
 IR Inten    --      1.8865                 1.4179                 7.3813

                     13                     14                     15
                      A                      A                      A
 Frequencies --    556.7222               594.6862               619.7122
 Red. masses --      4.3019                 3.3030                 4.2727
 Frc consts  --      0.7856                 0.6882                 0.9668
 IR Inten    --      1.3838                 5.9370                 2.0407

                     16                     17                     18
                      A                      A                      A
 Frequencies --    711.6171               772.9267               848.0151
 Red. masses --      2.6511                 2.2761                 2.0984
 Frc consts  --      0.7910                 0.8012                 0.8891
 IR Inten    --     29.3280                 4.2353                 0.5644

                     19                     20                     21
                      A                      A                      A
 Frequencies --    855.5571               910.9285               919.8040
 Red. masses --      1.4259                 2.1983                 1.6892
 Frc consts  --      0.6149                 1.0748                 0.8420
 IR Inten    --      6.6170                 4.4180                56.9052

                     22                     23                     24
                      A                      A                      A
 Frequencies --    974.7045               987.3726              1004.4036
 Red. masses --      1.8461                 1.7045                 2.1057
 Frc consts  --      1.0334                 0.9790                 1.2516
 IR Inten    --     26.9215                14.3063                47.3460

                     25                     26                     27
                      A                      A                      A
 Frequencies --   1031.8167              1040.1678              1071.9096
 Red. masses --      1.7945                 1.8547                 1.6972
 Frc consts  --      1.1256                 1.1823                 1.1490
 IR Inten    --      1.2763                 2.0147                 6.8719

                     28                     29                     30
                      A                      A                      A
 Frequencies --   1104.8944              1134.6249              1148.7512
 Red. masses --      1.8260                 1.7714                 1.6300
 Frc consts  --      1.3134                 1.3436                 1.2673
 IR Inten    --      1.1879                 0.1499                 4.0499

                     31                     32                     33
                      A                      A                      A
 Frequencies --   1204.2821              1222.0889              1237.6591
 Red. masses --      2.2916                 1.2573                 1.3302
 Frc consts  --      1.9581                 1.1063                 1.2005
 IR Inten    --     39.6880                11.3157                 9.9438

                     34                     35                     36
                      A                      A                      A
 Frequencies --   1274.1890              1340.3062              1358.6092
 Red. masses --      1.4071                 1.3244                 1.3793
 Frc consts  --      1.3460                 1.4018                 1.5001
 IR Inten    --      7.5140                 0.8461                 2.3585

                     37                     38                     39
                      A                      A                      A
 Frequencies --   1361.8974              1391.8906              1399.4650
 Red. masses --      1.3604                 1.6444                 1.4299
 Frc consts  --      1.4867                 1.8770                 1.6499
 IR Inten    --     10.0373                 2.1014                 1.5420

                     40                     41                     42
                      A                      A                      A
 Frequencies --   1410.0332              1434.8705              1443.4193
 Red. masses --      1.5837                 1.3346                 1.2595
 Frc consts  --      1.8552                 1.6189                 1.5461
 IR Inten    --      4.5889                 5.5067                 5.4431

                     43                     44                     45
                      A                      A                      A
 Frequencies --   1462.8166              1492.4853              1518.7257
 Red. masses --      1.8327                 1.0818                 1.0864
 Frc consts  --      2.3106                 1.4198                 1.4764
 IR Inten    --     12.9419                10.0274                 7.9103

                     46                     47                     48
                      A                      A                      A
 Frequencies --   1529.5108              1538.2623              1699.3538
 Red. masses --      1.0559                 1.0541                 1.1474
 Frc consts  --      1.4554                 1.4695                 1.9522
 IR Inten    --      4.6193                 1.2023                83.5838

                     49                     50                     51
                      A                      A                      A
 Frequencies --   1717.9459              1779.2895              2905.2211
 Red. masses --      5.3407                 8.9483                 1.0842
 Frc consts  --      9.2867                16.6911                 5.3914
 IR Inten    --     28.8207               223.2312               129.9523

                     52                     53                     54
                      A                      A                      A
 Frequencies --   2966.6493              3013.1330              3027.3353
 Red. masses --      1.0819                 1.0694                 1.0837
 Frc consts  --      5.6102                 5.7206                 5.8514
 IR Inten    --     47.6645                17.9377                29.1058

                     55                     56                     57
                      A                      A                      A
 Frequencies --   3048.4544              3054.2543              3064.7883
 Red. masses --      1.0365                 1.0844                 1.0689
 Frc consts  --      5.6752                 5.9601                 5.9154
 IR Inten    --     23.9188                21.1162                47.5205

                     58                     59                     60
                      A                      A                      A
 Frequencies --   3110.1143              3113.3101              3116.8981
 Red. masses --      1.1024                 1.1025                 1.1014
 Frc consts  --      6.2824                 6.2962                 6.3046
 IR Inten    --     15.9308                30.5284                38.8113

                     61                     62                     63
                      A                      A                      A
 Frequencies --   3143.2932              3451.7913              3537.9939
 Red. masses --      1.0887                 1.0507                 1.0908
 Frc consts  --      6.3379                 7.3759                 8.0450
 IR Inten    --     24.0896                 4.1837                 0.8972

 - Thermochemistry -
 -------------------
 Temperature   298.150 Kelvin.  Pressure   1.00000 Atm.
 Atom     1 has atomic number  6 and mass  12.00000

 Molecular mass:   139.09971 amu.
 Principal axes and moments of inertia in atomic units:
                           1         2         3
     Eigenvalues --   904.225391697.608311965.69878
           X            0.99987  -0.00240  -0.01595
           Y            0.00264   0.99988   0.01515
           Z            0.01592  -0.01519   0.99976
 This molecule is an asymmetric top.
 Rotational symmetry number  1.
 Warning -- assumption of classical behavior for rotation
           may cause significant error
 Rotational temperatures (Kelvin)      0.09579     0.05102     0.04406
 Rotational constants (GHZ):           1.99590     1.06311     0.91812
 Zero-point vibrational energy     531738.4 (Joules/Mol)
                                  127.08854 (Kcal/Mol)
 Warning -- explicit consideration of  15 degrees of freedom as
           vibrations may cause significant error
 Vibrational temperatures:    105.05   191.83   275.59   283.80   339.32
          (Kelvin)            342.39   425.55   437.70   466.38   516.54
                              598.54   680.05   801.00   855.62   891.63
                             1023.86  1112.07  1220.10  1230.96  1310.62
                             1323.39  1402.38  1420.61  1445.11  1484.55
                             1496.57  1542.24  1589.70  1632.47  1652.80
                             1732.69  1758.31  1780.72  1833.27  1928.40
                             1954.74  1959.47  2002.62  2013.52  2028.72
                             2064.46  2076.76  2104.67  2147.35  2185.11
                             2200.62  2213.22  2444.99  2471.74  2560.00
                             4179.97  4268.35  4335.23  4355.66  4386.05
                             4394.39  4409.55  4474.76  4479.36  4484.52
                             4522.50  4966.36  5090.38

 Zero-point correction=                           0.202528 (Hartree/Particle)
 Thermal correction to Energy=                    0.212441
 Thermal correction to Enthalpy=                  0.213385
 Thermal correction to Gibbs Free Energy=         0.167936
 Sum of electronic and zero-point Energies=           -442.471865
 Sum of electronic and thermal Energies=              -442.461953
 Sum of electronic and thermal Enthalpies=            -442.461009
 Sum of electronic and thermal Free Energies=         -442.506458

                     E (Thermal)             CV                S
                      KCal/Mol        Cal/Mol-Kelvin    Cal/Mol-Kelvin
 Total                  133.309             38.145             95.656
 Electronic               0.000              0.000              0.000
 Translational            0.889              2.981             40.702
 Rotational               0.889              2.981             29.491
 Vibrational            131.531             32.184             25.463
 Vibration     1          0.599              1.967              4.070
 Vibration     2          0.613              1.920              2.897
 Vibration     3          0.634              1.852              2.213
 Vibration     4          0.637              1.844              2.159
 Vibration     5          0.655              1.786              1.834
 Vibration     6          0.656              1.782              1.818
 Vibration     7          0.690              1.682              1.441
 Vibration     8          0.695              1.666              1.394
 Vibration     9          0.709              1.627              1.289
 Vibration    10          0.734              1.557              1.126
 Vibration    11          0.779              1.435              0.906
 Vibration    12          0.830              1.311              0.730
 Vibration    13          0.912              1.125              0.530
 Vibration    14          0.952              1.043              0.459
 Vibration    15          0.980              0.990              0.417

                           ! Non-Optimized Parameters !
 Normal termination of Gaussian 16 at Tue Dec  8 11:05:29 2020.

 ----------------------------------------------------------------------
 # B3LYP/6-311++G(d,p) empiricaldispersion=gd3bj scf=xqc pop=npa geom=c
 heck
 ----------------------------------------------------------------------

 --------------------------------------
 CID_144279719_JID_368_Energie_neutraal
 --------------------------------------
 Structure from the checkpoint file:  "JID_368.chk"
 Charge =  0 Multiplicity = 1

 SCF Done:  E(RB3LYP) =  -442.807474031     A.U. after   14 cycles
 Normal termination of Gaussian 16 at Tue Dec  8 11:08:12 2020.

 ----------------------------------------------------------------------
 # B3LYP/6-311++G(d,p) empiricaldispersion=gd3bj scf=xqc pop=npa geom=c
 heck
 ----------------------------------------------------------------------

 ------------------------------------
 CID_144279719_JID_368_Energie_kation
 ------------------------------------
 Structure from the checkpoint file:  "JID_368.chk"
 Charge =  1 Multiplicity = 2

 SCF Done:  E(UB3LYP) =  -442.480040136     A.U. after   23 cycles
 Normal termination of Gaussian 16 at Tue Dec  8 11:12:02 2020.
 Gaussian 16:  ES64L-G16RevA.03 25-Dec-2016

 ----------------------------------------------------------------------
 # B3LYP/6-311++G(d,p) empiricaldispersion=gd3bj scf=xqc pop=npa geom=c
 heck
 ----------------------------------------------------------------------

 -----------------------------------
 CID_144279719_JID_368_Energie_anion
 -----------------------------------
 Structure from the checkpoint file:  "JID_368.chk"
 Charge = -1 Multiplicity = 2

                         Standard orientation:
 ---------------------------------------------------------------------
 Center     Atomic      Atomic             Coordinates (Angstroms)
 Number     Number       Type             X           Y           Z
 ---------------------------------------------------------------------
      1          6           0       -1.748874    0.769678    1.565544
      2          7           0        0.671835    1.456608   -1.290800
      3          6           0       -1.900766   -0.150440   -0.815750
      4          6           0       -1.463833   -1.565824   -0.413053
      5          6           0       -0.004036   -1.628770   -0.085031
      6          6           0        0.768783   -0.542121    0.091187
      7          6           0        0.246911    0.877453   -0.001627
      8          6           0       -1.290607    0.915131    0.109271
      9          6           0        2.203163   -0.732186    0.347505
     10          8           0        3.015560    0.175848    0.419341
     11          1           0       -1.374137    1.597436    2.178079
     12          1           0       -1.382189   -0.160097    2.014542
     13          1           0       -2.842713    0.767303    1.635297
     14          1           0        1.688483    1.394251   -1.341866
     15          1           0        0.459065    2.454618   -1.277731
     16          1           0       -1.556016    0.052795   -1.834793
     17          1           0       -2.994826   -0.081268   -0.812382
     18          1           0       -2.032732   -1.923218    0.459744
     19          1           0       -1.687507   -2.282626   -1.214430
     20          1           0        0.447703   -2.616459    0.019330
     21          1           0        0.674297    1.427114    0.854676
     22          1           0       -1.616687    1.900953   -0.250527
     23          1           0        2.525493   -1.791359    0.462660
 ---------------------------------------------------------------------

 SCF Done:  E(UB3LYP) =  -442.804694456     A.U. after   33 cycles
 SCF Done:  E(UB3LYP) =  -442.804694456     a.u. after    1 cycles

 The electronic state is 2-A.
 Alpha  occ. eigenvalues --  -18.90336 -14.14813 -10.04993 -10.04027 -10.03787
 Alpha  occ. eigenvalues --  -10.03604 -10.02951 -10.02707  -9.99016  -9.98672
 Alpha  occ. eigenvalues --   -0.84163  -0.74675  -0.68004  -0.62218  -0.58934
 Alpha  occ. eigenvalues --   -0.53839  -0.48252  -0.44964  -0.40890  -0.35636
 Alpha  occ. eigenvalues --   -0.34114  -0.32775  -0.31559  -0.31016  -0.28114
 Alpha  occ. eigenvalues --   -0.27384  -0.26242  -0.24624  -0.24273  -0.22669
 Alpha  occ. eigenvalues --   -0.21463  -0.20733  -0.19665  -0.17857  -0.16575
 Alpha  occ. eigenvalues --   -0.10363  -0.09889  -0.06631   0.06586
 Alpha virt. eigenvalues --    0.08208   0.09576   0.10471   0.10942   0.12040
 Alpha virt. eigenvalues --    0.12583   0.12865   0.13423   0.13892   0.15558
 Alpha virt. eigenvalues --    0.15956   0.16264   0.16590   0.18118   0.18599

  Beta  occ. eigenvalues --  -18.89778 -14.14797 -10.04995 -10.04025 -10.03601
  Beta  occ. eigenvalues --  -10.03435 -10.02946 -10.02761  -9.99043  -9.98055
  Beta  occ. eigenvalues --   -0.83147  -0.74616  -0.67845  -0.61761  -0.58732
  Beta  occ. eigenvalues --   -0.53675  -0.47935  -0.44475  -0.40183  -0.35481
  Beta  occ. eigenvalues --   -0.33931  -0.32654  -0.31326  -0.30900  -0.27886
  Beta  occ. eigenvalues --   -0.27210  -0.25894  -0.24403  -0.23973  -0.22510
  Beta  occ. eigenvalues --   -0.21180  -0.19573  -0.18113  -0.17669  -0.16410
  Beta  occ. eigenvalues --   -0.10290  -0.07490  -0.06164
  Beta virt. eigenvalues --    0.08252   0.09707   0.10316   0.10824   0.12154
  Beta virt. eigenvalues --    0.12466   0.12828   0.13361   0.13788   0.14497
  Beta virt. eigenvalues --    0.15510   0.15952   0.16299   0.16504   0.18507

 Mulliken charges and spin densities:
               1          2
     1  C   -0.795668  -0.036463
     2  N   -0.248017  -0.021005
     3  C   -0.400192   0.013243
     4  C   -0.363280  -0.095244
     5  C   -0.766856   0.372995
     6  C    1.031965   0.044947
     7  C   -0.711188   0.029169
     8  C    0.755052  -0.272371
     9  C   -0.379222   0.269375
    10  O   -0.407943   0.178170
    11  H    0.107232   0.003656
    12  H    0.172356  -0.009659
    13  H    0.058200   0.060223
    14  H    0.250127  -0.000084
    15  H    0.023142   0.159435
    16  H    0.141992  -0.002005
    17  H    0.118632   0.012262
    18  H   -0.050065   0.191103
    19  H    0.128742   0.001702
    20  H    0.105329  -0.041398
    21  H    0.162705   0.049708
    22  H    0.057192   0.110037
    23  H    0.009764  -0.017798
 Sum of Mulliken charges =  -1.00000   1.00000

 Dipole moment (field-independent basis, Debye):
    X=             -5.0283    Y=              0.2976    Z=              0.0353  Tot=              5.0372
 Quadrupole moment (field-independent basis, Debye-Ang):
   XX=            -98.5416   YY=            -76.6421   ZZ=            -76.2292
   XY=             -2.9619   XZ=             -2.3503   YZ=              2.1285

 Summary of Natural Population Analysis:

                                       Natural Population
                Natural  -----------------------------------------------
    Atom  No    Charge         Core      Valence    Rydberg      Total
 -----------------------------------------------------------------------
      C    1   -0.28582      0.99965     2.28045    0.00572     3.28582
      N    2   -0.42809      0.99976     2.91814    0.01019     3.92809
      C    3   -0.18787      0.99962     2.17912    0.00912     3.18787
      C    4   -0.21326      0.99963     2.20513    0.00850     3.21326
      C    5    0.05760      0.99949     1.93558    0.00733     2.94240
      C    6   -0.09635      0.99943     2.08308    0.01384     3.09635
      C    7   -0.01789      0.99953     2.00334    0.01502     3.01789
      C    8   -0.11007      0.99960     2.09874    0.01174     3.11007
      C    9    0.24526      0.99966     1.73458    0.02050     2.75474
      O   10   -0.26737      0.99988     3.26030    0.00719     4.26737
      H   11    0.09469      0.00000     0.40450    0.00081     0.40531
      H   12    0.10402      0.00000     0.39481    0.00117     0.39598
      H   13    0.09036      0.00000     0.40844    0.00121     0.40964
      H   14    0.18458      0.00000     0.31347    0.00195     0.31542
      H   15    0.16282      0.00000     0.33479    0.00239     0.33718
      H   16    0.10555      0.00000     0.39351    0.00094     0.39445
      H   17    0.08729      0.00000     0.41175    0.00096     0.41271
      H   18    0.09937      0.00000     0.39816    0.00247     0.40063
      H   19    0.09830      0.00000     0.40076    0.00095     0.40170
      H   20    0.07655      0.00000     0.42148    0.00197     0.42345
      H   21    0.08702      0.00000     0.41054    0.00243     0.41298
      H   22    0.08812      0.00000     0.40995    0.00193     0.41188
      H   23    0.02518      0.00000     0.47144    0.00338     0.47482
 =======================================================================
   * Total *    0.00000      9.99626    27.87203    0.13171    38.00000

 Normal termination of Gaussian 16 at Tue Dec  8 11:17:23 2020.
