 Gaussian 16, Revision A.03,

 -----------------------------------------------------------
 # opt freq B3LYP/6-31G(d) empiricaldispersion=gd3bj scf=xqc
 -----------------------------------------------------------

 -------------------------------
 CID_137718340_JID_6593_neutraal
 -------------------------------
 Symbolic Z-matrix:
 Charge =  0 Multiplicity = 1

 SCF Done:  E(RB3LYP) =  -1081.94714232     A.U. after   15 cycles
 SCF Done:  E(RB3LYP) =  -1081.95554648     A.U. after   13 cycles
 SCF Done:  E(RB3LYP) =  -1081.95303092     A.U. after   15 cycles
 SCF Done:  E(RB3LYP) =  -1081.95576713     A.U. after   13 cycles
 SCF Done:  E(RB3LYP) =  -1081.95755222     A.U. after   13 cycles
 SCF Done:  E(RB3LYP) =  -1081.95857268     A.U. after   13 cycles
 SCF Done:  E(RB3LYP) =  -1081.95913345     A.U. after   12 cycles
 SCF Done:  E(RB3LYP) =  -1081.95944533     A.U. after   12 cycles
 SCF Done:  E(RB3LYP) =  -1081.95966926     A.U. after   12 cycles
 SCF Done:  E(RB3LYP) =  -1081.95977898     A.U. after   11 cycles
 SCF Done:  E(RB3LYP) =  -1081.96003275     A.U. after   10 cycles
 SCF Done:  E(RB3LYP) =  -1081.96003588     A.U. after   10 cycles
 SCF Done:  E(RB3LYP) =  -1081.96003633     A.U. after    8 cycles
 SCF Done:  E(RB3LYP) =  -1081.96003643     A.U. after    8 cycles
 SCF Done:  E(RB3LYP) =  -1081.96003648     A.U. after    7 cycles
 Optimization completed.
    -- Stationary point found.
 Normal termination of Gaussian 16 at Thu Dec 10 23:48:15 2020.

 --------------------------------------------------------------------
 #N Geom=AllCheck Guess=TCheck SCRF=Check GenChk RB3LYP/6-31G(d) Freq
 --------------------------------------------------------------------

 Structure from the checkpoint file:  "JID_6593.chk"
 -------------------------------
 CID_137718340_JID_6593_neutraal
 -------------------------------
 Charge =  0 Multiplicity = 1

 SCF Done:  E(RB3LYP) =  -1081.96003648     A.U. after    1 cycles

  Exact polarizability: 206.754   4.425 146.446  -4.589  -1.123 103.447
 Approx polarizability: 262.441   5.916 252.709  -6.720   1.144 172.278

                      1                      2                      3
                      A                      A                      A
 Frequencies --     18.3105                30.4992                44.9018
 Red. masses --      5.2818                 6.5340                 4.3381
 Frc consts  --      0.0010                 0.0036                 0.0052
 IR Inten    --      3.3532                 1.1663                 0.5965

                      4                      5                      6
                      A                      A                      A
 Frequencies --     52.5106                75.3892                93.2588
 Red. masses --      4.9203                 5.2347                 4.7808
 Frc consts  --      0.0080                 0.0175                 0.0245
 IR Inten    --      0.7743                 0.9035                 0.8253

                      7                      8                      9
                      A                      A                      A
 Frequencies --    118.2958               144.4164               168.9225
 Red. masses --      5.6834                 5.8135                 6.0943
 Frc consts  --      0.0469                 0.0714                 0.1025
 IR Inten    --      1.0126                 1.0641                 0.3796

                     10                     11                     12
                      A                      A                      A
 Frequencies --    231.0752               295.3192               335.3501
 Red. masses --      6.9998                 5.8281                 3.4994
 Frc consts  --      0.2202                 0.2995                 0.2319
 IR Inten    --      1.9423                 0.6890                 7.6339

                     13                     14                     15
                      A                      A                      A
 Frequencies --    351.3227               358.2560               392.0017
 Red. masses --      3.0228                 2.1335                 1.1016
 Frc consts  --      0.2198                 0.1613                 0.0997
 IR Inten    --     37.9751                13.4738                79.8266

                     16                     17                     18
                      A                      A                      A
 Frequencies --    417.4909               419.6489               462.7598
 Red. masses --      3.0096                 3.0321                 1.3151
 Frc consts  --      0.3091                 0.3146                 0.1659
 IR Inten    --      7.4007                 0.0500                90.0987

                     19                     20                     21
                      A                      A                      A
 Frequencies --    483.4231               495.4565               528.3031
 Red. masses --      3.8932                 2.9708                 2.5491
 Frc consts  --      0.5361                 0.4297                 0.4192
 IR Inten    --      2.9336                32.3610                 3.5990

                     22                     23                     24
                      A                      A                      A
 Frequencies --    570.9858               575.5871               617.3798
 Red. masses --      2.4674                 4.8980                 1.9369
 Frc consts  --      0.4740                 0.9561                 0.4350
 IR Inten    --      8.1062                 5.4819               123.3914

                     25                     26                     27
                      A                      A                      A
 Frequencies --    637.4382               671.8299               692.3066
 Red. masses --      6.2587                 3.4707                 3.6978
 Frc consts  --      1.4983                 0.9230                 1.0442
 IR Inten    --      1.3638                22.3545                70.1876

                     28                     29                     30
                      A                      A                      A
 Frequencies --    703.3443               718.2667               750.6640
 Red. masses --      2.2444                 1.7248                 1.6329
 Frc consts  --      0.6542                 0.5243                 0.5421
 IR Inten    --    120.7010                48.6743               240.4794

                     31                     32                     33
                      A                      A                      A
 Frequencies --    782.8470               792.4989               797.6733
 Red. masses --      2.2694                 3.6690                 2.5905
 Frc consts  --      0.8194                 1.3577                 0.9711
 IR Inten    --      0.7327                64.3699               220.5751

                     34                     35                     36
                      A                      A                      A
 Frequencies --    826.4386               866.2903               872.6681
 Red. masses --      4.4538                 1.2630                 1.8753
 Frc consts  --      1.7923                 0.5584                 0.8414
 IR Inten    --      2.4214                 0.6880                 3.5646

                     37                     38                     39
                      A                      A                      A
 Frequencies --    887.4627               932.9893               952.2701
 Red. masses --      2.9232                 1.4199                 2.1643
 Frc consts  --      1.3565                 0.7282                 1.1563
 IR Inten    --     15.0817                 7.8565                 1.7371

                     40                     41                     42
                      A                      A                      A
 Frequencies --    975.0623               978.2841              1002.4516
 Red. masses --      2.0000                 1.7522                 1.2842
 Frc consts  --      1.1203                 0.9880                 0.7603
 IR Inten    --      1.9723                 2.4172                 4.9711

                     43                     44                     45
                      A                      A                      A
 Frequencies --   1022.3787              1061.9337              1096.4941
 Red. masses --      5.6560                 2.2263                 2.7334
 Frc consts  --      3.4832                 1.4792                 1.9363
 IR Inten    --      0.1707                 3.4765                12.3958

                     46                     47                     48
                      A                      A                      A
 Frequencies --   1111.7187              1130.3284              1171.0295
 Red. masses --      1.5747                 1.3561                 1.1594
 Frc consts  --      1.1467                 1.0208                 0.9367
 IR Inten    --      4.7850                 6.6518                46.0798

                     49                     50                     51
                      A                      A                      A
 Frequencies --   1193.2188              1206.5973              1218.2751
 Red. masses --      1.1003                 1.1448                 1.1593
 Frc consts  --      0.9230                 0.9820                 1.0138
 IR Inten    --      0.0652                14.2534                 1.7404

                     52                     53                     54
                      A                      A                      A
 Frequencies --   1224.3884              1239.7015              1273.5138
 Red. masses --      1.9001                 2.7205                 1.2646
 Frc consts  --      1.6783                 2.4634                 1.2084
 IR Inten    --      1.4354                 1.0051                13.5451

                     55                     56                     57
                      A                      A                      A
 Frequencies --   1298.8669              1365.1324              1375.7876
 Red. masses --      1.2985                 4.9403                 1.2973
 Frc consts  --      1.2907                 5.4245                 1.4467
 IR Inten    --      2.7435                 0.1215                10.2694

                     58                     59                     60
                      A                      A                      A
 Frequencies --   1385.9939              1431.4721              1477.8260
 Red. masses --      2.5890                 1.6186                 1.3636
 Frc consts  --      2.9302                 1.9541                 1.7546
 IR Inten    --    296.5944                21.5122                35.3245

                     61                     62                     63
                      A                      A                      A
 Frequencies --   1481.8156              1496.3234              1507.8584
 Red. masses --      2.3313                 1.2661                 1.8043
 Frc consts  --      3.0160                 1.6702                 2.4170
 IR Inten    --     95.9115                 9.1343                 7.6151

                     64                     65                     66
                      A                      A                      A
 Frequencies --   1548.7235              1642.1908              1645.6235
 Red. masses --      2.1986                 1.4050                 5.4076
 Frc consts  --      3.1071                 2.2324                 8.6282
 IR Inten    --     12.8645                24.3078                 2.1504

                     67                     68                     69
                      A                      A                      A
 Frequencies --   1666.8591              1670.8344              1732.4170
 Red. masses --      5.4518                 1.2697                 2.9838
 Frc consts  --      8.9246                 2.0885                 5.2763
 IR Inten    --      4.0852               154.1340               473.3879

                     70                     71                     72
                      A                      A                      A
 Frequencies --   1766.6003              3084.4679              3108.0126
 Red. masses --      7.6198                 1.0616                 1.0600
 Frc consts  --     14.0110                 5.9508                 6.0327
 IR Inten    --    288.9458                13.4669                 5.3518

                     73                     74                     75
                      A                      A                      A
 Frequencies --   3147.8391              3175.9871              3179.1036
 Red. masses --      1.1045                 1.0852                 1.1057
 Frc consts  --      6.4481                 6.4495                 6.5842
 IR Inten    --      1.6064                 3.3631                 0.7891

                     76                     77                     78
                      A                      A                      A
 Frequencies --   3183.4690              3193.7465              3204.8906
 Red. masses --      1.0877                 1.0922                 1.0950
 Frc consts  --      6.4945                 6.5635                 6.6266
 IR Inten    --      3.9452                34.7428                20.8965

                     79                     80                     81
                      A                      A                      A
 Frequencies --   3211.7026              3506.2792              3532.1707
 Red. masses --      1.0961                 1.0750                 1.0478
 Frc consts  --      6.6612                 7.7864                 7.7024
 IR Inten    --     16.3830                17.6736                30.6012

                     82                     83                     84
                      A                      A                      A
 Frequencies --   3540.1022              3639.1964              3641.3460
 Red. masses --      1.0481                 1.0978                 1.0975
 Frc consts  --      7.7389                 8.5660                 8.5742
 IR Inten    --     16.9581                44.6510                14.8635

 - Thermochemistry -
 -------------------
 Temperature   298.150 Kelvin.  Pressure   1.00000 Atm.
 Atom     1 has atomic number  6 and mass  12.00000

 Molecular mass:   238.08883 amu.
 Principal axes and moments of inertia in atomic units:
                           1         2         3
     Eigenvalues --  1581.723768958.893149496.96559
           X            1.00000  -0.00015   0.00136
           Y            0.00018   0.99977  -0.02151
           Z           -0.00136   0.02151   0.99977
 This molecule is an asymmetric top.
 Rotational symmetry number  1.
 Warning -- assumption of classical behavior for rotation
           may cause significant error
 Rotational temperatures (Kelvin)      0.05476     0.00967     0.00912
 Rotational constants (GHZ):           1.14100     0.20145     0.19003
 Zero-point vibrational energy     639486.9 (Joules/Mol)
                                  152.84105 (Kcal/Mol)
 Warning -- explicit consideration of  24 degrees of freedom as
           vibrations may cause significant error
 Vibrational temperatures:     26.34    43.88    64.60    75.55   108.47
          (Kelvin)            134.18   170.20   207.78   243.04   332.47
                              424.90   482.49   505.48   515.45   564.00
                              600.68   603.78   665.81   695.54   712.85
                              760.11   821.52   828.14   888.27   917.13
                              966.61   996.07  1011.96  1033.43  1080.04
                             1126.34  1140.23  1147.67  1189.06  1246.40
                             1255.57  1276.86  1342.36  1370.10  1402.90
                             1407.53  1442.30  1470.97  1527.89  1577.61
                             1599.52  1626.29  1684.85  1716.78  1736.02
                             1752.83  1761.62  1783.65  1832.30  1868.78
                             1964.12  1979.45  1994.14  2059.57  2126.26
                             2132.00  2152.88  2169.47  2228.27  2362.75
                             2367.69  2398.24  2403.96  2492.56  2541.74
                             4437.86  4471.74  4529.04  4569.54  4574.02
                             4580.30  4595.09  4611.12  4620.92  5044.75
                             5082.01  5093.42  5235.99  5239.08

 Zero-point correction=                           0.243568 (Hartree/Particle)
 Thermal correction to Energy=                    0.259419
 Thermal correction to Enthalpy=                  0.260364
 Thermal correction to Gibbs Free Energy=         0.197591
 Sum of electronic and zero-point Energies=          -1081.716469
 Sum of electronic and thermal Energies=             -1081.700617
 Sum of electronic and thermal Enthalpies=           -1081.699673
 Sum of electronic and thermal Free Energies=        -1081.762445

                     E (Thermal)             CV                S
                      KCal/Mol        Cal/Mol-Kelvin    Cal/Mol-Kelvin
 Total                  162.788             59.673            132.116
 Electronic               0.000              0.000              0.000
 Translational            0.889              2.981             42.304
 Rotational               0.889              2.981             33.264
 Vibrational            161.011             53.711             56.548
 Vibration     1          0.593              1.986              6.809
 Vibration     2          0.594              1.984              5.797
 Vibration     3          0.595              1.979              5.030
 Vibration     4          0.596              1.977              4.721
 Vibration     5          0.599              1.965              4.007
 Vibration     6          0.602              1.954              3.591
 Vibration     7          0.608              1.934              3.128
 Vibration     8          0.616              1.909              2.745
 Vibration     9          0.625              1.881              2.447
 Vibration    10          0.653              1.793              1.871
 Vibration    11          0.690              1.682              1.443
 Vibration    12          0.716              1.605              1.234
 Vibration    13          0.728              1.573              1.160
 Vibration    14          0.733              1.558              1.130
 Vibration    15          0.759              1.487              0.993
 Vibration    16          0.781              1.432              0.901
 Vibration    17          0.782              1.428              0.893
 Vibration    18          0.820              1.333              0.758
 Vibration    19          0.840              1.287              0.701
 Vibration    20          0.851              1.260              0.670
 Vibration    21          0.883              1.187              0.591
 Vibration    22          0.927              1.094              0.502
 Vibration    23          0.932              1.084              0.494
 Vibration    24          0.977              0.995              0.421

 Optimization completed.
    -- Stationary point found.
 Normal termination of Gaussian 16 at Thu Dec 10 23:56:27 2020.

 ----------------------------------------------------------------------
 # B3LYP/6-311++G(d,p) empiricaldispersion=gd3bj scf=xqc pop=npa geom=c
 heck
 ----------------------------------------------------------------------

 ---------------------------------------
 CID_137718340_JID_6593_Energie_neutraal
 ---------------------------------------
 Structure from the checkpoint file:  "JID_6593.chk"
 Charge =  0 Multiplicity = 1

 SCF Done:  E(RB3LYP) =  -1082.19544610     A.U. after   16 cycles
 Normal termination of Gaussian 16 at Fri Dec 11 00:00:09 2020.

 ----------------------------------------------------------------------
 # B3LYP/6-311++G(d,p) empiricaldispersion=gd3bj scf=xqc pop=npa geom=c
 heck
 ----------------------------------------------------------------------

 -------------------------------------
 CID_137718340_JID_6593_Energie_kation
 -------------------------------------
 Structure from the checkpoint file:  "JID_6593.chk"
 Charge =  1 Multiplicity = 2

 SCF Done:  E(UB3LYP) =  -1081.91208983     A.U. after   29 cycles
 Normal termination of Gaussian 16 at Fri Dec 11 00:09:27 2020.
 Gaussian 16:  ES64L-G16RevA.03 25-Dec-2016

 ----------------------------------------------------------------------
 # B3LYP/6-311++G(d,p) empiricaldispersion=gd3bj scf=xqc pop=npa geom=c
 heck
 ----------------------------------------------------------------------

 ------------------------------------
 CID_137718340_JID_6593_Energie_anion
 ------------------------------------
 Structure from the checkpoint file:  "JID_6593.chk"
 Charge = -1 Multiplicity = 2

                         Standard orientation:
 ---------------------------------------------------------------------
 Center     Atomic      Atomic             Coordinates (Angstroms)
 Number     Number       Type             X           Y           Z
 ---------------------------------------------------------------------
      1          6           0        4.664936    0.825716   -1.152000
      2          6           0        4.616403   -0.559611   -0.974582
      3          6           0        3.626414   -1.126815   -0.175928
      4          6           0        2.674909   -0.320981    0.462832
      5          6           0        2.727355    1.066896    0.278356
      6          6           0        3.717698    1.635167   -0.525866
      7          6           0        1.596273   -0.930347    1.315045
      8         16           0        0.180433   -1.621920    0.343073
      9          6           0       -0.430366   -0.085500   -0.457189
     10          6           0       -1.070391    0.812108    0.577656
     11          8           0       -0.424760    1.573255    1.294155
     12          7           0       -2.444882    0.756941    0.678312
     13          7           0       -3.158313   -0.380755    0.210003
     14          6           0       -4.219412   -0.046398   -0.460716
     15          7           0       -4.709352    1.231662   -0.623495
     16          7           0       -4.954800   -1.049493   -1.070504
     17          1           0        5.437490    1.268645   -1.774622
     18          1           0        5.352060   -1.196620   -1.458278
     19          1           0        3.584077   -2.205591   -0.046050
     20          1           0        1.977721    1.688990    0.758625
     21          1           0        3.748021    2.713167   -0.660290
     22          1           0        1.969082   -1.794095    1.874374
     23          1           0        1.195224   -0.203689    2.024208
     24          1           0        0.409439    0.436381   -0.921327
     25          1           0       -1.141826   -0.410684   -1.215795
     26          1           0       -2.778650    1.134222    1.563491
     27          1           0       -5.198756    1.389354   -1.496121
     28          1           0       -4.009257    1.938156   -0.419156
     29          1           0       -4.625664   -1.967084   -0.790385
     30          1           0       -5.959294   -0.956375   -0.966937
 ---------------------------------------------------------------------

 SCF Done:  E(UB3LYP) =  -1082.19075230     A.U. after   33 cycles
 SCF Done:  E(UB3LYP) =  -1082.19075230     a.u. after    1 cycles

 The electronic state is 2-A.
 Alpha  occ. eigenvalues --  -88.75336 -19.00002 -14.26306 -14.22645 -14.22141
 Alpha  occ. eigenvalues --  -14.21239 -10.18156 -10.17663 -10.11345 -10.10913
 Alpha  occ. eigenvalues --  -10.10009 -10.09693 -10.09432 -10.09333 -10.09254
 Alpha  occ. eigenvalues --  -10.08752  -7.83894  -5.80301  -5.79946  -5.79224
 Alpha  occ. eigenvalues --   -0.95318  -0.90674  -0.84059  -0.78019  -0.77958
 Alpha  occ. eigenvalues --   -0.72412  -0.70923  -0.67605  -0.66623  -0.62046
 Alpha  occ. eigenvalues --   -0.54623  -0.52757  -0.51233  -0.49996  -0.47561
 Alpha  occ. eigenvalues --   -0.45967  -0.43593  -0.43084  -0.39902  -0.38798
 Alpha  occ. eigenvalues --   -0.38288  -0.37768  -0.36044  -0.35841  -0.34407
 Alpha  occ. eigenvalues --   -0.34040  -0.32603  -0.32372  -0.31857  -0.29664
 Alpha  occ. eigenvalues --   -0.29438  -0.27289  -0.26912  -0.26131  -0.23837
 Alpha  occ. eigenvalues --   -0.22737  -0.18424  -0.18182  -0.17712  -0.16784
 Alpha  occ. eigenvalues --   -0.16157  -0.13327  -0.12803   0.03990
 Alpha virt. eigenvalues --    0.05264   0.05709   0.06584   0.06886   0.07478
 Alpha virt. eigenvalues --    0.07743   0.07992   0.08964   0.09338   0.09733
 Alpha virt. eigenvalues --    0.10392   0.11200   0.11786   0.12350   0.12796

  Beta  occ. eigenvalues --  -88.75331 -18.99991 -14.26302 -14.22549 -14.22058
  Beta  occ. eigenvalues --  -14.21227 -10.18142 -10.17658 -10.11342 -10.10906
  Beta  occ. eigenvalues --  -10.09979 -10.09699 -10.09399 -10.09308 -10.09226
  Beta  occ. eigenvalues --  -10.08757  -7.83888  -5.80293  -5.79940  -5.79220
  Beta  occ. eigenvalues --   -0.95295  -0.90638  -0.83994  -0.77969  -0.77809
  Beta  occ. eigenvalues --   -0.72375  -0.70865  -0.67556  -0.66582  -0.62011
  Beta  occ. eigenvalues --   -0.54573  -0.52731  -0.51130  -0.49942  -0.47511
  Beta  occ. eigenvalues --   -0.45913  -0.43490  -0.43031  -0.39876  -0.38760
  Beta  occ. eigenvalues --   -0.38214  -0.37713  -0.36004  -0.35748  -0.34390
  Beta  occ. eigenvalues --   -0.34007  -0.32583  -0.32351  -0.31818  -0.29609
  Beta  occ. eigenvalues --   -0.29355  -0.27258  -0.26853  -0.26110  -0.23801
  Beta  occ. eigenvalues --   -0.22701  -0.18389  -0.18086  -0.17594  -0.16689
  Beta  occ. eigenvalues --   -0.16087  -0.13304  -0.12771
  Beta virt. eigenvalues --    0.05432   0.05939   0.06598   0.06877   0.07189
  Beta virt. eigenvalues --    0.07734   0.07906   0.08708   0.09001   0.09857
  Beta virt. eigenvalues --    0.10112   0.10381   0.11730   0.12203   0.12340

 Mulliken charges and spin densities:
               1          2
     1  C   -0.099487  -0.228284
     2  C   -0.231220  -0.063223
     3  C   -0.397698   0.073364
     4  C    0.911812   0.176079
     5  C   -0.490738   0.153872
     6  C   -0.201855  -0.068332
     7  C   -0.416230  -0.282660
     8  S   -0.004434  -0.027696
     9  C   -0.124384  -0.152721
    10  C   -0.002940  -0.254371
    11  O   -0.312355  -0.004364
    12  N   -0.053192  -0.246213
    13  N   -0.188595   0.056569
    14  C    1.218295  -1.297243
    15  N   -0.182455  -0.156637
    16  N   -0.437789   0.166031
    17  H    0.065276   0.066191
    18  H    0.025051   0.131718
    19  H    0.076688   0.058169
    20  H    0.214193   0.019048
    21  H    0.099965   0.067001
    22  H    0.160105   0.072765
    23  H    0.239233  -0.008843
    24  H    0.163942   0.032496
    25  H    0.092160   0.224696
    26  H    0.159758   0.122790
    27  H   -0.677802   0.963883
    28  H    0.029883   0.232905
    29  H    0.023375   0.235171
    30  H   -0.658563   0.937837
 Sum of Mulliken charges =  -1.00000   1.00000

 Dipole moment (field-independent basis, Debye):
    X=             13.4368    Y=             -0.7918    Z=              3.1238  Tot=             13.8178
 Quadrupole moment (field-independent basis, Debye-Ang):
   XX=           -235.9871   YY=           -131.7957   ZZ=           -130.3392
   XY=              1.5659   XZ=            -23.0863   YZ=             -0.7347

 Summary of Natural Population Analysis:

                                       Natural Population
                Natural  -----------------------------------------------
    Atom  No    Charge         Core      Valence    Rydberg      Total
 -----------------------------------------------------------------------
      C    1   -0.10346      0.99957     2.09396    0.00992     3.10346
      C    2   -0.10629      0.99957     2.09659    0.01012     3.10629
      C    3   -0.09365      0.99951     2.08456    0.00958     3.09365
      C    4   -0.02215      0.99950     2.01337    0.00928     3.02215
      C    5   -0.10671      0.99951     2.09856    0.00864     3.10671
      C    6   -0.09917      0.99957     2.08969    0.00991     3.09917
      C    7   -0.25695      0.99954     2.24654    0.01086     3.25695
      S    8    0.10800      4.99965     2.87568    0.01667     7.89200
      C    9   -0.29559      0.99954     2.28570    0.01035     3.29559
      C   10    0.33431      0.99966     1.64103    0.02500     2.66569
      O   11   -0.33193      0.99987     3.32622    0.00584     4.33193
      N   12   -0.24620      0.99965     2.73363    0.01292     3.74620
      N   13   -0.23742      0.99964     2.72381    0.01397     3.73742
      C   14    0.30801      0.99965     1.67482    0.01752     2.69199
      N   15   -0.40569      0.99970     2.89613    0.00985     3.90569
      N   16   -0.39972      0.99971     2.88976    0.01025     3.89972
      H   17    0.09801      0.00000     0.40121    0.00079     0.40199
      H   18    0.09852      0.00000     0.40058    0.00090     0.40148
      H   19    0.09978      0.00000     0.39888    0.00134     0.40022
      H   20    0.11770      0.00000     0.38075    0.00155     0.38230
      H   21    0.09949      0.00000     0.39969    0.00082     0.40051
      H   22    0.10759      0.00000     0.39127    0.00114     0.39241
      H   23    0.11657      0.00000     0.38199    0.00144     0.38343
      H   24    0.11599      0.00000     0.38265    0.00136     0.38401
      H   25    0.12375      0.00000     0.37479    0.00145     0.37625
      H   26    0.18818      0.00000     0.30934    0.00248     0.31182
      H   27    0.20207      0.00000     0.27908    0.01884     0.29793
      H   28    0.19652      0.00000     0.30015    0.00333     0.30348
      H   29    0.19332      0.00000     0.30349    0.00319     0.30668
      H   30    0.19708      0.00000     0.28842    0.01450     0.30292
 =======================================================================
   * Total *   -0.00000     19.99386    42.76234    0.24380    63.00000

 Normal termination of Gaussian 16 at Fri Dec 11 00:19:45 2020.
