 Gaussian 16, Revision A.03,

 -----------------------------------------------------------
 # opt freq B3LYP/6-31G(d) empiricaldispersion=gd3bj scf=xqc
 -----------------------------------------------------------

 ------------------------------
 CID_80805529_JID_9144_neutraal
 ------------------------------
 Symbolic Z-matrix:
 Charge =  0 Multiplicity = 1

 SCF Done:  E(RB3LYP) =  -821.171271059     A.U. after   13 cycles
 SCF Done:  E(RB3LYP) =  -821.182013831     A.U. after   12 cycles
 SCF Done:  E(RB3LYP) =  -821.184819290     A.U. after   12 cycles
 SCF Done:  E(RB3LYP) =  -821.187662948     A.U. after   12 cycles
 SCF Done:  E(RB3LYP) =  -821.188610368     A.U. after   11 cycles
 SCF Done:  E(RB3LYP) =  -821.188715062     A.U. after   12 cycles
 SCF Done:  E(RB3LYP) =  -821.189143150     A.U. after   11 cycles
 SCF Done:  E(RB3LYP) =  -821.189406406     A.U. after   11 cycles
 SCF Done:  E(RB3LYP) =  -821.189721805     A.U. after   12 cycles
 SCF Done:  E(RB3LYP) =  -821.189882967     A.U. after   11 cycles
 SCF Done:  E(RB3LYP) =  -821.191410798     A.U. after    9 cycles
 SCF Done:  E(RB3LYP) =  -821.191416440     A.U. after   10 cycles
 SCF Done:  E(RB3LYP) =  -821.191419404     A.U. after    9 cycles
 SCF Done:  E(RB3LYP) =  -821.191419061     A.U. after    8 cycles
 SCF Done:  E(RB3LYP) =  -821.191420187     A.U. after    9 cycles
 Optimization completed.
    -- Stationary point found.
 Normal termination of Gaussian 16 at Mon Dec 14 13:53:57 2020.

 --------------------------------------------------------------------
 #N Geom=AllCheck Guess=TCheck SCRF=Check GenChk RB3LYP/6-31G(d) Freq
 --------------------------------------------------------------------

 Structure from the checkpoint file:  "JID_9144.chk"
 ------------------------------
 CID_80805529_JID_9144_neutraal
 ------------------------------
 Charge =  0 Multiplicity = 1

 SCF Done:  E(RB3LYP) =  -821.191420187     A.U. after    1 cycles

  Exact polarizability: 207.320   3.025 189.722 -11.527  11.389 131.330
 Approx polarizability: 288.420  -2.139 275.317 -32.222  30.920 201.074

                      1                      2                      3
                      A                      A                      A
 Frequencies --     33.4247                44.2791                46.3200
 Red. masses --      4.1787                 3.4679                 4.1031
 Frc consts  --      0.0028                 0.0040                 0.0052
 IR Inten    --      0.0927                 1.0064                 3.1460

                      4                      5                      6
                      A                      A                      A
 Frequencies --     50.1129                70.5910                87.9891
 Red. masses --      3.2309                 3.3689                 2.4069
 Frc consts  --      0.0048                 0.0099                 0.0110
 IR Inten    --      0.2290                 0.0016                 0.2131

                      7                      8                      9
                      A                      A                      A
 Frequencies --    108.0651               117.4092               160.0478
 Red. masses --      2.3213                 2.4367                 4.9659
 Frc consts  --      0.0160                 0.0198                 0.0749
 IR Inten    --      0.1079                 4.8152                 1.3115

                     10                     11                     12
                      A                      A                      A
 Frequencies --    193.0713               196.7907               216.6130
 Red. masses --      2.8984                 2.1271                 3.2454
 Frc consts  --      0.0637                 0.0485                 0.0897
 IR Inten    --      8.4933                 1.9893                 4.2500

                     13                     14                     15
                      A                      A                      A
 Frequencies --    244.2529               273.1075               298.7432
 Red. masses --      1.4412                 4.0671                 2.8720
 Frc consts  --      0.0507                 0.1787                 0.1510
 IR Inten    --      0.9283                 4.1005                 0.3507

                     16                     17                     18
                      A                      A                      A
 Frequencies --    320.5362               334.2517               349.9235
 Red. masses --      2.3137                 2.4263                 1.2889
 Frc consts  --      0.1401                 0.1597                 0.0930
 IR Inten    --     10.1961                 1.6537                56.2308

                     19                     20                     21
                      A                      A                      A
 Frequencies --    407.5725               429.0678               462.6908
 Red. masses --      2.5797                 3.0477                 3.3259
 Frc consts  --      0.2525                 0.3306                 0.4195
 IR Inten    --      0.0959                 2.5517                 2.4760

                     22                     23                     24
                      A                      A                      A
 Frequencies --    506.9041               515.3431               528.4372
 Red. masses --      3.5528                 1.3014                 2.0204
 Frc consts  --      0.5379                 0.2036                 0.3324
 IR Inten    --      5.4097                75.4317                23.5863

                     25                     26                     27
                      A                      A                      A
 Frequencies --    552.1749               604.8533               633.1191
 Red. masses --      3.1228                 4.1730                 4.3688
 Frc consts  --      0.5610                 0.8995                 1.0318
 IR Inten    --      3.7955                10.7714                 7.2910

                     28                     29                     30
                      A                      A                      A
 Frequencies --    661.3548               684.4394               709.4612
 Red. masses --      3.5017                 2.8155                 3.4364
 Frc consts  --      0.9024                 0.7771                 1.0191
 IR Inten    --      1.5221                 0.0538                 4.3068

                     31                     32                     33
                      A                      A                      A
 Frequencies --    721.8864               753.2478               769.4520
 Red. masses --      3.2174                 3.1856                 1.5199
 Frc consts  --      0.9879                 1.0649                 0.5302
 IR Inten    --      2.5783                 9.0664                23.5660

                     34                     35                     36
                      A                      A                      A
 Frequencies --    789.4282               799.6830               802.1996
 Red. masses --      1.5786                 2.9321                 3.0865
 Frc consts  --      0.5796                 1.1047                 1.1703
 IR Inten    --      5.3257                13.9243                17.5831

                     37                     38                     39
                      A                      A                      A
 Frequencies --    834.9466               844.6644               867.0773
 Red. masses --      1.7235                 1.9745                 2.6979
 Frc consts  --      0.7079                 0.8300                 1.1951
 IR Inten    --      1.1422                 4.9394                 2.8670

                     40                     41                     42
                      A                      A                      A
 Frequencies --    910.4624               915.3703               919.7565
 Red. masses --      3.6404                 1.7995                 1.4776
 Frc consts  --      1.7780                 0.8884                 0.7365
 IR Inten    --      5.8110                 5.5188                 4.5783

                     43                     44                     45
                      A                      A                      A
 Frequencies --    948.1719               963.7611               975.7464
 Red. masses --      2.4089                 2.3629                 2.3373
 Frc consts  --      1.2760                 1.2931                 1.3111
 IR Inten    --      5.7240                 2.5109                 2.1782

                     46                     47                     48
                      A                      A                      A
 Frequencies --    986.7055               993.2520              1007.2208
 Red. masses --      1.3675                 8.4479                 1.9557
 Frc consts  --      0.7844                 4.9104                 1.1690
 IR Inten    --      0.9133                 9.5824                 6.3240

                     49                     50                     51
                      A                      A                      A
 Frequencies --   1044.7156              1055.2304              1067.2134
 Red. masses --      2.7585                 1.8886                 2.0669
 Frc consts  --      1.7739                 1.2390                 1.3870
 IR Inten    --      1.2400                 2.1968                 1.9311

                     52                     53                     54
                      A                      A                      A
 Frequencies --   1084.1865              1104.9070              1119.3513
 Red. masses --      2.4914                 2.3755                 2.0756
 Frc consts  --      1.7255                 1.7086                 1.5323
 IR Inten    --      4.6925                13.3434                 1.5219

                     55                     56                     57
                      A                      A                      A
 Frequencies --   1126.4660              1135.4730              1145.7829
 Red. masses --      1.6418                 2.6163                 2.0964
 Frc consts  --      1.2275                 1.9874                 1.6216
 IR Inten    --      5.2101                18.0501                43.8576

                     58                     59                     60
                      A                      A                      A
 Frequencies --   1154.4760              1167.5608              1188.9990
 Red. masses --      2.4448                 2.5578                 2.0461
 Frc consts  --      1.9198                 2.0543                 1.7043
 IR Inten    --      4.7193                14.2080                29.0181

                     61                     62                     63
                      A                      A                      A
 Frequencies --   1213.0843              1237.8811              1246.2112
 Red. masses --      1.4434                 1.4087                 1.4482
 Frc consts  --      1.2515                 1.2718                 1.3252
 IR Inten    --     15.1528                 1.5094                 3.7666

                     64                     65                     66
                      A                      A                      A
 Frequencies --   1259.1110              1277.2843              1279.7110
 Red. masses --      1.2432                 1.6625                 1.4842
 Frc consts  --      1.1612                 1.5980                 1.4321
 IR Inten    --      5.9408                12.0511                18.0679

                     67                     68                     69
                      A                      A                      A
 Frequencies --   1291.5277              1304.3505              1319.1538
 Red. masses --      1.7224                 1.2886                 1.1980
 Frc consts  --      1.6927                 1.2917                 1.2283
 IR Inten    --     45.5208                11.1076                 1.0002

                     70                     71                     72
                      A                      A                      A
 Frequencies --   1324.8548              1333.8443              1335.8108
 Red. masses --      1.3735                 1.6836                 1.3455
 Frc consts  --      1.4204                 1.7648                 1.4145
 IR Inten    --      1.6360                 3.2345                 1.2746

                     73                     74                     75
                      A                      A                      A
 Frequencies --   1347.5412              1359.6441              1360.6308
 Red. masses --      1.3182                 1.3885                 1.6792
 Frc consts  --      1.4103                 1.5123                 1.8316
 IR Inten    --     16.5300                15.9922                49.2293

                     76                     77                     78
                      A                      A                      A
 Frequencies --   1367.0592              1383.1593              1397.6238
 Red. masses --      1.4193                 1.4673                 1.3712
 Frc consts  --      1.5628                 1.6539                 1.5781
 IR Inten    --     21.8656                 2.2215                40.4697

                     79                     80                     81
                      A                      A                      A
 Frequencies --   1398.7849              1407.1010              1429.6070
 Red. masses --      1.4522                 1.4061                 1.4537
 Frc consts  --      1.6741                 1.6403                 1.7504
 IR Inten    --     17.5610                31.9459                66.7449

                     82                     83                     84
                      A                      A                      A
 Frequencies --   1441.5855              1463.9174              1504.7418
 Red. masses --      1.3139                 1.7054                 1.1591
 Frc consts  --      1.6087                 2.1534                 1.5463
 IR Inten    --     29.1069                57.6715                23.5343

                     85                     86                     87
                      A                      A                      A
 Frequencies --   1510.6955              1514.3674              1516.7768
 Red. masses --      1.1176                 1.0837                 1.0934
 Frc consts  --      1.5028                 1.4642                 1.4821
 IR Inten    --      1.5359                 6.5609                 4.0132

                     88                     89                     90
                      A                      A                      A
 Frequencies --   1520.1909              1526.9445              1534.7904
 Red. masses --      1.5591                 1.0767                 1.1526
 Frc consts  --      2.1229                 1.4791                 1.5997
 IR Inten    --     25.6556                 1.9530                 9.0076

                     91                     92                     93
                      A                      A                      A
 Frequencies --   1536.9571              1537.3776              1554.3994
 Red. masses --      1.0895                 1.0910                 1.2584
 Frc consts  --      1.5163                 1.5193                 1.7913
 IR Inten    --     19.7019                 3.2391                17.3726

                     94                     95                     96
                      A                      A                      A
 Frequencies --   1559.6886              1586.3255              1648.6164
 Red. masses --      2.4725                 2.9234                 4.7504
 Frc consts  --      3.5438                 4.3344                 7.6071
 IR Inten    --     44.9110               501.9208               452.7961

                     97                     98                     99
                      A                      A                      A
 Frequencies --   1651.8451              2926.4832              3025.9573
 Red. masses --      4.1469                 1.0738                 1.0622
 Frc consts  --      6.6667                 5.4183                 5.7304
 IR Inten    --    413.9317                65.4912                28.2159

                    100                    101                    102
                      A                      A                      A
 Frequencies --   3046.6824              3058.0924              3060.5447
 Red. masses --      1.0725                 1.0369                 1.0751
 Frc consts  --      5.8653                 5.7132                 5.9335
 IR Inten    --     81.2333                17.1805                14.5660

                    103                    104                    105
                      A                      A                      A
 Frequencies --   3062.2681              3067.4591              3070.5765
 Red. masses --      1.0997                 1.0714                 1.0614
 Frc consts  --      6.0760                 5.9394                 5.8960
 IR Inten    --     35.8551                25.2654                27.2491

                    106                    107                    108
                      A                      A                      A
 Frequencies --   3073.2583              3081.4636              3086.2831
 Red. masses --      1.0674                 1.0737                 1.0817
 Frc consts  --      5.9397                 6.0071                 6.0705
 IR Inten    --     58.1052                26.7644                68.2325

                    109                    110                    111
                      A                      A                      A
 Frequencies --   3103.9979              3111.9726              3121.1016
 Red. masses --      1.0981                 1.1035                 1.0983
 Frc consts  --      6.2337                 6.2966                 6.3036
 IR Inten    --     16.6613                42.2665                10.7745

                    112                    113                    114
                      A                      A                      A
 Frequencies --   3121.9093              3128.2637              3132.4644
 Red. masses --      1.1016                 1.0961                 1.1019
 Frc consts  --      6.3261                 6.3199                 6.3704
 IR Inten    --     48.5369                46.3369                32.2662

                    115                    116                    117
                      A                      A                      A
 Frequencies --   3148.8139              3151.3530              3162.8342
 Red. masses --      1.0989                 1.0919                 1.0896
 Frc consts  --      6.4193                 6.3891                 6.4222
 IR Inten    --     31.3687                 4.5367                42.2098

                    118                    119                    120
                      A                      A                      A
 Frequencies --   3211.1913              3624.8863              3646.5687
 Red. masses --      1.0939                 1.0759                 1.0773
 Frc consts  --      6.6459                 8.3295                 8.4401
 IR Inten    --     14.6025                40.5080                29.6853

 - Thermochemistry -
 -------------------
 Temperature   298.150 Kelvin.  Pressure   1.00000 Atm.
 Atom     1 has atomic number  6 and mass  12.00000

 Molecular mass:   261.19535 amu.
 Principal axes and moments of inertia in atomic units:
                           1         2         3
     Eigenvalues --  3311.701816516.280368349.17035
           X            0.99958  -0.02839   0.00503
           Y            0.02843   0.99957  -0.00783
           Z           -0.00481   0.00797   0.99996
 This molecule is an asymmetric top.
 Rotational symmetry number  1.
 Warning -- assumption of classical behavior for rotation
           may cause significant error
 Rotational temperatures (Kelvin)      0.02615     0.01329     0.01037
 Rotational constants (GHZ):           0.54496     0.27696     0.21616
 Zero-point vibrational energy     979418.4 (Joules/Mol)
                                  234.08661 (Kcal/Mol)
 Warning -- explicit consideration of  26 degrees of freedom as
           vibrations may cause significant error
 Vibrational temperatures:     48.09    63.71    66.64    72.10   101.56
          (Kelvin)            126.60   155.48   168.93   230.27   277.79
                              283.14   311.66   351.43   392.94   429.82
                              461.18   480.91   503.46   586.41   617.33
                              665.71   729.32   741.46   760.30   794.46
                              870.25   910.92   951.54   984.76  1020.76
                             1038.63  1083.76  1107.07  1135.81  1150.57
                             1154.19  1201.30  1215.28  1247.53  1309.95
                             1317.01  1323.32  1364.21  1386.64  1403.88
                             1419.65  1429.07  1449.17  1503.11  1518.24
                             1535.48  1559.90  1589.71  1610.50  1620.73
                             1633.69  1648.53  1661.03  1679.86  1710.70
                             1745.36  1781.03  1793.02  1811.58  1837.73
                             1841.22  1858.22  1876.67  1897.97  1906.17
                             1919.10  1921.93  1938.81  1956.22  1957.64
                             1966.89  1990.06  2010.87  2012.54  2024.50
                             2056.89  2074.12  2106.25  2164.99  2173.55
                             2178.84  2182.30  2187.22  2196.93  2208.22
                             2211.34  2211.94  2236.43  2244.04  2282.37
                             2371.99  2376.64  4210.56  4353.68  4383.50
                             4399.91  4403.44  4405.92  4413.39  4417.87
                             4421.73  4433.54  4440.47  4465.96  4477.43
                             4490.57  4491.73  4500.87  4506.92  4530.44
                             4534.09  4550.61  4620.19  5215.40  5246.60

 Zero-point correction=                           0.373041 (Hartree/Particle)
 Thermal correction to Energy=                    0.391045
 Thermal correction to Enthalpy=                  0.391989
 Thermal correction to Gibbs Free Energy=         0.325787
 Sum of electronic and zero-point Energies=           -820.818379
 Sum of electronic and thermal Energies=              -820.800375
 Sum of electronic and thermal Enthalpies=            -820.799431
 Sum of electronic and thermal Free Energies=         -820.865633

                     E (Thermal)             CV                S
                      KCal/Mol        Cal/Mol-Kelvin    Cal/Mol-Kelvin
 Total                  245.385             69.534            139.335
 Electronic               0.000              0.000              0.000
 Translational            0.889              2.981             42.580
 Rotational               0.889              2.981             33.554
 Vibrational            243.607             63.572             63.201
 Vibration     1          0.594              1.983              5.615
 Vibration     2          0.595              1.980              5.058
 Vibration     3          0.595              1.979              4.969
 Vibration     4          0.595              1.978              4.813
 Vibration     5          0.598              1.968              4.137
 Vibration     6          0.601              1.958              3.704
 Vibration     7          0.606              1.943              3.303
 Vibration     8          0.608              1.935              3.143
 Vibration     9          0.622              1.891              2.549
 Vibration    10          0.635              1.849              2.198
 Vibration    11          0.636              1.844              2.163
 Vibration    12          0.645              1.816              1.987
 Vibration    13          0.660              1.772              1.772
 Vibration    14          0.676              1.723              1.576
 Vibration    15          0.692              1.676              1.424
 Vibration    16          0.706              1.634              1.307
 Vibration    17          0.716              1.607              1.239
 Vibration    18          0.727              1.575              1.167
 Vibration    19          0.772              1.454              0.935
 Vibration    20          0.790              1.407              0.862
 Vibration    21          0.820              1.333              0.758
 Vibration    22          0.862              1.235              0.641
 Vibration    23          0.870              1.216              0.621
 Vibration    24          0.883              1.187              0.591
 Vibration    25          0.908              1.135              0.540
 Vibration    26          0.963              1.022              0.441

                           ! Non-Optimized Parameters !
 Normal termination of Gaussian 16 at Mon Dec 14 14:17:43 2020.

 ----------------------------------------------------------------------
 # B3LYP/6-311++G(d,p) empiricaldispersion=gd3bj scf=xqc pop=npa geom=c
 heck
 ----------------------------------------------------------------------

 --------------------------------------
 CID_80805529_JID_9144_Energie_neutraal
 --------------------------------------
 Structure from the checkpoint file:  "JID_9144.chk"
 Charge =  0 Multiplicity = 1

 SCF Done:  E(RB3LYP) =  -821.414316486     A.U. after   15 cycles
 Normal termination of Gaussian 16 at Mon Dec 14 14:29:15 2020.

 ----------------------------------------------------------------------
 # B3LYP/6-311++G(d,p) empiricaldispersion=gd3bj scf=xqc pop=npa geom=c
 heck
 ----------------------------------------------------------------------

 ------------------------------------
 CID_80805529_JID_9144_Energie_kation
 ------------------------------------
 Structure from the checkpoint file:  "JID_9144.chk"
 Charge =  1 Multiplicity = 2

 SCF Done:  E(UB3LYP) =  -821.153802553     A.U. after   24 cycles
 Normal termination of Gaussian 16 at Mon Dec 14 14:54:55 2020.
 Gaussian 16:  ES64L-G16RevA.03 25-Dec-2016

 ----------------------------------------------------------------------
 # B3LYP/6-311++G(d,p) empiricaldispersion=gd3bj scf=xqc pop=npa geom=c
 heck
 ----------------------------------------------------------------------

 -----------------------------------
 CID_80805529_JID_9144_Energie_anion
 -----------------------------------
 Structure from the checkpoint file:  "JID_9144.chk"
 Charge = -1 Multiplicity = 2

                         Standard orientation:
 ---------------------------------------------------------------------
 Center     Atomic      Atomic             Coordinates (Angstroms)
 Number     Number       Type             X           Y           Z
 ---------------------------------------------------------------------
      1          6           0        2.313682   -2.506758    1.295028
      2          6           0        2.435005   -2.989665   -0.151328
      3          6           0        1.994389   -1.944258   -1.187426
      4          7           0        2.776325   -0.724347   -1.143442
      5          6           0        2.389518    0.452505   -0.573697
      6          7           0        3.344357    1.405671   -0.524950
      7          6           0        2.949000    2.569192    0.005961
      8          6           0        1.671465    2.814280    0.476154
      9          6           0        0.757094    1.739588    0.377572
     10          7           0        1.120052    0.555511   -0.137439
     11          7           0       -0.530315    1.890164    0.805106
     12          6           0       -1.550482    0.852513    0.856700
     13          6           0       -1.207353   -0.411841    1.689685
     14          6           0       -1.638848   -1.598782    0.785662
     15          7           0       -2.475714   -1.055721   -0.288675
     16          6           0       -1.984759    0.308793   -0.541592
     17          6           0       -3.167073    1.059414   -1.186480
     18          6           0       -4.379946    0.107793   -1.004903
     19          6           0       -3.899098   -0.906971    0.038197
     20          1           0        2.907929   -1.601535    1.456634
     21          1           0        2.665156   -3.271411    1.996490
     22          1           0        1.274741   -2.269123    1.545867
     23          1           0        3.475044   -3.280134   -0.357473
     24          1           0        1.828629   -3.893485   -0.300773
     25          1           0        2.065350   -2.373121   -2.195457
     26          1           0        0.953698   -1.658957   -1.024862
     27          1           0        3.757377   -0.757379   -1.383276
     28          1           0        3.708405    3.348799    0.055249
     29          1           0        1.387572    3.772597    0.897444
     30          1           0       -0.739377    2.765192    1.259309
     31          1           0       -2.417362    1.345338    1.307640
     32          1           0       -0.140874   -0.450305    1.915795
     33          1           0       -1.752870   -0.404623    2.638548
     34          1           0       -0.754005   -2.063280    0.338825
     35          1           0       -2.181419   -2.379400    1.327651
     36          1           0       -1.101570    0.273465   -1.182051
     37          1           0       -3.326794    2.024503   -0.692601
     38          1           0       -2.983913    1.271999   -2.243285
     39          1           0       -5.291705    0.627100   -0.694661
     40          1           0       -4.592846   -0.409093   -1.945748
     41          1           0       -4.069661   -0.517513    1.061052
     42          1           0       -4.410003   -1.873394   -0.031724
 ---------------------------------------------------------------------

 SCF Done:  E(UB3LYP) =  -821.404095655     A.U. after   33 cycles
 SCF Done:  E(UB3LYP) =  -821.404095655     a.u. after    1 cycles

 The electronic state is 2-A.
 Alpha  occ. eigenvalues --  -14.23622 -14.23411 -14.20125 -14.19915 -14.19732
 Alpha  occ. eigenvalues --  -10.17379 -10.15720 -10.11559 -10.11431 -10.10684
 Alpha  occ. eigenvalues --  -10.09381 -10.09243 -10.09047 -10.08609 -10.07301
 Alpha  occ. eigenvalues --  -10.07190 -10.06943 -10.06771 -10.06326  -0.90686
 Alpha  occ. eigenvalues --   -0.85990  -0.84070  -0.81406  -0.77184  -0.70147
 Alpha  occ. eigenvalues --   -0.69628  -0.67571  -0.64961  -0.61776  -0.60466
 Alpha  occ. eigenvalues --   -0.58399  -0.55181  -0.54059  -0.50768  -0.49184
 Alpha  occ. eigenvalues --   -0.49114  -0.47142  -0.44866  -0.43213  -0.40469
 Alpha  occ. eigenvalues --   -0.39703  -0.38610  -0.37913  -0.37427  -0.36850
 Alpha  occ. eigenvalues --   -0.35827  -0.35063  -0.34098  -0.33568  -0.32689
 Alpha  occ. eigenvalues --   -0.32252  -0.31113  -0.30556  -0.28882  -0.28129
 Alpha  occ. eigenvalues --   -0.27613  -0.26674  -0.26563  -0.26341  -0.25447
 Alpha  occ. eigenvalues --   -0.25220  -0.24187  -0.23448  -0.22656  -0.22004
 Alpha  occ. eigenvalues --   -0.21458  -0.20903  -0.15485  -0.15046  -0.12390
 Alpha  occ. eigenvalues --   -0.10995   0.04085
 Alpha virt. eigenvalues --    0.05504   0.06615   0.07112   0.07610   0.07801
 Alpha virt. eigenvalues --    0.08057   0.08134   0.08956   0.09342   0.09542
 Alpha virt. eigenvalues --    0.10302   0.10387   0.10795   0.10986   0.11619

  Beta  occ. eigenvalues --  -14.23617 -14.23375 -14.20123 -14.19906 -14.19732
  Beta  occ. eigenvalues --  -10.17377 -10.15722 -10.11556 -10.11427 -10.10661
  Beta  occ. eigenvalues --  -10.09363 -10.09237 -10.09048 -10.08597 -10.07290
  Beta  occ. eigenvalues --  -10.07180 -10.06928 -10.06751 -10.06312  -0.90674
  Beta  occ. eigenvalues --   -0.85953  -0.84056  -0.81389  -0.77158  -0.70126
  Beta  occ. eigenvalues --   -0.69604  -0.67545  -0.64931  -0.61750  -0.60446
  Beta  occ. eigenvalues --   -0.58366  -0.55140  -0.54037  -0.50738  -0.49152
  Beta  occ. eigenvalues --   -0.49076  -0.47098  -0.44819  -0.43185  -0.40439
  Beta  occ. eigenvalues --   -0.39667  -0.38583  -0.37876  -0.37388  -0.36824
  Beta  occ. eigenvalues --   -0.35795  -0.35043  -0.34071  -0.33551  -0.32656
  Beta  occ. eigenvalues --   -0.32216  -0.31098  -0.30537  -0.28858  -0.28103
  Beta  occ. eigenvalues --   -0.27591  -0.26649  -0.26545  -0.26324  -0.25428
  Beta  occ. eigenvalues --   -0.25199  -0.24154  -0.23430  -0.22621  -0.21986
  Beta  occ. eigenvalues --   -0.21448  -0.20889  -0.15475  -0.15026  -0.12376
  Beta  occ. eigenvalues --   -0.10974
  Beta virt. eigenvalues --    0.05720   0.06721   0.07185   0.07262   0.07673
  Beta virt. eigenvalues --    0.08190   0.08298   0.08546   0.09013   0.09560
  Beta virt. eigenvalues --    0.09912   0.10308   0.10716   0.10982   0.11357

 Mulliken charges and spin densities:
               1          2
     1  C   -0.282980  -0.138145
     2  C    0.048585  -0.503746
     3  C    0.069946  -0.100569
     4  N   -0.082737  -0.049106
     5  C   -0.150472  -0.267038
     6  N   -0.174472   0.058993
     7  C    0.339441  -0.538306
     8  C    0.007005  -0.337997
     9  C   -0.019368   0.057141
    10  N   -0.107849   0.038826
    11  N   -0.111362   0.121120
    12  C   -0.017577  -0.586858
    13  C    1.439459  -1.458560
    14  C   -1.075622   0.574362
    15  N    0.308392  -0.011482
    16  C   -0.083520   0.229733
    17  C   -0.332474  -0.359376
    18  C    0.157196  -0.509939
    19  C    0.045658  -0.278750
    20  H    0.098893   0.066110
    21  H   -0.097003   0.241570
    22  H    0.010293   0.119637
    23  H   -0.052850   0.186002
    24  H    0.038014   0.090691
    25  H    0.026904   0.134019
    26  H    0.192701   0.030715
    27  H    0.245363   0.058242
    28  H    0.038910   0.136289
    29  H   -0.706185   0.853352
    30  H   -0.265202   0.609574
    31  H   -0.777047   0.974522
    32  H    0.398966  -0.253522
    33  H   -0.384536   0.592957
    34  H    0.162223  -0.004078
    35  H   -0.006853   0.164391
    36  H    0.215443   0.057834
    37  H   -0.093217   0.264538
    38  H    0.022364   0.109991
    39  H   -0.227274   0.384052
    40  H    0.196276  -0.071365
    41  H    0.095500   0.041185
    42  H   -0.108931   0.272989
 Sum of Mulliken charges =  -1.00000   1.00000

 Dipole moment (field-independent basis, Debye):
    X=              3.1438    Y=             -5.1658    Z=             -4.1061  Tot=              7.3095
 Quadrupole moment (field-independent basis, Debye-Ang):
   XX=           -187.3010   YY=           -176.4063   ZZ=           -153.9620
   XY=              8.1017   XZ=              9.8424   YZ=             -8.5859

 Summary of Natural Population Analysis:

                                       Natural Population
                Natural  -----------------------------------------------
    Atom  No    Charge         Core      Valence    Rydberg      Total
 -----------------------------------------------------------------------
      C    1   -0.28844      0.99966     2.28412    0.00466     3.28844
      C    2   -0.19376      0.99964     2.18639    0.00774     3.19376
      C    3   -0.09167      0.99961     2.08090    0.01116     3.09167
      N    4   -0.30841      0.99966     2.79858    0.01017     3.80841
      C    5    0.30874      0.99960     1.67369    0.01797     2.69126
      N    6   -0.29776      0.99968     2.78748    0.01060     3.79776
      C    7    0.04832      0.99959     1.93822    0.01387     2.95168
      C    8   -0.18467      0.99952     2.17563    0.00952     3.18467
      C    9    0.22717      0.99954     1.75807    0.01522     2.77283
      N   10   -0.31004      0.99963     2.80190    0.00850     3.81004
      N   11   -0.29807      0.99965     2.78521    0.01321     3.79807
      C   12   -0.01624      0.99956     1.99982    0.01686     3.01624
      C   13   -0.20606      0.99961     2.19838    0.00807     3.20606
      C   14   -0.08374      0.99963     2.07391    0.01021     3.08374
      N   15   -0.27951      0.99973     2.76901    0.01078     3.77951
      C   16   -0.00901      0.99957     1.99621    0.01323     3.00901
      C   17   -0.19287      0.99962     2.18494    0.00831     3.19287
      C   18   -0.19372      0.99964     2.18584    0.00824     3.19372
      C   19   -0.08724      0.99962     2.07668    0.01094     3.08724
      H   20    0.10097      0.00000     0.39786    0.00117     0.39903
      H   21    0.09653      0.00000     0.40259    0.00087     0.40347
      H   22    0.09991      0.00000     0.39893    0.00116     0.40009
      H   23    0.09098      0.00000     0.40776    0.00126     0.40902
      H   24    0.09550      0.00000     0.40345    0.00105     0.40450
      H   25    0.09119      0.00000     0.40799    0.00082     0.40881
      H   26    0.11114      0.00000     0.38717    0.00169     0.38886
      H   27    0.19269      0.00000     0.30462    0.00268     0.30731
      H   28    0.08837      0.00000     0.41050    0.00113     0.41163
      H   29    0.10927      0.00000     0.38928    0.00145     0.39073
      H   30    0.20119      0.00000     0.28896    0.00985     0.29881
      H   31    0.10555      0.00000     0.38938    0.00506     0.39445
      H   32    0.10769      0.00000     0.39081    0.00150     0.39231
      H   33    0.10036      0.00000     0.39835    0.00129     0.39964
      H   34    0.09183      0.00000     0.40628    0.00189     0.40817
      H   35    0.09384      0.00000     0.40519    0.00097     0.40616
      H   36    0.10742      0.00000     0.39065    0.00193     0.39258
      H   37    0.10257      0.00000     0.39609    0.00134     0.39743
      H   38    0.09851      0.00000     0.40059    0.00091     0.40149
      H   39    0.10061      0.00000     0.39846    0.00093     0.39939
      H   40    0.09491      0.00000     0.40400    0.00110     0.40509
      H   41    0.08259      0.00000     0.41568    0.00172     0.41741
      H   42    0.09337      0.00000     0.40541    0.00122     0.40663
 =======================================================================
   * Total *   -0.00000     18.99275    51.75500    0.25225    71.00000

 Normal termination of Gaussian 16 at Mon Dec 14 15:28:03 2020.
