 Gaussian 16, Revision A.03,

 -----------------------------------------------------------
 # opt freq B3LYP/6-31G(d) empiricaldispersion=gd3bj scf=xqc
 -----------------------------------------------------------

 -------------------------------
 CID_142974128_JID_1229_neutraal
 -------------------------------
 Symbolic Z-matrix:
 Charge =  0 Multiplicity = 1

 SCF Done:  E(RB3LYP) =  -531.537428055     A.U. after   15 cycles
 SCF Done:  E(RB3LYP) =  -531.541338374     A.U. after   13 cycles
 SCF Done:  E(RB3LYP) =  -531.542762446     A.U. after   12 cycles
 SCF Done:  E(RB3LYP) =  -531.544644750     A.U. after   15 cycles
 SCF Done:  E(RB3LYP) =  -531.545708707     A.U. after   13 cycles
 SCF Done:  E(RB3LYP) =  -531.546961865     A.U. after   13 cycles
 SCF Done:  E(RB3LYP) =  -531.548523859     A.U. after   14 cycles
 SCF Done:  E(RB3LYP) =  -531.549172796     A.U. after   13 cycles
 SCF Done:  E(RB3LYP) =  -531.549734994     A.U. after   13 cycles
 SCF Done:  E(RB3LYP) =  -531.549843718     A.U. after   11 cycles
 SCF Done:  E(RB3LYP) =  -531.549871129     A.U. after   11 cycles
 SCF Done:  E(RB3LYP) =  -531.549876940     A.U. after   10 cycles
 SCF Done:  E(RB3LYP) =  -531.549877840     A.U. after    8 cycles
 SCF Done:  E(RB3LYP) =  -531.549877955     A.U. after    8 cycles
 Optimization completed.
    -- Stationary point found.
 Normal termination of Gaussian 16 at Tue Dec  8 19:28:43 2020.

 --------------------------------------------------------------------
 #N Geom=AllCheck Guess=TCheck SCRF=Check GenChk RB3LYP/6-31G(d) Freq
 --------------------------------------------------------------------

 Structure from the checkpoint file:  "JID_1229.chk"
 -------------------------------
 CID_142974128_JID_1229_neutraal
 -------------------------------
 Charge =  0 Multiplicity = 1

 SCF Done:  E(RB3LYP) =  -531.549877955     A.U. after    1 cycles

  Exact polarizability: 118.769  -3.036  90.073 -12.774   3.468  54.180
 Approx polarizability: 165.854  -8.251 161.166 -28.384  10.891  82.435

                      1                      2                      3
                      A                      A                      A
 Frequencies --     43.1336                58.4143                93.4323
 Red. masses --      6.3705                 4.7583                 8.3063
 Frc consts  --      0.0070                 0.0096                 0.0427
 IR Inten    --      0.1429                 3.2778                 4.5049

                      4                      5                      6
                      A                      A                      A
 Frequencies --    178.2743               215.5799               286.8762
 Red. masses --      5.7081                 4.7995                 2.9423
 Frc consts  --      0.1069                 0.1314                 0.1427
 IR Inten    --      0.1556                 4.1932                 5.4728

                      7                      8                      9
                      A                      A                      A
 Frequencies --    335.3411               410.6482               419.3865
 Red. masses --      2.6001                 3.6974                 3.7266
 Frc consts  --      0.1723                 0.3674                 0.3862
 IR Inten    --     21.2494                 2.3869                 2.2297

                     10                     11                     12
                      A                      A                      A
 Frequencies --    520.2924               556.8750               590.0574
 Red. masses --      3.1006                 2.6201                 3.3402
 Frc consts  --      0.4945                 0.4787                 0.6852
 IR Inten    --     10.3697                38.5762                60.2889

                     13                     14                     15
                      A                      A                      A
 Frequencies --    638.3819               666.8111               753.1846
 Red. masses --      5.8537                 1.6919                 1.9873
 Frc consts  --      1.4055                 0.4432                 0.6642
 IR Inten    --      4.4255                68.3105                10.3041

                     16                     17                     18
                      A                      A                      A
 Frequencies --    784.5911               805.7383               845.8088
 Red. masses --      2.1676                 5.4657                 5.3891
 Frc consts  --      0.7862                 2.0907                 2.2715
 IR Inten    --     55.8645                26.3873                36.6511

                     19                     20                     21
                      A                      A                      A
 Frequencies --    854.4849               868.3810               972.2847
 Red. masses --      4.2668                 1.4280                 1.3813
 Frc consts  --      1.8355                 0.6345                 0.7694
 IR Inten    --    118.3682                14.1784                 0.1922

                     22                     23                     24
                      A                      A                      A
 Frequencies --    990.4983              1006.6717              1040.7663
 Red. masses --      1.2706                 6.7382                 1.6801
 Frc consts  --      0.7345                 4.0232                 1.0722
 IR Inten    --      0.0063                 8.5761                 2.1088

                     25                     26                     27
                      A                      A                      A
 Frequencies --   1072.1616              1090.0276              1134.2163
 Red. masses --      2.3594                 1.8140                 1.8468
 Frc consts  --      1.5980                 1.2699                 1.3998
 IR Inten    --      2.6076                 1.2053                52.2951

                     28                     29                     30
                      A                      A                      A
 Frequencies --   1169.4682              1187.4831              1214.0283
 Red. masses --      2.6931                 1.1683                 3.5076
 Frc consts  --      2.1701                 0.9706                 3.0459
 IR Inten    --    257.8292                 9.3328               215.0291

                     31                     32                     33
                      A                      A                      A
 Frequencies --   1303.0594              1330.6279              1342.4670
 Red. masses --      2.1023                 1.3998                 2.9256
 Frc consts  --      2.1031                 1.4603                 3.1065
 IR Inten    --     22.7338                77.5133                55.2525

                     34                     35                     36
                      A                      A                      A
 Frequencies --   1372.4694              1417.0572              1440.9598
 Red. masses --      1.6277                 1.1516                 1.3204
 Frc consts  --      1.8065                 1.3625                 1.6153
 IR Inten    --      5.4081                 3.9555                 9.9418

                     37                     38                     39
                      A                      A                      A
 Frequencies --   1471.8799              1493.7874              1540.7320
 Red. masses --      1.8324                 1.1426                 2.3723
 Frc consts  --      2.3389                 1.5021                 3.3180
 IR Inten    --     14.2349                10.9158               112.2371

                     40                     41                     42
                      A                      A                      A
 Frequencies --   1553.3024              1641.3862              1663.5707
 Red. masses --      1.8464                 4.8187                 5.4718
 Frc consts  --      2.6248                 7.6490                 8.9221
 IR Inten    --    192.5710                33.6251               230.6206

                     43                     44                     45
                      A                      A                      A
 Frequencies --   1807.2097              3064.8998              3133.7627
 Red. masses --      8.6026                 1.0910                 1.0647
 Frc consts  --     16.5537                 6.0381                 6.1602
 IR Inten    --    244.7335                77.7701                31.1090

                     46                     47                     48
                      A                      A                      A
 Frequencies --   3172.2168              3188.6256              3203.8786
 Red. masses --      1.0893                 1.0876                 1.0937
 Frc consts  --      6.4585                 6.5150                 6.6148
 IR Inten    --     28.8956                 6.2918                19.1222

                     49                     50                     51
                      A                      A                      A
 Frequencies --   3223.0319              3230.2303              3613.5743
 Red. masses --      1.0965                 1.1055                 1.0759
 Frc consts  --      6.7111                 6.7962                 8.2772
 IR Inten    --     15.2955                 0.6388                42.0328

 - Thermochemistry -
 -------------------
 Temperature   298.150 Kelvin.  Pressure   1.00000 Atm.
 Atom     1 has atomic number  6 and mass  12.00000

 Molecular mass:   152.05858 amu.
 Principal axes and moments of inertia in atomic units:
                           1         2         3
     Eigenvalues --   659.446322884.145013169.02373
           X            0.99995   0.00693  -0.00762
           Y           -0.00693   0.99998   0.00005
           Z            0.00762   0.00000   0.99997
 This molecule is an asymmetric top.
 Rotational symmetry number  1.
 Warning -- assumption of classical behavior for rotation
           may cause significant error
 Rotational temperatures (Kelvin)      0.13134     0.03003     0.02733
 Rotational constants (GHZ):           2.73675     0.62575     0.56949
 Zero-point vibrational energy     394839.6 (Joules/Mol)
                                   94.36893 (Kcal/Mol)
 Warning -- explicit consideration of  12 degrees of freedom as
           vibrations may cause significant error
 Vibrational temperatures:     62.06    84.05   134.43   256.50   310.17
          (Kelvin)            412.75   482.48   590.83   603.40   748.58
                              801.22   848.96   918.49   959.39  1083.66
                             1128.85  1159.28  1216.93  1229.41  1249.41
                             1398.90  1425.11  1448.38  1497.43  1542.60
                             1568.31  1631.88  1682.60  1708.52  1746.72
                             1874.81  1914.48  1931.51  1974.68  2038.83
                             2073.22  2117.71  2149.23  2216.77  2234.86
                             2361.59  2393.51  2600.17  4409.71  4508.79
                             4564.11  4587.72  4609.67  4637.22  4647.58
                             5199.13

 Zero-point correction=                           0.150386 (Hartree/Particle)
 Thermal correction to Energy=                    0.159792
 Thermal correction to Enthalpy=                  0.160737
 Thermal correction to Gibbs Free Energy=         0.114350
 Sum of electronic and zero-point Energies=           -531.399491
 Sum of electronic and thermal Energies=              -531.390085
 Sum of electronic and thermal Enthalpies=            -531.389141
 Sum of electronic and thermal Free Energies=         -531.435528

                     E (Thermal)             CV                S
                      KCal/Mol        Cal/Mol-Kelvin    Cal/Mol-Kelvin
 Total                  100.271             34.796             97.629
 Electronic               0.000              0.000              0.000
 Translational            0.889              2.981             40.967
 Rotational               0.889              2.981             30.178
 Vibrational             98.494             28.834             26.484
 Vibration     1          0.595              1.980              5.110
 Vibration     2          0.596              1.974              4.510
 Vibration     3          0.602              1.954              3.587
 Vibration     4          0.629              1.869              2.346
 Vibration     5          0.645              1.817              1.996
 Vibration     6          0.684              1.698              1.492
 Vibration     7          0.716              1.605              1.234
 Vibration     8          0.775              1.447              0.924
 Vibration     9          0.782              1.428              0.894
 Vibration    10          0.875              1.205              0.609
 Vibration    11          0.912              1.125              0.530
 Vibration    12          0.947              1.053              0.467

 Optimization completed.
    -- Stationary point found.
 Normal termination of Gaussian 16 at Tue Dec  8 19:31:45 2020.

 ----------------------------------------------------------------------
 # B3LYP/6-311++G(d,p) empiricaldispersion=gd3bj scf=xqc pop=npa geom=c
 heck
 ----------------------------------------------------------------------

 ---------------------------------------
 CID_142974128_JID_1229_Energie_neutraal
 ---------------------------------------
 Structure from the checkpoint file:  "JID_1229.chk"
 Charge =  0 Multiplicity = 1

 SCF Done:  E(RB3LYP) =  -531.704458662     A.U. after   14 cycles
 Normal termination of Gaussian 16 at Tue Dec  8 19:32:40 2020.

 ----------------------------------------------------------------------
 # B3LYP/6-311++G(d,p) empiricaldispersion=gd3bj scf=xqc pop=npa geom=c
 heck
 ----------------------------------------------------------------------

 -------------------------------------
 CID_142974128_JID_1229_Energie_kation
 -------------------------------------
 Structure from the checkpoint file:  "JID_1229.chk"
 Charge =  1 Multiplicity = 2

 SCF Done:  E(UB3LYP) =  -531.401506794     A.U. after   21 cycles
 Normal termination of Gaussian 16 at Tue Dec  8 19:34:36 2020.
 Gaussian 16:  ES64L-G16RevA.03 25-Dec-2016

 ----------------------------------------------------------------------
 # B3LYP/6-311++G(d,p) empiricaldispersion=gd3bj scf=xqc pop=npa geom=c
 heck
 ----------------------------------------------------------------------

 ------------------------------------
 CID_142974128_JID_1229_Energie_anion
 ------------------------------------
 Structure from the checkpoint file:  "JID_1229.chk"
 Charge = -1 Multiplicity = 2

                         Standard orientation:
 ---------------------------------------------------------------------
 Center     Atomic      Atomic             Coordinates (Angstroms)
 Number     Number       Type             X           Y           Z
 ---------------------------------------------------------------------
      1          6           0        2.738417    1.147758   -0.252829
      2          6           0        3.219070   -0.141830   -0.504290
      3          6           0        2.358731   -1.208032   -0.264788
      4          7           0        1.106087   -1.073971    0.188131
      5          6           0        0.659397    0.163806    0.427921
      6          6           0        1.445714    1.313398    0.219129
      7          7           0       -0.627655    0.290156    0.942349
      8          6           0       -1.567410   -0.767066    0.864684
      9          8           0       -2.169453   -0.937283   -0.469264
     10          6           0       -2.926549    0.083415   -0.877355
     11          8           0       -3.128824    1.111905   -0.268649
     12          1           0        3.367867    2.016322   -0.425587
     13          1           0        4.223673   -0.311962   -0.876048
     14          1           0        2.683443   -2.231004   -0.447066
     15          1           0        1.041903    2.300095    0.427300
     16          1           0       -1.037839    1.213502    0.893929
     17          1           0       -1.074349   -1.717132    1.044501
     18          1           0       -2.382139   -0.586038    1.566243
     19          1           0       -3.349586   -0.142746   -1.868173
 ---------------------------------------------------------------------

 SCF Done:  E(UB3LYP) =  -531.687563583     A.U. after   33 cycles
 SCF Done:  E(UB3LYP) =  -531.687563583     a.u. after    1 cycles

 The electronic state is 2-A.
 Alpha  occ. eigenvalues --  -19.07399 -19.02259 -14.22907 -14.19318 -10.20346
 Alpha  occ. eigenvalues --  -10.15999 -10.13852 -10.09478 -10.07382 -10.06537
 Alpha  occ. eigenvalues --  -10.06064  -1.01485  -0.93031  -0.86674  -0.80413
 Alpha  occ. eigenvalues --   -0.69184  -0.65842  -0.61031  -0.53216  -0.52708
 Alpha  occ. eigenvalues --   -0.48929  -0.45243  -0.42132  -0.40862  -0.38893
 Alpha  occ. eigenvalues --   -0.37998  -0.36196  -0.33843  -0.32962  -0.31686
 Alpha  occ. eigenvalues --   -0.30555  -0.28929  -0.27697  -0.26603  -0.22642
 Alpha  occ. eigenvalues --   -0.21489  -0.19386  -0.17711  -0.15717  -0.11675
 Alpha  occ. eigenvalues --    0.05036
 Alpha virt. eigenvalues --    0.06881   0.07514   0.07875   0.08197   0.08278
 Alpha virt. eigenvalues --    0.09387   0.09916   0.10269   0.12188   0.13469
 Alpha virt. eigenvalues --    0.14279   0.14459   0.15091   0.15546   0.17305

  Beta  occ. eigenvalues --  -19.07390 -19.02186 -14.22897 -14.19262 -10.20267
  Beta  occ. eigenvalues --  -10.15986 -10.13860 -10.09433 -10.07303 -10.06493
  Beta  occ. eigenvalues --  -10.06061  -1.01409  -0.92936  -0.86624  -0.80346
  Beta  occ. eigenvalues --   -0.69053  -0.65774  -0.60944  -0.53101  -0.52626
  Beta  occ. eigenvalues --   -0.48806  -0.45180  -0.42066  -0.40764  -0.38788
  Beta  occ. eigenvalues --   -0.37903  -0.36101  -0.33748  -0.32792  -0.31608
  Beta  occ. eigenvalues --   -0.30416  -0.28842  -0.27594  -0.26531  -0.22453
  Beta  occ. eigenvalues --   -0.21397  -0.19312  -0.17389  -0.15644  -0.11566
  Beta virt. eigenvalues --    0.07358   0.07989   0.08138   0.08404   0.08894
  Beta virt. eigenvalues --    0.08966   0.09984   0.10355   0.10795   0.12693
  Beta virt. eigenvalues --    0.13722   0.14239   0.14453   0.15195   0.15550

 Mulliken charges and spin densities:
               1          2
     1  C    2.409057  -3.031093
     2  C    0.747610  -0.682047
     3  C   -0.143037  -0.105290
     4  N   -0.209334   0.117304
     5  C    0.983783  -1.932809
     6  C   -2.510975   3.408108
     7  N   -0.021363   0.033907
     8  C    0.700323  -1.078255
     9  O   -0.064194   0.034799
    10  C    0.158332  -0.028410
    11  O   -0.343535   0.024380
    12  H   -0.931517   1.114398
    13  H   -0.756644   0.931907
    14  H   -0.138805   0.304010
    15  H   -0.898887   1.083743
    16  H    0.247928   0.024117
    17  H    0.248866  -0.023920
    18  H   -0.409528   0.625040
    19  H   -0.068079   0.180112
 Sum of Mulliken charges =  -1.00000   1.00000

 Dipole moment (field-independent basis, Debye):
    X=             -5.8685    Y=             -3.8093    Z=              0.0427  Tot=              6.9965
 Quadrupole moment (field-independent basis, Debye-Ang):
   XX=           -139.7275   YY=           -102.3790   ZZ=            -87.3111
   XY=             -6.6630   XZ=              9.0722   YZ=             -0.0216

 Summary of Natural Population Analysis:

                                       Natural Population
                Natural  -----------------------------------------------
    Atom  No    Charge         Core      Valence    Rydberg      Total
 -----------------------------------------------------------------------
      C    1   -0.06301      0.99957     2.05236    0.01108     3.06301
      C    2   -0.14448      0.99956     2.13417    0.01076     3.14448
      C    3    0.04170      0.99958     1.94418    0.01453     2.95830
      N    4   -0.26055      0.99967     2.74992    0.01096     3.76055
      C    5    0.19887      0.99953     1.78582    0.01578     2.80113
      C    6   -0.13319      0.99952     2.12372    0.00995     3.13319
      N    7   -0.31988      0.99967     2.80967    0.01055     3.81988
      C    8    0.06303      0.99958     1.92110    0.01628     2.93697
      O    9   -0.27887      0.99988     3.27037    0.00863     4.27887
      C   10    0.34441      0.99978     1.63116    0.02466     2.65559
      O   11   -0.30525      0.99988     3.29857    0.00680     4.30525
      H   12    0.10563      0.00000     0.38928    0.00508     0.39437
      H   13    0.10626      0.00000     0.39105    0.00269     0.39374
      H   14    0.08747      0.00000     0.41137    0.00116     0.41253
      H   15    0.10529      0.00000     0.39256    0.00215     0.39471
      H   16    0.19866      0.00000     0.29840    0.00294     0.30134
      H   17    0.10717      0.00000     0.39091    0.00192     0.39283
      H   18    0.09383      0.00000     0.40457    0.00160     0.40617
      H   19    0.05293      0.00000     0.44528    0.00179     0.44707
 =======================================================================
   * Total *   -0.00000     10.99621    28.84446    0.15933    40.00000

 Normal termination of Gaussian 16 at Tue Dec  8 19:37:39 2020.
