 Gaussian 16, Revision A.03,

 -----------------------------------------------------------
 # opt freq B3LYP/6-31G(d) empiricaldispersion=gd3bj scf=xqc
 -----------------------------------------------------------

 -------------------------------
 CID_115680110_JID_5287_neutraal
 -------------------------------
 Symbolic Z-matrix:
 Charge =  0 Multiplicity = 1

 SCF Done:  E(RB3LYP) =  -711.002646406     A.U. after   14 cycles
 SCF Done:  E(RB3LYP) =  -711.009394660     A.U. after   12 cycles
 SCF Done:  E(RB3LYP) =  -711.010535060     A.U. after   12 cycles
 SCF Done:  E(RB3LYP) =  -711.010937885     A.U. after   11 cycles
 SCF Done:  E(RB3LYP) =  -711.011328673     A.U. after   11 cycles
 SCF Done:  E(RB3LYP) =  -711.011431720     A.U. after   11 cycles
 SCF Done:  E(RB3LYP) =  -711.011542561     A.U. after   11 cycles
 SCF Done:  E(RB3LYP) =  -711.011635297     A.U. after   10 cycles
 SCF Done:  E(RB3LYP) =  -711.011732257     A.U. after   13 cycles
 SCF Done:  E(RB3LYP) =  -711.011786426     A.U. after   12 cycles
 SCF Done:  E(RB3LYP) =  -711.011896931     A.U. after    9 cycles
 SCF Done:  E(RB3LYP) =  -711.011904832     A.U. after    9 cycles
 SCF Done:  E(RB3LYP) =  -711.011908901     A.U. after    9 cycles
 SCF Done:  E(RB3LYP) =  -711.011908991     A.U. after    7 cycles
 SCF Done:  E(RB3LYP) =  -711.011909011     A.U. after    7 cycles
 Optimization completed.
    -- Stationary point found.
 Normal termination of Gaussian 16 at Thu Dec 10 15:29:33 2020.

 --------------------------------------------------------------------
 #N Geom=AllCheck Guess=TCheck SCRF=Check GenChk RB3LYP/6-31G(d) Freq
 --------------------------------------------------------------------

 Structure from the checkpoint file:  "JID_5287.chk"
 -------------------------------
 CID_115680110_JID_5287_neutraal
 -------------------------------
 Charge =  0 Multiplicity = 1

 SCF Done:  E(RB3LYP) =  -711.011909011     A.U. after    1 cycles

  Exact polarizability: 149.769 -10.122 121.222   5.113   8.579 110.496
 Approx polarizability: 191.104 -16.146 171.698  13.888  14.769 180.153

                      1                      2                      3
                      A                      A                      A
 Frequencies --     28.5399                40.8482                49.3300
 Red. masses --      4.3539                 4.0755                 4.0151
 Frc consts  --      0.0021                 0.0040                 0.0058
 IR Inten    --      0.1738                 1.0940                 0.3990

                      4                      5                      6
                      A                      A                      A
 Frequencies --     63.5680                83.8970               101.4530
 Red. masses --      3.0187                 3.9582                 2.7424
 Frc consts  --      0.0072                 0.0164                 0.0166
 IR Inten    --      1.9517                 0.6304                 1.7508

                      7                      8                      9
                      A                      A                      A
 Frequencies --    125.4246               148.9093               205.7229
 Red. masses --      4.8615                 2.4847                 3.5348
 Frc consts  --      0.0451                 0.0325                 0.0881
 IR Inten    --      1.0724                 5.2039                 2.8682

                     10                     11                     12
                      A                      A                      A
 Frequencies --    222.4393               243.8367               255.8658
 Red. masses --      3.2310                 1.4861                 1.6676
 Frc consts  --      0.0942                 0.0521                 0.0643
 IR Inten    --      1.4972                 4.1817                43.1766

                     13                     14                     15
                      A                      A                      A
 Frequencies --    286.1814               296.5053               322.1906
 Red. masses --      1.7424                 2.2314                 1.2073
 Frc consts  --      0.0841                 0.1156                 0.0738
 IR Inten    --     44.5538                24.3062                 2.7972

                     16                     17                     18
                      A                      A                      A
 Frequencies --    329.5012               340.9926               362.4832
 Red. masses --      3.1122                 2.0127                 1.7718
 Frc consts  --      0.1991                 0.1379                 0.1372
 IR Inten    --      3.0334                 3.8327                 1.6898

                     19                     20                     21
                      A                      A                      A
 Frequencies --    395.1088               438.5609               456.9792
 Red. masses --      2.2785                 2.6243                 3.0779
 Frc consts  --      0.2096                 0.2974                 0.3787
 IR Inten    --      3.9455                12.9955                 0.7769

                     22                     23                     24
                      A                      A                      A
 Frequencies --    538.7482               590.4788               616.5818
 Red. masses --      2.5835                 3.0141                 3.3612
 Frc consts  --      0.4418                 0.6192                 0.7529
 IR Inten    --     11.3214                 1.0287                 5.1281

                     25                     26                     27
                      A                      A                      A
 Frequencies --    621.2201               670.7855               719.6451
 Red. masses --      3.9683                 1.7024                 1.4726
 Frc consts  --      0.9023                 0.4513                 0.4493
 IR Inten    --      9.2245                55.8765                11.8287

                     28                     29                     30
                      A                      A                      A
 Frequencies --    738.6252               775.2275               801.5085
 Red. masses --      2.2948                 1.6719                 2.3083
 Frc consts  --      0.7376                 0.5920                 0.8737
 IR Inten    --     33.2777                44.3590                38.0622

                     31                     32                     33
                      A                      A                      A
 Frequencies --    846.1018               856.5859               869.2560
 Red. masses --      1.3747                 2.1065                 2.0640
 Frc consts  --      0.5798                 0.9107                 0.9189
 IR Inten    --      8.4159                 7.6681                 2.9354

                     34                     35                     36
                      A                      A                      A
 Frequencies --    895.7995               939.2400               979.9463
 Red. masses --      5.5725                 2.0962                 1.6112
 Frc consts  --      2.6346                 1.0895                 0.9116
 IR Inten    --     29.8933                 2.8294                 8.7250

                     37                     38                     39
                      A                      A                      A
 Frequencies --    985.3883              1004.1271              1017.0982
 Red. masses --      2.3183                 2.6521                 2.6609
 Frc consts  --      1.3263                 1.5755                 1.6218
 IR Inten    --      0.7279                 7.7514                16.1514

                     40                     41                     42
                      A                      A                      A
 Frequencies --   1026.8542              1066.7773              1069.7548
 Red. masses --      2.0630                 2.0046                 1.7702
 Frc consts  --      1.2816                 1.3441                 1.1936
 IR Inten    --     16.2762                15.7838                18.4987

                     43                     44                     45
                      A                      A                      A
 Frequencies --   1098.7728              1105.0012              1125.4082
 Red. masses --      3.0837                 1.9795                 3.9793
 Frc consts  --      2.1935                 1.4240                 2.9695
 IR Inten    --     95.4180                 5.7031                 2.2387

                     46                     47                     48
                      A                      A                      A
 Frequencies --   1166.8865              1174.0471              1186.5104
 Red. masses --      3.1955                 1.5422                 1.9797
 Frc consts  --      2.5636                 1.2524                 1.6421
 IR Inten    --    131.3033                 9.8451                77.0127

                     49                     50                     51
                      A                      A                      A
 Frequencies --   1193.2901              1206.9261              1219.9153
 Red. masses --      1.5974                 2.4710                 2.0806
 Frc consts  --      1.3402                 2.1208                 1.8243
 IR Inten    --     36.1877                12.8490                 6.2185

                     52                     53                     54
                      A                      A                      A
 Frequencies --   1243.4644              1258.1092              1268.8296
 Red. masses --      1.7458                 1.3817                 1.2674
 Frc consts  --      1.5905                 1.2885                 1.2022
 IR Inten    --     41.7002                 6.6072                73.5792

                     55                     56                     57
                      A                      A                      A
 Frequencies --   1278.8469              1289.5674              1307.7286
 Red. masses --      1.9172                 1.5936                 1.2124
 Frc consts  --      1.8473                 1.5614                 1.2216
 IR Inten    --      1.6194                25.1912                27.2823

                     58                     59                     60
                      A                      A                      A
 Frequencies --   1341.5897              1362.8175              1394.3287
 Red. masses --      1.3280                 1.4008                 1.2713
 Frc consts  --      1.4083                 1.5329                 1.4562
 IR Inten    --      4.0725                 2.4460                12.7197

                     61                     62                     63
                      A                      A                      A
 Frequencies --   1401.3923              1424.4407              1431.2345
 Red. masses --      1.3751                 1.5875                 2.1574
 Frc consts  --      1.5911                 1.8978                 2.6038
 IR Inten    --      1.8323                18.5496                 0.5972

                     64                     65                     66
                      A                      A                      A
 Frequencies --   1444.1756              1474.7657              1502.4170
 Red. masses --      1.3347                 1.4062                 1.1497
 Frc consts  --      1.6401                 1.8020                 1.5290
 IR Inten    --      8.2698                 9.6115                 8.8102

                     67                     68                     69
                      A                      A                      A
 Frequencies --   1504.5768              1505.6384              1513.5446
 Red. masses --      1.0894                 1.0974                 1.0484
 Frc consts  --      1.4529                 1.4657                 1.4150
 IR Inten    --     10.5184                 2.9973                 4.4891

                     70                     71                     72
                      A                      A                      A
 Frequencies --   1524.1236              1531.0127              1535.4893
 Red. masses --      1.1533                 1.0650                 1.0656
 Frc consts  --      1.5785                 1.4708                 1.4802
 IR Inten    --     12.9391                 6.3601                 7.6242

                     73                     74                     75
                      A                      A                      A
 Frequencies --   1540.8917              1544.1068              1556.9810
 Red. masses --      1.1426                 3.5165                 1.0843
 Frc consts  --      1.5984                 4.9398                 1.5487
 IR Inten    --      5.4036                26.6983                 5.6240

                     76                     77                     78
                      A                      A                      A
 Frequencies --   1562.0168              1633.8758              2951.3318
 Red. masses --      1.0972                 5.3496                 1.0685
 Frc consts  --      1.5772                 8.4142                 5.4838
 IR Inten    --      0.6966                 0.4790                52.1688

                     79                     80                     81
                      A                      A                      A
 Frequencies --   2979.3411              2994.5876              3016.7105
 Red. masses --      1.0395                 1.0610                 1.1043
 Frc consts  --      5.4362                 5.6059                 5.9209
 IR Inten    --     94.6657                66.7918                74.3500

                     82                     83                     84
                      A                      A                      A
 Frequencies --   3020.6221              3040.6801              3055.6473
 Red. masses --      1.0911                 1.0820                 1.0674
 Frc consts  --      5.8656                 5.8942                 5.8718
 IR Inten    --     10.8716                76.4394                42.7868

                     85                     86                     87
                      A                      A                      A
 Frequencies --   3066.9507              3072.8416              3113.3086
 Red. masses --      1.0879                 1.0386                 1.0962
 Frc consts  --      6.0293                 5.7782                 6.2604
 IR Inten    --     13.5479                19.3908                19.8139

                     88                     89                     90
                      A                      A                      A
 Frequencies --   3127.3778              3131.1627              3137.7773
 Red. masses --      1.0956                 1.0900                 1.1007
 Frc consts  --      6.3136                 6.2963                 6.3850
 IR Inten    --     42.6341                 3.7529                33.9231

                     91                     92                     93
                      A                      A                      A
 Frequencies --   3160.6586              3262.8131              3286.7580
 Red. masses --      1.1020                 1.0917                 1.0971
 Frc consts  --      6.4864                 6.8474                 6.9829
 IR Inten    --     11.7410                 2.1703                 1.0384

                     94                     95                     96
                      A                      A                      A
 Frequencies --   3300.2805              3490.3005              3753.3288
 Red. masses --      1.1044                 1.0736                 1.0664
 Frc consts  --      7.0874                 7.7059                 8.8512
 IR Inten    --      1.9373                 1.2468                12.8065

 - Thermochemistry -
 -------------------
 Temperature   298.150 Kelvin.  Pressure   1.00000 Atm.
 Atom     1 has atomic number  6 and mass  12.00000

 Molecular mass:   213.13649 amu.
 Principal axes and moments of inertia in atomic units:
                           1         2         3
     Eigenvalues --  1865.545435354.601976445.14803
           X            0.99995  -0.00813  -0.00517
           Y            0.00820   0.99987   0.01413
           Z            0.00506  -0.01417   0.99989
 This molecule is an asymmetric top.
 Rotational symmetry number  1.
 Warning -- assumption of classical behavior for rotation
           may cause significant error
 Rotational temperatures (Kelvin)      0.04643     0.01618     0.01344
 Rotational constants (GHZ):           0.96741     0.33704     0.28002
 Zero-point vibrational energy     779027.9 (Joules/Mol)
                                  186.19213 (Kcal/Mol)
 Warning -- explicit consideration of  24 degrees of freedom as
           vibrations may cause significant error
 Vibrational temperatures:     41.06    58.77    70.97    91.46   120.71
          (Kelvin)            145.97   180.46   214.25   295.99   320.04
                              350.83   368.13   411.75   426.61   463.56
                              474.08   490.61   521.53   568.47   630.99
                              657.49   775.14   849.57   887.12   893.80
                              965.11  1035.41  1062.72  1115.38  1153.19
                             1217.35  1232.44  1250.67  1288.86  1351.36
                             1409.92  1417.75  1444.71  1463.38  1477.41
                             1534.85  1539.14  1580.89  1589.85  1619.21
                             1678.89  1689.19  1707.12  1716.88  1736.50
                             1755.19  1789.07  1810.14  1825.56  1839.98
                             1855.40  1881.53  1930.25  1960.79  2006.13
                             2016.29  2049.45  2059.23  2077.85  2121.86
                             2161.64  2164.75  2166.28  2177.65  2192.87
                             2202.79  2209.23  2217.00  2221.63  2240.15
                             2247.39  2350.78  4246.31  4286.61  4308.54
                             4340.37  4346.00  4374.86  4396.39  4412.66
                             4421.13  4479.36  4499.60  4505.04  4514.56
                             4547.48  4694.46  4728.91  4748.37  5021.76
                             5400.20

 Zero-point correction=                           0.296716 (Hartree/Particle)
 Thermal correction to Energy=                    0.313058
 Thermal correction to Enthalpy=                  0.314002
 Thermal correction to Gibbs Free Energy=         0.251717
 Sum of electronic and zero-point Energies=           -710.715193
 Sum of electronic and thermal Energies=              -710.698851
 Sum of electronic and thermal Enthalpies=            -710.697907
 Sum of electronic and thermal Free Energies=         -710.760192

                     E (Thermal)             CV                S
                      KCal/Mol        Cal/Mol-Kelvin    Cal/Mol-Kelvin
 Total                  196.447             60.538            131.090
 Electronic               0.000              0.000              0.000
 Translational            0.889              2.981             41.974
 Rotational               0.889              2.981             32.532
 Vibrational            194.669             54.577             56.585
 Vibration     1          0.593              1.984              5.928
 Vibration     2          0.594              1.981              5.218
 Vibration     3          0.595              1.978              4.844
 Vibration     4          0.597              1.972              4.343
 Vibration     5          0.601              1.960              3.798
 Vibration     6          0.604              1.948              3.426
 Vibration     7          0.610              1.928              3.015
 Vibration     8          0.618              1.904              2.686
 Vibration     9          0.640              1.832              2.081
 Vibration    10          0.648              1.807              1.939
 Vibration    11          0.659              1.773              1.775
 Vibration    12          0.666              1.753              1.690
 Vibration    13          0.684              1.699              1.496
 Vibration    14          0.690              1.680              1.437
 Vibration    15          0.707              1.631              1.299
 Vibration    16          0.712              1.617              1.263
 Vibration    17          0.721              1.594              1.208
 Vibration    18          0.736              1.550              1.111
 Vibration    19          0.762              1.481              0.981
 Vibration    20          0.799              1.386              0.831
 Vibration    21          0.815              1.345              0.775
 Vibration    22          0.894              1.164              0.568
 Vibration    23          0.948              1.052              0.466
 Vibration    24          0.976              0.997              0.422

 Optimization completed.
    -- Stationary point found.
 Normal termination of Gaussian 16 at Thu Dec 10 15:40:59 2020.

 ----------------------------------------------------------------------
 # B3LYP/6-311++G(d,p) empiricaldispersion=gd3bj scf=xqc pop=npa geom=c
 heck
 ----------------------------------------------------------------------

 ---------------------------------------
 CID_115680110_JID_5287_Energie_neutraal
 ---------------------------------------
 Structure from the checkpoint file:  "JID_5287.chk"
 Charge =  0 Multiplicity = 1

 SCF Done:  E(RB3LYP) =  -711.230704423     A.U. after   15 cycles
 Normal termination of Gaussian 16 at Thu Dec 10 15:46:25 2020.

 ----------------------------------------------------------------------
 # B3LYP/6-311++G(d,p) empiricaldispersion=gd3bj scf=xqc pop=npa geom=c
 heck
 ----------------------------------------------------------------------

 -------------------------------------
 CID_115680110_JID_5287_Energie_kation
 -------------------------------------
 Structure from the checkpoint file:  "JID_5287.chk"
 Charge =  1 Multiplicity = 2

 SCF Done:  E(UB3LYP) =  -710.947988462     A.U. after   24 cycles
 Normal termination of Gaussian 16 at Thu Dec 10 15:59:24 2020.
 Gaussian 16:  ES64L-G16RevA.03 25-Dec-2016

 ----------------------------------------------------------------------
 # B3LYP/6-311++G(d,p) empiricaldispersion=gd3bj scf=xqc pop=npa geom=c
 heck
 ----------------------------------------------------------------------

 ------------------------------------
 CID_115680110_JID_5287_Energie_anion
 ------------------------------------
 Structure from the checkpoint file:  "JID_5287.chk"
 Charge = -1 Multiplicity = 2

                         Standard orientation:
 ---------------------------------------------------------------------
 Center     Atomic      Atomic             Coordinates (Angstroms)
 Number     Number       Type             X           Y           Z
 ---------------------------------------------------------------------
      1          6           0        0.971579    0.075511    1.550145
      2          6           0        0.918892   -0.097065    0.028900
      3          6           0        0.251811    1.126112   -0.672743
      4          6           0        0.541237    2.516067   -0.120473
      5          8           0        1.933657    2.812224   -0.225382
      6          6           0        2.354774   -0.230117   -0.509247
      7          8           0        3.058962   -1.222165    0.209841
      8          6           0        4.391297   -1.345486   -0.222881
      9          7           0        0.235800   -1.359622   -0.320442
     10          6           0       -0.996597   -1.760215    0.359763
     11          6           0       -2.240358   -0.917920    0.163354
     12          6           0       -3.098621   -0.963663   -0.896470
     13          8           0       -4.094545   -0.037043   -0.764957
     14          6           0       -3.870551    0.612371    0.413604
     15          6           0       -2.758921    0.118071    1.022087
     16          1           0        1.650924    0.894608    1.801641
     17          1           0        1.352794   -0.836722    2.013403
     18          1           0       -0.011198    0.309361    1.970989
     19          1           0        0.521326    1.108195   -1.738655
     20          1           0       -0.832171    0.997097   -0.623993
     21          1           0       -0.051858    3.247856   -0.691822
     22          1           0        0.208771    2.575289    0.926676
     23          1           0        2.082890    3.684699    0.168398
     24          1           0        2.310539   -0.496819   -1.581755
     25          1           0        2.862857    0.740000   -0.429021
     26          1           0        4.451474   -1.648097   -1.281987
     27          1           0        4.951540   -0.402460   -0.106560
     28          1           0        4.863437   -2.117339    0.391418
     29          1           0        0.091143   -1.386174   -1.327951
     30          1           0       -1.211160   -2.779864    0.018161
     31          1           0       -0.784902   -1.840833    1.429474
     32          1           0       -3.142204   -1.571606   -1.787815
     33          1           0       -4.587264    1.377596    0.669495
     34          1           0       -2.349379    0.436427    1.970757
 ---------------------------------------------------------------------

 SCF Done:  E(UB3LYP) =  -711.217974397     A.U. after   33 cycles
 SCF Done:  E(UB3LYP) =  -711.217974396     a.u. after    1 cycles

 The electronic state is 2-A.
 Alpha  occ. eigenvalues --  -19.10100 -19.02593 -19.01585 -14.19623 -10.13199
 Alpha  occ. eigenvalues --  -10.12778 -10.12187 -10.10894 -10.10842 -10.10787
 Alpha  occ. eigenvalues --  -10.10621 -10.08515 -10.08104 -10.06176 -10.05429
 Alpha  occ. eigenvalues --   -1.02300  -0.94197  -0.91567  -0.81210  -0.72115
 Alpha  occ. eigenvalues --   -0.68885  -0.65833  -0.63426  -0.60453  -0.59092
 Alpha  occ. eigenvalues --   -0.55192  -0.51302  -0.50036  -0.47976  -0.45196
 Alpha  occ. eigenvalues --   -0.43466  -0.42020  -0.39669  -0.38920  -0.38736
 Alpha  occ. eigenvalues --   -0.36978  -0.36443  -0.35761  -0.34566  -0.33526
 Alpha  occ. eigenvalues --   -0.32340  -0.31948  -0.30703  -0.30276  -0.29888
 Alpha  occ. eigenvalues --   -0.28726  -0.27861  -0.27313  -0.25483  -0.25027
 Alpha  occ. eigenvalues --   -0.23714  -0.22522  -0.21895  -0.18468  -0.17407
 Alpha  occ. eigenvalues --   -0.16283  -0.14516  -0.12181   0.04265
 Alpha virt. eigenvalues --    0.06162   0.06505   0.07125   0.07774   0.08220
 Alpha virt. eigenvalues --    0.09076   0.09506   0.09970   0.10276   0.10352
 Alpha virt. eigenvalues --    0.11210   0.11583   0.12642   0.13167   0.13362

  Beta  occ. eigenvalues --  -19.10100 -19.02589 -19.01540 -14.19617 -10.13185
  Beta  occ. eigenvalues --  -10.12758 -10.12178 -10.10894 -10.10810 -10.10779
  Beta  occ. eigenvalues --  -10.10613 -10.08517 -10.08090 -10.06170 -10.05411
  Beta  occ. eigenvalues --   -1.02294  -0.94192  -0.91470  -0.81198  -0.72104
  Beta  occ. eigenvalues --   -0.68863  -0.65803  -0.63385  -0.60423  -0.59068
  Beta  occ. eigenvalues --   -0.55161  -0.51244  -0.50007  -0.47931  -0.45165
  Beta  occ. eigenvalues --   -0.43436  -0.41923  -0.39620  -0.38904  -0.38717
  Beta  occ. eigenvalues --   -0.36956  -0.36433  -0.35726  -0.34548  -0.33505
  Beta  occ. eigenvalues --   -0.32314  -0.31929  -0.30676  -0.30253  -0.29872
  Beta  occ. eigenvalues --   -0.28704  -0.27842  -0.27293  -0.25465  -0.24998
  Beta  occ. eigenvalues --   -0.23695  -0.22478  -0.21873  -0.18458  -0.17363
  Beta  occ. eigenvalues --   -0.16272  -0.14499  -0.12172
  Beta virt. eigenvalues --    0.06336   0.06917   0.07447   0.07884   0.08210
  Beta virt. eigenvalues --    0.08403   0.09333   0.09880   0.10168   0.10507
  Beta virt. eigenvalues --    0.10686   0.11368   0.11884   0.12920   0.13238

 Mulliken charges and spin densities:
               1          2
     1  C   -0.063847  -0.560596
     2  C   -0.008009   0.297609
     3  C   -1.499582   1.136060
     4  C    1.613232  -2.129484
     5  O   -0.343321   0.064107
     6  C   -0.463746  -0.194651
     7  O   -0.104105   0.021561
     8  C    0.051283  -0.295601
     9  N    0.141506   0.075726
    10  C    0.725324  -1.843852
    11  C    1.569064  -1.319459
    12  C   -1.080118   0.952562
    13  O    0.013424  -0.011454
    14  C    0.764704  -1.295350
    15  C   -1.079684   1.615183
    16  H   -0.027743   0.203797
    17  H    0.163058   0.028393
    18  H    0.025540   0.066857
    19  H   -0.109314   0.278960
    20  H    0.863892  -0.646591
    21  H   -0.525573   0.692825
    22  H   -0.402505   0.558144
    23  H   -0.269813   0.542789
    24  H   -0.049710   0.141464
    25  H    0.483009  -0.246833
    26  H    0.004800   0.111344
    27  H   -0.039937   0.158514
    28  H    0.090036   0.042038
    29  H    0.060076   0.166274
    30  H   -0.058801   0.247435
    31  H    0.205795  -0.045587
    32  H   -0.625374   0.802643
    33  H   -0.519065   0.698637
    34  H   -0.504495   0.686536
 Sum of Mulliken charges =  -1.00000   1.00000

 Dipole moment (field-independent basis, Debye):
    X=              1.1038    Y=             -5.7840    Z=             -0.6296  Tot=              5.9220
 Quadrupole moment (field-independent basis, Debye-Ang):
   XX=           -154.1656   YY=           -156.2756   ZZ=           -125.0594
   XY=             -6.1973   XZ=             -0.8460   YZ=             -7.1771

 Summary of Natural Population Analysis:

                                       Natural Population
                Natural  -----------------------------------------------
    Atom  No    Charge         Core      Valence    Rydberg      Total
 -----------------------------------------------------------------------
      C    1   -0.29848      0.99961     2.29078    0.00809     3.29848
      C    2    0.05463      0.99956     1.93118    0.01464     2.94537
      C    3   -0.20936      0.99957     2.19834    0.01144     3.20936
      C    4   -0.00900      0.99959     1.99635    0.01305     3.00900
      O    5   -0.37801      0.99989     3.37091    0.00722     4.37801
      C    6   -0.00955      0.99950     1.99813    0.01193     3.00955
      O    7   -0.29376      0.99988     3.28553    0.00835     4.29376
      C    8   -0.09480      0.99962     2.08702    0.00816     3.09480
      N    9   -0.33833      0.99972     2.82567    0.01294     3.83833
      C   10   -0.09744      0.99958     2.08575    0.01211     3.09744
      C   11   -0.07290      0.99951     2.06272    0.01067     3.07290
      C   12    0.06091      0.99942     1.92507    0.01460     2.93909
      O   13   -0.23212      0.99987     3.22426    0.00799     4.23212
      C   14    0.06329      0.99952     1.92212    0.01508     2.93671
      C   15   -0.14989      0.99952     2.14100    0.00937     3.14989
      H   16    0.10992      0.00000     0.38893    0.00115     0.39008
      H   17    0.10926      0.00000     0.38946    0.00128     0.39074
      H   18    0.09679      0.00000     0.40190    0.00131     0.40321
      H   19    0.09639      0.00000     0.40212    0.00149     0.40361
      H   20    0.11020      0.00000     0.38696    0.00285     0.38980
      H   21    0.07978      0.00000     0.41851    0.00171     0.42022
      H   22    0.07918      0.00000     0.41793    0.00289     0.42082
      H   23    0.23635      0.00000     0.25252    0.01112     0.26365
      H   24    0.07535      0.00000     0.42298    0.00167     0.42465
      H   25    0.09857      0.00000     0.39931    0.00213     0.40143
      H   26    0.07427      0.00000     0.42379    0.00194     0.42573
      H   27    0.07666      0.00000     0.42147    0.00187     0.42334
      H   28    0.08616      0.00000     0.41278    0.00105     0.41384
      H   29    0.17080      0.00000     0.32657    0.00263     0.32920
      H   30    0.10017      0.00000     0.39879    0.00104     0.39983
      H   31    0.09924      0.00000     0.39947    0.00129     0.40076
      H   32    0.09636      0.00000     0.40198    0.00167     0.40364
      H   33    0.09742      0.00000     0.40118    0.00140     0.40258
      H   34    0.11193      0.00000     0.38678    0.00128     0.38807
 =======================================================================
   * Total *   -0.00000     14.99437    42.79825    0.20739    58.00000

 Normal termination of Gaussian 16 at Thu Dec 10 16:17:05 2020.
