 Gaussian 16, Revision A.03,

 -----------------------------------------------------------
 # opt freq B3LYP/6-31G(d) empiricaldispersion=gd3bj scf=xqc
 -----------------------------------------------------------

 -------------------------------
 CID_112661203_JID_3101_neutraal
 -------------------------------
 Symbolic Z-matrix:
 Charge =  0 Multiplicity = 1

 SCF Done:  E(RB3LYP) =  -901.997217526     A.U. after   13 cycles
 SCF Done:  E(RB3LYP) =  -901.996179286     A.U. after   12 cycles
 SCF Done:  E(RB3LYP) =  -902.002039183     A.U. after   11 cycles
 SCF Done:  E(RB3LYP) =  -901.999995993     A.U. after   11 cycles
 SCF Done:  E(RB3LYP) =  -902.003976724     A.U. after   11 cycles
 SCF Done:  E(RB3LYP) =  -902.005016249     A.U. after   11 cycles
 SCF Done:  E(RB3LYP) =  -902.004919262     A.U. after   11 cycles
 SCF Done:  E(RB3LYP) =  -902.004867206     A.U. after   11 cycles
 SCF Done:  E(RB3LYP) =  -902.005213250     A.U. after   10 cycles
 SCF Done:  E(RB3LYP) =  -902.005248066     A.U. after    9 cycles
 SCF Done:  E(RB3LYP) =  -902.005249299     A.U. after    9 cycles
 SCF Done:  E(RB3LYP) =  -902.005253874     A.U. after    9 cycles
 SCF Done:  E(RB3LYP) =  -902.005254165     A.U. after    6 cycles
 SCF Done:  E(RB3LYP) =  -902.005254185     A.U. after    6 cycles
 Optimization completed.
    -- Stationary point found.
 Normal termination of Gaussian 16 at Wed Dec  9 22:28:13 2020.

 --------------------------------------------------------------------
 #N Geom=AllCheck Guess=TCheck SCRF=Check GenChk RB3LYP/6-31G(d) Freq
 --------------------------------------------------------------------

 Structure from the checkpoint file:  "JID_3101.chk"
 -------------------------------
 CID_112661203_JID_3101_neutraal
 -------------------------------
 Charge =  0 Multiplicity = 1

 SCF Done:  E(RB3LYP) =  -902.005254185     A.U. after    1 cycles

  Exact polarizability: 148.757  -3.324 136.505   3.264  -1.763 115.508
 Approx polarizability: 198.266  -4.436 193.934   3.393  -3.245 174.038

                      1                      2                      3
                      A                      A                      A
 Frequencies --     53.6632                66.1826                80.9677
 Red. masses --      3.1581                 3.0014                 4.2654
 Frc consts  --      0.0054                 0.0077                 0.0165
 IR Inten    --      1.7421                 0.2996                 1.8093

                      4                      5                      6
                      A                      A                      A
 Frequencies --     94.9189               114.9589               145.9494
 Red. masses --      3.8510                 2.8568                 3.1151
 Frc consts  --      0.0204                 0.0222                 0.0391
 IR Inten    --      0.4520                 1.2424                 2.5573

                      7                      8                      9
                      A                      A                      A
 Frequencies --    164.9395               181.7757               188.6138
 Red. masses --      1.9368                 1.5535                 2.6532
 Frc consts  --      0.0310                 0.0302                 0.0556
 IR Inten    --      2.1628                 0.6759                 1.1127

                     10                     11                     12
                      A                      A                      A
 Frequencies --    207.1478               212.8643               234.3817
 Red. masses --      1.2506                 3.5683                 2.8880
 Frc consts  --      0.0316                 0.0953                 0.0935
 IR Inten    --      0.7146                 0.3443                 1.2685

                     13                     14                     15
                      A                      A                      A
 Frequencies --    251.9702               269.8300               313.1810
 Red. masses --      2.9535                 2.1333                 1.6246
 Frc consts  --      0.1105                 0.0915                 0.0939
 IR Inten    --      3.1169                 8.1231                26.6293

                     16                     17                     18
                      A                      A                      A
 Frequencies --    332.5885               352.2438               374.3419
 Red. masses --      1.4302                 1.2967                 1.7061
 Frc consts  --      0.0932                 0.0948                 0.1409
 IR Inten    --     26.0459                 5.8818                18.1961

                     19                     20                     21
                      A                      A                      A
 Frequencies --    385.4028               436.3429               452.5336
 Red. masses --      1.8820                 1.8380                 3.0073
 Frc consts  --      0.1647                 0.2062                 0.3629
 IR Inten    --     15.4372                 2.2715                 7.9280

                     22                     23                     24
                      A                      A                      A
 Frequencies --    490.3152               509.2202               593.0084
 Red. masses --      3.2480                 2.7165                 3.6871
 Frc consts  --      0.4601                 0.4150                 0.7639
 IR Inten    --      2.3988                 4.4961                 3.9500

                     25                     26                     27
                      A                      A                      A
 Frequencies --    670.0079               712.3681               716.8423
 Red. masses --      4.1328                 3.5921                 5.0557
 Frc consts  --      1.0931                 1.0740                 1.5307
 IR Inten    --      3.0691                 5.6291                 1.6209

                     28                     29                     30
                      A                      A                      A
 Frequencies --    773.1288               804.3872               864.0364
 Red. masses --      2.6074                 1.0524                 1.8194
 Frc consts  --      0.9183                 0.4012                 0.8003
 IR Inten    --      4.3616                 0.2605                35.2206

                     31                     32                     33
                      A                      A                      A
 Frequencies --    866.8134               879.8528               886.8391
 Red. masses --      1.4565                 1.8599                 2.3481
 Frc consts  --      0.6448                 0.8483                 1.0881
 IR Inten    --     56.7462                30.6716                 0.3743

                     34                     35                     36
                      A                      A                      A
 Frequencies --    918.0615               951.3844               963.0062
 Red. masses --      1.6652                 1.4605                 2.2265
 Frc consts  --      0.8269                 0.7789                 1.2166
 IR Inten    --      1.2374                18.3251                 4.3482

                     37                     38                     39
                      A                      A                      A
 Frequencies --    991.9737               998.9260              1016.2237
 Red. masses --      1.1997                 1.3821                 2.0166
 Frc consts  --      0.6956                 0.8126                 1.2270
 IR Inten    --      5.5300                10.4466                17.1312

                     40                     41                     42
                      A                      A                      A
 Frequencies --   1041.5288              1047.7811              1066.3737
 Red. masses --      1.4934                 1.5220                 1.7297
 Frc consts  --      0.9545                 0.9845                 1.1589
 IR Inten    --     29.8553                 2.9185                12.4754

                     43                     44                     45
                      A                      A                      A
 Frequencies --   1072.2484              1081.5834              1084.4291
 Red. masses --      1.7309                 2.1679                 1.4987
 Frc consts  --      1.1725                 1.4942                 1.0384
 IR Inten    --      0.9404                 8.2484                 8.0132

                     46                     47                     48
                      A                      A                      A
 Frequencies --   1125.3320              1150.0108              1164.1411
 Red. masses --      1.8333                 1.9955                 1.3356
 Frc consts  --      1.3678                 1.5549                 1.0664
 IR Inten    --     41.5250                19.4591                 3.5245

                     49                     50                     51
                      A                      A                      A
 Frequencies --   1194.4007              1207.0795              1222.9825
 Red. masses --      1.3175                 1.4926                 1.4965
 Frc consts  --      1.1074                 1.2814                 1.3188
 IR Inten    --      1.5349                 5.6605                 6.2022

                     52                     53                     54
                      A                      A                      A
 Frequencies --   1255.7951              1281.9401              1296.7387
 Red. masses --      1.2716                 1.7657                 1.3724
 Frc consts  --      1.1815                 1.7097                 1.3597
 IR Inten    --      9.8643                10.3804                13.8051

                     55                     56                     57
                      A                      A                      A
 Frequencies --   1310.4193              1320.7784              1366.6453
 Red. masses --      1.9713                 2.0994                 1.3216
 Frc consts  --      1.9944                 2.1578                 1.4543
 IR Inten    --      0.9506                71.5008                23.0294

                     58                     59                     60
                      A                      A                      A
 Frequencies --   1378.1334              1393.4367              1408.9205
 Red. masses --      1.8249                 1.1848                 1.4776
 Frc consts  --      2.0420                 1.3554                 1.7282
 IR Inten    --      7.4538                 2.5688                10.3674

                     61                     62                     63
                      A                      A                      A
 Frequencies --   1430.8911              1436.1779              1446.5795
 Red. masses --      1.2655                 1.2690                 1.3572
 Frc consts  --      1.5267                 1.5421                 1.6733
 IR Inten    --     10.7804                 6.1623                45.0126

                     64                     65                     66
                      A                      A                      A
 Frequencies --   1449.2094              1480.4348              1481.4875
 Red. masses --      1.4779                 1.0881                 1.1085
 Frc consts  --      1.8287                 1.4050                 1.4334
 IR Inten    --      0.4357                 7.8034                 8.3236

                     67                     68                     69
                      A                      A                      A
 Frequencies --   1490.7523              1497.4293              1510.7322
 Red. masses --      1.1012                 1.0556                 1.0811
 Frc consts  --      1.4418                 1.3946                 1.4537
 IR Inten    --      2.9855                 4.9065                17.0437

                     70                     71                     72
                      A                      A                      A
 Frequencies --   1517.8191              1526.6424              1531.5439
 Red. masses --      1.0531                 1.1737                 1.0716
 Frc consts  --      1.4294                 1.6116                 1.4809
 IR Inten    --      8.0601                 4.7370                 1.8885

                     73                     74                     75
                      A                      A                      A
 Frequencies --   1536.1290              1545.2839              1556.2237
 Red. masses --      1.1913                 1.1340                 1.0619
 Frc consts  --      1.6563                 1.5954                 1.5152
 IR Inten    --      4.4281                 2.2279                 7.0475

                     76                     77                     78
                      A                      A                      A
 Frequencies --   1558.6925              1690.5879              2949.0577
 Red. masses --      1.0628                 1.0863                 1.0698
 Frc consts  --      1.5214                 1.8292                 5.4817
 IR Inten    --      0.7866                24.6090                34.7100

                     79                     80                     81
                      A                      A                      A
 Frequencies --   2949.9614              2960.1174              2998.7277
 Red. masses --      1.0675                 1.0800                 1.0750
 Frc consts  --      5.4735                 5.5756                 5.6956
 IR Inten    --    140.9862                52.7318                56.2330

                     82                     83                     84
                      A                      A                      A
 Frequencies --   3031.9494              3032.8390              3053.4371
 Red. masses --      1.0870                 1.0727                 1.0593
 Frc consts  --      5.8877                 5.8132                 5.8192
 IR Inten    --     54.0700                75.8581                27.3332

                     85                     86                     87
                      A                      A                      A
 Frequencies --   3059.2455              3061.3909              3086.0688
 Red. masses --      1.0409                 1.0319                 1.1007
 Frc consts  --      5.7394                 5.6983                 6.1766
 IR Inten    --     16.9594                40.1881                36.5455

                     88                     89                     90
                      A                      A                      A
 Frequencies --   3116.3524              3125.1297              3134.8210
 Red. masses --      1.0999                 1.1015                 1.0540
 Frc consts  --      6.2933                 6.3380                 6.1029
 IR Inten    --     14.8753                34.0867                27.3128

                     91                     92                     93
                      A                      A                      A
 Frequencies --   3141.2077              3142.3360              3149.4364
 Red. masses --      1.1011                 1.1042                 1.0898
 Frc consts  --      6.4012                 6.4240                 6.3688
 IR Inten    --     13.1133                10.8509                 2.5111

                     94                     95                     96
                      A                      A                      A
 Frequencies --   3156.8366              3157.6949              3211.5497
 Red. masses --      1.1054                 1.0596                 1.1168
 Frc consts  --      6.4905                 6.2251                 6.7865
 IR Inten    --      8.7588                13.6857                11.7207

                     97                     98                     99
                      A                      A                      A
 Frequencies --   3248.7686              3461.3843              3555.0673
 Red. masses --      1.1109                 1.0496                 1.0934
 Frc consts  --      6.9084                 7.4095                 8.1421
 IR Inten    --     16.1544                23.1687                 7.9559

 - Thermochemistry -
 -------------------
 Temperature   298.150 Kelvin.  Pressure   1.00000 Atm.
 Atom     1 has atomic number  6 and mass  12.00000

 Molecular mass:   202.15037 amu.
 Principal axes and moments of inertia in atomic units:
                           1         2         3
     Eigenvalues --  2204.698853158.616973894.69149
           X            0.99977   0.00562   0.02064
           Y           -0.00505   0.99961  -0.02752
           Z           -0.02079   0.02741   0.99941
 This molecule is an asymmetric top.
 Rotational symmetry number  1.
 Warning -- assumption of classical behavior for rotation
           may cause significant error
 Rotational temperatures (Kelvin)      0.03929     0.02742     0.02224
 Rotational constants (GHZ):           0.81859     0.57137     0.46338
 Zero-point vibrational energy     834167.3 (Joules/Mol)
                                  199.37078 (Kcal/Mol)
 Warning -- explicit consideration of  24 degrees of freedom as
           vibrations may cause significant error
 Vibrational temperatures:     77.21    95.22   116.49   136.57   165.40
          (Kelvin)            209.99   237.31   261.53   271.37   298.04
                              306.26   337.22   362.53   388.23   450.60
                              478.52   506.80   538.59   554.51   627.80
                              651.09   705.45   732.65   853.21   963.99
                             1024.94  1031.38  1112.36  1157.33  1243.16
                             1247.15  1265.91  1275.96  1320.89  1368.83
                             1385.55  1427.23  1437.23  1462.12  1498.53
                             1507.52  1534.27  1542.73  1556.16  1560.25
                             1619.10  1654.61  1674.94  1718.48  1736.72
                             1759.60  1806.81  1844.43  1865.72  1885.40
                             1900.31  1966.30  1982.83  2004.84  2027.12
                             2058.73  2066.34  2081.31  2085.09  2130.02
                             2131.53  2144.86  2154.47  2173.61  2183.80
                             2196.50  2203.55  2210.15  2223.32  2239.06
                             2242.61  2432.38  4243.04  4244.34  4258.95
                             4314.50  4362.30  4363.58  4393.21  4401.57
                             4404.66  4440.16  4483.74  4496.36  4510.31
                             4519.50  4521.12  4531.34  4541.98  4543.22
                             4620.70  4674.25  4980.16  5114.95

 Zero-point correction=                           0.317718 (Hartree/Particle)
 Thermal correction to Energy=                    0.333775
 Thermal correction to Enthalpy=                  0.334719
 Thermal correction to Gibbs Free Energy=         0.275321
 Sum of electronic and zero-point Energies=           -901.687537
 Sum of electronic and thermal Energies=              -901.671480
 Sum of electronic and thermal Enthalpies=            -901.670535
 Sum of electronic and thermal Free Energies=         -901.729933

                     E (Thermal)             CV                S
                      KCal/Mol        Cal/Mol-Kelvin    Cal/Mol-Kelvin
 Total                  209.447             60.426            125.013
 Electronic               0.000              0.000              0.000
 Translational            0.889              2.981             41.816
 Rotational               0.889              2.981             31.673
 Vibrational            207.669             54.464             51.524
 Vibration     1          0.596              1.976              4.678
 Vibration     2          0.598              1.970              4.264
 Vibration     3          0.600              1.962              3.867
 Vibration     4          0.603              1.953              3.556
 Vibration     5          0.608              1.937              3.183
 Vibration     6          0.617              1.907              2.724
 Vibration     7          0.623              1.886              2.492
 Vibration     8          0.630              1.865              2.310
 Vibration     9          0.633              1.856              2.241
 Vibration    10          0.641              1.830              2.069
 Vibration    11          0.644              1.821              2.019
 Vibration    12          0.654              1.788              1.845
 Vibration    13          0.664              1.759              1.717
 Vibration    14          0.674              1.729              1.597
 Vibration    15          0.701              1.649              1.345
 Vibration    16          0.715              1.610              1.247
 Vibration    17          0.729              1.571              1.156
 Vibration    18          0.745              1.525              1.062
 Vibration    19          0.754              1.501              1.018
 Vibration    20          0.797              1.391              0.838
 Vibration    21          0.811              1.355              0.788
 Vibration    22          0.846              1.272              0.683
 Vibration    23          0.864              1.230              0.635
 Vibration    24          0.951              1.047              0.462

                           ! Non-Optimized Parameters !
 Normal termination of Gaussian 16 at Wed Dec  9 22:39:17 2020.

 ----------------------------------------------------------------------
 # B3LYP/6-311++G(d,p) empiricaldispersion=gd3bj scf=xqc pop=npa geom=c
 heck
 ----------------------------------------------------------------------

 ---------------------------------------
 CID_112661203_JID_3101_Energie_neutraal
 ---------------------------------------
 Structure from the checkpoint file:  "JID_3101.chk"
 Charge =  0 Multiplicity = 1

 SCF Done:  E(RB3LYP) =  -902.180702034     A.U. after   14 cycles
 Normal termination of Gaussian 16 at Wed Dec  9 22:44:02 2020.

 ----------------------------------------------------------------------
 # B3LYP/6-311++G(d,p) empiricaldispersion=gd3bj scf=xqc pop=npa geom=c
 heck
 ----------------------------------------------------------------------

 -------------------------------------
 CID_112661203_JID_3101_Energie_kation
 -------------------------------------
 Structure from the checkpoint file:  "JID_3101.chk"
 Charge =  1 Multiplicity = 2

 SCF Done:  E(UB3LYP) =  -901.922906236     A.U. after   22 cycles
 Normal termination of Gaussian 16 at Wed Dec  9 22:53:55 2020.
 Gaussian 16:  ES64L-G16RevA.03 25-Dec-2016

 ----------------------------------------------------------------------
 # B3LYP/6-311++G(d,p) empiricaldispersion=gd3bj scf=xqc pop=npa geom=c
 heck
 ----------------------------------------------------------------------

 ------------------------------------
 CID_112661203_JID_3101_Energie_anion
 ------------------------------------
 Structure from the checkpoint file:  "JID_3101.chk"
 Charge = -1 Multiplicity = 2

                         Standard orientation:
 ---------------------------------------------------------------------
 Center     Atomic      Atomic             Coordinates (Angstroms)
 Number     Number       Type             X           Y           Z
 ---------------------------------------------------------------------
      1          6           0        1.424878    0.843733    1.825078
      2          6           0        0.945360    1.547853    0.555344
      3          6           0        1.662660    1.016335   -0.717687
      4         16           0        1.770935   -0.801496   -0.992161
      5          6           0        3.374996   -1.174300   -0.202266
      6          7           0       -0.503209    1.647993    0.483883
      7          6           0       -1.040288    2.660183   -0.391800
      8          6           0       -1.393036    0.605399    0.949955
      9          6           0       -1.861491   -0.506621   -0.013062
     10          6           0       -2.885834   -0.192107   -1.076523
     11          6           0       -1.465877   -0.513822   -1.468821
     12          6           0       -1.979632   -1.862513    0.663528
     13          7           0       -0.688814   -2.262633    1.233245
     14          1           0        1.177842   -0.221669    1.817944
     15          1           0        0.964607    1.300785    2.706419
     16          1           0        2.511687    0.947245    1.914764
     17          1           0        1.295274    2.592968    0.617723
     18          1           0        1.167511    1.419746   -1.605687
     19          1           0        2.692747    1.392684   -0.735066
     20          1           0        4.168191   -0.541807   -0.612935
     21          1           0        3.332678   -1.054389    0.882545
     22          1           0        3.606096   -2.217648   -0.433626
     23          1           0       -1.067136    2.400541   -1.465998
     24          1           0       -2.070292    2.889894   -0.091891
     25          1           0       -0.450698    3.582902   -0.299101
     26          1           0       -0.912026    0.102013    1.788835
     27          1           0       -2.292729    1.097668    1.350646
     28          1           0       -3.660302   -0.926145   -1.287997
     29          1           0       -3.217784    0.839121   -1.166475
     30          1           0       -0.845255    0.292548   -1.840458
     31          1           0       -1.263996   -1.473564   -1.937138
     32          1           0       -2.707841   -1.802958    1.485630
     33          1           0       -2.391004   -2.581913   -0.067798
     34          1           0       -0.738688   -3.214227    1.591364
     35          1           0        0.019916   -2.242210    0.500503
 ---------------------------------------------------------------------

 SCF Done:  E(UB3LYP) =  -902.165207600     A.U. after   31 cycles

 The electronic state is 2-A.
 Alpha  occ. eigenvalues --  -88.73296 -14.19745 -14.18557 -10.10388 -10.09303
 Alpha  occ. eigenvalues --  -10.09033 -10.08947 -10.08786 -10.08641 -10.07916
 Alpha  occ. eigenvalues --  -10.07039 -10.06913 -10.05249  -7.81900  -5.78300
 Alpha  occ. eigenvalues --   -5.77930  -5.77265  -0.82383  -0.78675  -0.74907
 Alpha  occ. eigenvalues --   -0.70142  -0.65395  -0.62256  -0.59349  -0.57357
 Alpha  occ. eigenvalues --   -0.55002  -0.51080  -0.50211  -0.46166  -0.43265
 Alpha  occ. eigenvalues --   -0.40091  -0.39734  -0.37900  -0.37475  -0.35347
 Alpha  occ. eigenvalues --   -0.34547  -0.33024  -0.32986  -0.31852  -0.31156
 Alpha  occ. eigenvalues --   -0.31033  -0.29889  -0.28990  -0.27729  -0.27212
 Alpha  occ. eigenvalues --   -0.26616  -0.25975  -0.25278  -0.24644  -0.23569
 Alpha  occ. eigenvalues --   -0.20372  -0.19029  -0.17860  -0.14222  -0.12529
 Alpha  occ. eigenvalues --   -0.09545   0.04461
 Alpha virt. eigenvalues --    0.06396   0.06520   0.08000   0.08258   0.08408
 Alpha virt. eigenvalues --    0.09267   0.09814   0.10007   0.10658   0.11104
 Alpha virt. eigenvalues --    0.11879   0.12002   0.12396   0.12901   0.13529

  Beta  occ. eigenvalues --  -88.73291 -14.19746 -14.18536 -10.10378 -10.09287
  Beta  occ. eigenvalues --  -10.09013 -10.08920 -10.08775 -10.08591 -10.07916
  Beta  occ. eigenvalues --  -10.07028 -10.06906 -10.05228  -7.81895  -5.78290
  Beta  occ. eigenvalues --   -5.77921  -5.77262  -0.82373  -0.78651  -0.74889
  Beta  occ. eigenvalues --   -0.70107  -0.65357  -0.62228  -0.59292  -0.57309
  Beta  occ. eigenvalues --   -0.54952  -0.51029  -0.50170  -0.46126  -0.43230
  Beta  occ. eigenvalues --   -0.40072  -0.39708  -0.37859  -0.37443  -0.35311
  Beta  occ. eigenvalues --   -0.34513  -0.32984  -0.32956  -0.31816  -0.31115
  Beta  occ. eigenvalues --   -0.30992  -0.29864  -0.28959  -0.27699  -0.27187
  Beta  occ. eigenvalues --   -0.26594  -0.25951  -0.25251  -0.24618  -0.23526
  Beta  occ. eigenvalues --   -0.20326  -0.19005  -0.17847  -0.14197  -0.12509
  Beta  occ. eigenvalues --   -0.09531
  Beta virt. eigenvalues --    0.06485   0.07238   0.07333   0.08372   0.08768
  Beta virt. eigenvalues --    0.08910   0.09624   0.10072   0.10226   0.11154
  Beta virt. eigenvalues --    0.11597   0.12126   0.12345   0.12686   0.13058

 Mulliken charges and spin densities:
               1          2
     1  C    0.207435  -1.009835
     2  C   -0.567203   0.647412
     3  C    0.267526  -0.924650
     4  S   -0.379511   0.662785
     5  C    0.702928  -1.422944
     6  N    0.049547   0.154927
     7  C    0.426350  -0.723615
     8  C    0.011478  -0.804344
     9  C   -0.592505   1.404830
    10  C    0.623585  -0.976636
    11  C    0.239844  -0.542182
    12  C   -0.491343  -0.264806
    13  N   -0.388698  -0.017151
    14  H    0.118600   0.101123
    15  H    0.022609   0.117768
    16  H   -0.218403   0.373026
    17  H   -0.355685   0.554030
    18  H    0.059602   0.151282
    19  H   -0.171691   0.346891
    20  H   -0.286812   0.452446
    21  H   -0.109971   0.278322
    22  H   -0.437537   0.611801
    23  H   -0.104909   0.237018
    24  H   -0.188273   0.319917
    25  H   -0.229302   0.362261
    26  H    0.403877  -0.190443
    27  H    0.077373   0.094748
    28  H   -0.030543   0.174370
    29  H    0.113674   0.024422
    30  H    0.279480  -0.200717
    31  H    0.010068   0.166328
    32  H   -0.032196   0.191472
    33  H   -0.239797   0.360841
    34  H   -0.047269   0.296059
    35  H    0.257671  -0.006755
 Sum of Mulliken charges =  -1.00000   1.00000

 Dipole moment (field-independent basis, Debye):
    X=             -4.0621    Y=              0.2413    Z=             -0.5948  Tot=              4.1125
 Quadrupole moment (field-independent basis, Debye-Ang):
   XX=           -153.8197   YY=           -147.7312   ZZ=           -126.8261
   XY=             -0.1895   XZ=             -0.4853   YZ=              0.3086

 Summary of Natural Population Analysis:

                                       Natural Population
                Natural  -----------------------------------------------
    Atom  No    Charge         Core      Valence    Rydberg      Total
 -----------------------------------------------------------------------
      C    1   -0.29837      0.99964     2.29215    0.00658     3.29837
      C    2   -0.00262      0.99956     1.98669    0.01637     3.00262
      C    3   -0.25410      0.99955     2.24308    0.01146     3.25410
      S    4    0.07822      4.99963     2.90258    0.01958     7.92178
      C    5   -0.34703      0.99962     2.34144    0.00597     3.34703
      N    6   -0.28857      0.99970     2.77354    0.01533     3.78857
      C    7   -0.17234      0.99963     2.16417    0.00853     3.17234
      C    8   -0.07769      0.99955     2.06632    0.01182     3.07769
      C    9   -0.05864      0.99954     2.04614    0.01296     3.05864
      C   10   -0.19699      0.99958     2.18959    0.00782     3.19699
      C   11   -0.19498      0.99958     2.18607    0.00933     3.19498
      C   12   -0.08094      0.99957     2.06951    0.01186     3.08094
      N   13   -0.43087      0.99977     2.92038    0.01072     3.93087
      H   14    0.11046      0.00000     0.38785    0.00169     0.38954
      H   15    0.10190      0.00000     0.39698    0.00112     0.39810
      H   16    0.10182      0.00000     0.39722    0.00096     0.39818
      H   17    0.09254      0.00000     0.40488    0.00258     0.40746
      H   18    0.10535      0.00000     0.39309    0.00156     0.39465
      H   19    0.10346      0.00000     0.39500    0.00154     0.39654
      H   20    0.10148      0.00000     0.39645    0.00208     0.39852
      H   21    0.10176      0.00000     0.39627    0.00196     0.39824
      H   22    0.10722      0.00000     0.39113    0.00166     0.39278
      H   23    0.07808      0.00000     0.42031    0.00161     0.42192
      H   24    0.09326      0.00000     0.40573    0.00101     0.40674
      H   25    0.09453      0.00000     0.40413    0.00134     0.40547
      H   26    0.11206      0.00000     0.38579    0.00215     0.38794
      H   27    0.08879      0.00000     0.40998    0.00123     0.41121
      H   28    0.09920      0.00000     0.39974    0.00106     0.40080
      H   29    0.10064      0.00000     0.39835    0.00101     0.39936
      H   30    0.10403      0.00000     0.39429    0.00168     0.39597
      H   31    0.10366      0.00000     0.39499    0.00135     0.39634
      H   32    0.08768      0.00000     0.41121    0.00111     0.41232
      H   33    0.08010      0.00000     0.41808    0.00182     0.41990
      H   34    0.17406      0.00000     0.32421    0.00173     0.32594
      H   35    0.18283      0.00000     0.31418    0.00298     0.31717
 =======================================================================
   * Total *   -0.00000     16.99492    38.82152    0.18356    56.00000

 Normal termination of Gaussian 16 at Wed Dec  9 23:07:17 2020.
