 Gaussian 16, Revision A.03,

 -----------------------------------------------------------
 # opt freq B3LYP/6-31G(d) empiricaldispersion=gd3bj scf=xqc
 -----------------------------------------------------------

 ------------------------------
 CID_13802695_JID_6817_neutraal
 ------------------------------
 Symbolic Z-matrix:
 Charge =  0 Multiplicity = 1

 SCF Done:  E(RB3LYP) =  -769.011818398     A.U. after   13 cycles
 SCF Done:  E(RB3LYP) =  -769.016898301     A.U. after   12 cycles
 SCF Done:  E(RB3LYP) =  -769.017482154     A.U. after   11 cycles
 SCF Done:  E(RB3LYP) =  -769.017594891     A.U. after   11 cycles
 SCF Done:  E(RB3LYP) =  -769.017704615     A.U. after   11 cycles
 SCF Done:  E(RB3LYP) =  -769.017747582     A.U. after   11 cycles
 SCF Done:  E(RB3LYP) =  -769.017778308     A.U. after   10 cycles
 SCF Done:  E(RB3LYP) =  -769.017795054     A.U. after    9 cycles
 SCF Done:  E(RB3LYP) =  -769.017799426     A.U. after    8 cycles
 SCF Done:  E(RB3LYP) =  -769.017800496     A.U. after    8 cycles
 SCF Done:  E(RB3LYP) =  -769.017800708     A.U. after    7 cycles
 SCF Done:  E(RB3LYP) =  -769.017800770     A.U. after    6 cycles
 SCF Done:  E(RB3LYP) =  -769.017800809     A.U. after    6 cycles
 Optimization completed.
    -- Stationary point found.
 Normal termination of Gaussian 16 at Fri Dec 11 00:40:57 2020.

 --------------------------------------------------------------------
 #N Geom=AllCheck Guess=TCheck SCRF=Check GenChk RB3LYP/6-31G(d) Freq
 --------------------------------------------------------------------

 Structure from the checkpoint file:  "JID_6817.chk"
 ------------------------------
 CID_13802695_JID_6817_neutraal
 ------------------------------
 Charge =  0 Multiplicity = 1

 SCF Done:  E(RB3LYP) =  -769.017800809     A.U. after    1 cycles

  Exact polarizability: 172.498  -3.085 134.537   0.743   8.626  95.573
 Approx polarizability: 223.341  -4.396 215.462   1.726  18.581 143.691

                      1                      2                      3
                      A                      A                      A
 Frequencies --     29.7733                48.1643                55.0786
 Red. masses --      3.8810                 4.2071                 4.0899
 Frc consts  --      0.0020                 0.0058                 0.0073
 IR Inten    --      0.6841                 0.4668                 0.9274

                      4                      5                      6
                      A                      A                      A
 Frequencies --     79.1436                95.8026               111.6809
 Red. masses --      2.6669                 2.9604                 2.3861
 Frc consts  --      0.0098                 0.0160                 0.0175
 IR Inten    --      1.3676                 0.5108                 2.1382

                      7                      8                      9
                      A                      A                      A
 Frequencies --    122.1771               145.0924               159.7395
 Red. masses --      1.6365                 1.5378                 1.5574
 Frc consts  --      0.0144                 0.0191                 0.0234
 IR Inten    --      1.2438                 0.9646                 1.0146

                     10                     11                     12
                      A                      A                      A
 Frequencies --    188.5559               200.3855               222.5005
 Red. masses --      1.8106                 1.6369                 3.9165
 Frc consts  --      0.0379                 0.0387                 0.1142
 IR Inten    --      0.8986                 2.4428                 3.8395

                     13                     14                     15
                      A                      A                      A
 Frequencies --    240.0996               265.4523               268.5714
 Red. masses --      3.9169                 3.8934                 4.1052
 Frc consts  --      0.1330                 0.1616                 0.1745
 IR Inten    --      5.7763                 7.3546                 3.8837

                     16                     17                     18
                      A                      A                      A
 Frequencies --    297.3287               345.1082               353.6885
 Red. masses --      4.2214                 4.8552                 4.2691
 Frc consts  --      0.2199                 0.3407                 0.3146
 IR Inten    --     10.4541                 4.9485                 6.2994

                     19                     20                     21
                      A                      A                      A
 Frequencies --    409.3072               415.1473               452.2104
 Red. masses --      4.4098                 3.0564                 1.1561
 Frc consts  --      0.4353                 0.3104                 0.1393
 IR Inten    --      1.8329                 0.0178               115.4878

                     22                     23                     24
                      A                      A                      A
 Frequencies --    476.2910               518.8765               552.8701
 Red. masses --      3.4534                 4.5215                 4.3598
 Frc consts  --      0.4616                 0.7172                 0.7852
 IR Inten    --     10.5567                23.8632                44.3253

                     25                     26                     27
                      A                      A                      A
 Frequencies --    617.6576               637.1799               658.8257
 Red. masses --      4.3566                 6.2581                 5.0215
 Frc consts  --      0.9792                 1.4970                 1.2842
 IR Inten    --     24.7906                 0.3729                 4.6319

                     28                     29                     30
                      A                      A                      A
 Frequencies --    713.8437               742.4550               766.6574
 Red. masses --      1.9557                 2.7509                 2.2549
 Frc consts  --      0.5872                 0.8935                 0.7809
 IR Inten    --     26.3009                11.2182                33.9518

                     31                     32                     33
                      A                      A                      A
 Frequencies --    858.1286               864.7162               917.1662
 Red. masses --      3.6474                 1.2503                 2.5844
 Frc consts  --      1.5825                 0.5508                 1.2809
 IR Inten    --     15.0959                 0.6518                 2.8921

                     34                     35                     36
                      A                      A                      A
 Frequencies --    945.3617               949.2599               967.1705
 Red. masses --      1.9151                 4.0146                 3.5103
 Frc consts  --      1.0084                 2.1314                 1.9347
 IR Inten    --     20.1336                16.9018                41.0800

                     37                     38                     39
                      A                      A                      A
 Frequencies --    974.9675               996.2924              1023.3642
 Red. masses --      1.3827                 1.2505                 6.0211
 Frc consts  --      0.7744                 0.7313                 3.7152
 IR Inten    --      1.0565                 1.4487                 0.8968

                     40                     41                     42
                      A                      A                      A
 Frequencies --   1033.9136              1063.1587              1085.4767
 Red. masses --      3.7124                 2.4500                 2.9706
 Frc consts  --      2.3381                 1.6316                 2.0622
 IR Inten    --     44.8149                 3.4531                12.1799

                     43                     44                     45
                      A                      A                      A
 Frequencies --   1103.1381              1113.4598              1121.0598
 Red. masses --      4.7359                 4.1817                 2.8928
 Frc consts  --      3.3956                 3.0546                 2.1420
 IR Inten    --    156.4760               125.5497                90.6756

                     46                     47                     48
                      A                      A                      A
 Frequencies --   1142.2435              1173.5934              1188.3948
 Red. masses --      2.9858                 3.0274                 1.2776
 Frc consts  --      2.2952                 2.4567                 1.0631
 IR Inten    --     16.3868               175.5762                 3.3174

                     49                     50                     51
                      A                      A                      A
 Frequencies --   1192.3073              1193.6668              1194.0841
 Red. masses --      1.2953                 1.2871                 1.1060
 Frc consts  --      1.0850                 1.0805                 0.9291
 IR Inten    --      9.9618                 5.5278                 0.2348

                     52                     53                     54
                      A                      A                      A
 Frequencies --   1212.7315              1222.0252              1224.5193
 Red. masses --      1.5961                 1.3659                 1.5284
 Frc consts  --      1.3831                 1.2018                 1.3503
 IR Inten    --      9.8832                23.8652                 7.0213

                     55                     56                     57
                      A                      A                      A
 Frequencies --   1232.3856              1234.3879              1275.3654
 Red. masses --      1.5330                 1.5276                 1.5951
 Frc consts  --      1.3718                 1.3714                 1.5286
 IR Inten    --     22.5982                19.5816                49.1519

                     58                     59                     60
                      A                      A                      A
 Frequencies --   1306.3008              1352.2648              1371.7008
 Red. masses --      1.5049                 2.7595                 1.5886
 Frc consts  --      1.5130                 2.9730                 1.7611
 IR Inten    --     41.3948                 1.0848                 5.2766

                     61                     62                     63
                      A                      A                      A
 Frequencies --   1376.9583              1394.0281              1415.3292
 Red. masses --      1.3669                 1.3411                 1.2571
 Frc consts  --      1.5270                 1.5355                 1.4837
 IR Inten    --      2.9340                19.8208                10.4987

                     64                     65                     66
                      A                      A                      A
 Frequencies --   1430.1363              1461.3943              1495.1615
 Red. masses --      1.2805                 1.2658                 1.1466
 Frc consts  --      1.5430                 1.5927                 1.5102
 IR Inten    --      8.2461                42.4854                 2.8531

                     67                     68                     69
                      A                      A                      A
 Frequencies --   1497.3751              1500.5197              1507.1849
 Red. masses --      1.4415                 1.5636                 1.1755
 Frc consts  --      1.9043                 2.0743                 1.5732
 IR Inten    --      2.6889                 3.5819                 4.8365

                     70                     71                     72
                      A                      A                      A
 Frequencies --   1513.6396              1520.2101              1526.0371
 Red. masses --      1.0497                 1.0538                 1.0597
 Frc consts  --      1.4170                 1.4349                 1.4540
 IR Inten    --      3.5848                 3.7577                 0.9593

                     73                     74                     75
                      A                      A                      A
 Frequencies --   1534.1598              1539.2868              1543.1788
 Red. masses --      1.0497                 1.0521                 1.0536
 Frc consts  --      1.4556                 1.4687                 1.4784
 IR Inten    --      7.6688                 3.6438                 9.6517

                     76                     77                     78
                      A                      A                      A
 Frequencies --   1549.1467              1645.3148              1667.8499
 Red. masses --      2.1588                 5.5084                 5.4555
 Frc consts  --      3.0525                 8.7856                 8.9412
 IR Inten    --     10.4452                 1.7648                 2.4273

                     79                     80                     81
                      A                      A                      A
 Frequencies --   3020.3742              3030.4899              3049.7513
 Red. masses --      1.0396                 1.0380                 1.0308
 Frc consts  --      5.5879                 5.6169                 5.6485
 IR Inten    --     42.1130                54.9555                40.0388

                     82                     83                     84
                      A                      A                      A
 Frequencies --   3057.9616              3083.7378              3096.2625
 Red. masses --      1.0838                 1.0964                 1.0875
 Frc consts  --      5.9710                 6.1429                 6.1429
 IR Inten    --     11.2812                49.8793                20.0916

                     85                     86                     87
                      A                      A                      A
 Frequencies --   3100.5169              3105.7390              3115.0383
 Red. masses --      1.0981                 1.0868                 1.1057
 Frc consts  --      6.2194                 6.1764                 6.3212
 IR Inten    --     44.0405                13.8262                39.2385

                     88                     89                     90
                      A                      A                      A
 Frequencies --   3141.4586              3147.4109              3152.7887
 Red. masses --      1.1013                 1.1051                 1.1034
 Frc consts  --      6.4035                 6.4500                 6.4618
 IR Inten    --     27.4870                37.8901                23.8863

                     91                     92                     93
                      A                      A                      A
 Frequencies --   3180.0980              3189.7243              3201.6676
 Red. masses --      1.0849                 1.0889                 1.0926
 Frc consts  --      6.4642                 6.5277                 6.5990
 IR Inten    --      0.1643                15.1650                29.9726

                     94                     95                     96
                      A                      A                      A
 Frequencies --   3209.6958              3240.3088              3692.8785
 Red. masses --      1.0965                 1.0916                 1.0648
 Frc consts  --      6.6556                 6.7530                 8.5556
 IR Inten    --     22.5254                 3.0326                66.7381

 - Thermochemistry -
 -------------------
 Temperature   298.150 Kelvin.  Pressure   1.00000 Atm.
 Atom     1 has atomic number  6 and mass  12.00000

 Molecular mass:   226.12051 amu.
 Principal axes and moments of inertia in atomic units:
                           1         2         3
     Eigenvalues --  1703.934746192.034386756.07582
           X            0.99998   0.00270  -0.00533
           Y           -0.00263   0.99989   0.01431
           Z            0.00537  -0.01430   0.99988
 This molecule is an asymmetric top.
 Rotational symmetry number  1.
 Warning -- assumption of classical behavior for rotation
           may cause significant error
 Rotational temperatures (Kelvin)      0.05083     0.01399     0.01282
 Rotational constants (GHZ):           1.05916     0.29146     0.26713
 Zero-point vibrational energy     763547.0 (Joules/Mol)
                                  182.49210 (Kcal/Mol)
 Warning -- explicit consideration of  25 degrees of freedom as
           vibrations may cause significant error
 Vibrational temperatures:     42.84    69.30    79.25   113.87   137.84
          (Kelvin)            160.68   175.79   208.76   229.83   271.29
                              288.31   320.13   345.45   381.93   386.41
                              427.79   496.53   508.88   588.90   597.30
                              650.63   685.28   746.55   795.46   888.67
                              916.76   947.90  1027.06  1068.23  1103.05
                             1234.66  1244.13  1319.60  1360.16  1365.77
                             1391.54  1402.76  1433.44  1472.39  1487.57
                             1529.65  1561.76  1587.17  1602.02  1612.96
                             1643.43  1688.54  1709.84  1715.46  1717.42
                             1718.02  1744.85  1758.22  1761.81  1773.13
                             1776.01  1834.97  1879.48  1945.61  1973.57
                             1981.14  2005.70  2036.34  2057.65  2102.62
                             2151.20  2154.39  2158.91  2168.50  2177.79
                             2187.24  2195.63  2207.31  2214.69  2220.29
                             2228.88  2367.24  2399.66  4345.64  4360.20
                             4387.91  4399.72  4436.81  4454.83  4460.95
                             4468.47  4481.85  4519.86  4528.42  4536.16
                             4575.45  4589.30  4606.49  4618.04  4662.08
                             5313.23

 Zero-point correction=                           0.290820 (Hartree/Particle)
 Thermal correction to Energy=                    0.307740
 Thermal correction to Enthalpy=                  0.308684
 Thermal correction to Gibbs Free Energy=         0.245491
 Sum of electronic and zero-point Energies=           -768.726981
 Sum of electronic and thermal Energies=              -768.710061
 Sum of electronic and thermal Enthalpies=            -768.709117
 Sum of electronic and thermal Free Energies=         -768.772310

                     E (Thermal)             CV                S
                      KCal/Mol        Cal/Mol-Kelvin    Cal/Mol-Kelvin
 Total                  193.110             62.005            133.001
 Electronic               0.000              0.000              0.000
 Translational            0.889              2.981             42.150
 Rotational               0.889              2.981             32.633
 Vibrational            191.332             56.043             58.218
 Vibration     1          0.594              1.984              5.844
 Vibration     2          0.595              1.978              4.891
 Vibration     3          0.596              1.976              4.626
 Vibration     4          0.600              1.963              3.912
 Vibration     5          0.603              1.952              3.538
 Vibration     6          0.607              1.940              3.239
 Vibration     7          0.610              1.931              3.066
 Vibration     8          0.616              1.908              2.736
 Vibration     9          0.622              1.892              2.553
 Vibration    10          0.633              1.856              2.242
 Vibration    11          0.638              1.839              2.130
 Vibration    12          0.648              1.807              1.939
 Vibration    13          0.657              1.779              1.802
 Vibration    14          0.671              1.736              1.626
 Vibration    15          0.673              1.731              1.605
 Vibration    16          0.691              1.679              1.432
 Vibration    17          0.723              1.585              1.188
 Vibration    18          0.730              1.568              1.150
 Vibration    19          0.774              1.450              0.929
 Vibration    20          0.779              1.437              0.909
 Vibration    21          0.811              1.356              0.789
 Vibration    22          0.833              1.303              0.720
 Vibration    23          0.874              1.208              0.613
 Vibration    24          0.908              1.133              0.538
 Vibration    25          0.977              0.995              0.420

 Optimization completed.
    -- Stationary point found.
 Normal termination of Gaussian 16 at Fri Dec 11 00:52:25 2020.

 ----------------------------------------------------------------------
 # B3LYP/6-311++G(d,p) empiricaldispersion=gd3bj scf=xqc pop=npa geom=c
 heck
 ----------------------------------------------------------------------

 --------------------------------------
 CID_13802695_JID_6817_Energie_neutraal
 --------------------------------------
 Structure from the checkpoint file:  "JID_6817.chk"
 Charge =  0 Multiplicity = 1

 SCF Done:  E(RB3LYP) =  -769.245926422     A.U. after   14 cycles
 Normal termination of Gaussian 16 at Fri Dec 11 00:56:56 2020.

 ----------------------------------------------------------------------
 # B3LYP/6-311++G(d,p) empiricaldispersion=gd3bj scf=xqc pop=npa geom=c
 heck
 ----------------------------------------------------------------------

 ------------------------------------
 CID_13802695_JID_6817_Energie_kation
 ------------------------------------
 Structure from the checkpoint file:  "JID_6817.chk"
 Charge =  1 Multiplicity = 2

 SCF Done:  E(UB3LYP) =  -768.939421875     A.U. after   26 cycles
 Normal termination of Gaussian 16 at Fri Dec 11 01:08:15 2020.
 Gaussian 16:  ES64L-G16RevA.03 25-Dec-2016

 ----------------------------------------------------------------------
 # B3LYP/6-311++G(d,p) empiricaldispersion=gd3bj scf=xqc pop=npa geom=c
 heck
 ----------------------------------------------------------------------

 -----------------------------------
 CID_13802695_JID_6817_Energie_anion
 -----------------------------------
 Structure from the checkpoint file:  "JID_6817.chk"
 Charge = -1 Multiplicity = 2

                         Standard orientation:
 ---------------------------------------------------------------------
 Center     Atomic      Atomic             Coordinates (Angstroms)
 Number     Number       Type             X           Y           Z
 ---------------------------------------------------------------------
      1          6           0       -0.486564   -1.859897    1.723178
      2          8           0       -0.201896   -1.860094    0.330590
      3          6           0       -0.315835   -0.584339   -0.315480
      4          6           0       -1.750261   -0.069926   -0.253870
      5          6           0       -2.095659    1.242763    0.083623
      6          6           0       -3.436918    1.630054    0.136409
      7          6           0       -4.448987    0.714899   -0.146692
      8          6           0       -4.112850   -0.597162   -0.487792
      9          6           0       -2.776011   -0.982605   -0.540671
     10          6           0        0.758875    0.408465    0.180822
     11          6           0        2.147779   -0.257885    0.193347
     12          8           0        2.587741   -0.208532   -1.151908
     13          6           0        3.753765   -0.980311   -1.405641
     14          8           0        3.068108    0.312059    1.088168
     15          6           0        3.349620    1.699395    0.909785
     16          8           0        0.767148    1.575215   -0.631922
     17          1           0       -0.515518   -2.908359    2.029468
     18          1           0       -1.455837   -1.394879    1.940453
     19          1           0        0.293170   -1.346962    2.304167
     20          1           0       -0.066390   -0.811425   -1.359135
     21          1           0       -1.321560    1.975133    0.276446
     22          1           0       -3.687198    2.654361    0.399180
     23          1           0       -5.491022    1.019773   -0.104570
     24          1           0       -4.892799   -1.320042   -0.711604
     25          1           0       -2.511762   -2.006652   -0.787584
     26          1           0        0.529914    0.738741    1.198665
     27          1           0        2.062903   -1.298848    0.518181
     28          1           0        4.594910   -0.639810   -0.791999
     29          1           0        3.568478   -2.043708   -1.199717
     30          1           0        3.992841   -0.852798   -2.463607
     31          1           0        3.672970    1.913652   -0.115112
     32          1           0        2.481429    2.326294    1.138855
     33          1           0        4.162474    1.929389    1.602492
     34          1           0        1.292461    1.336239   -1.416124
 ---------------------------------------------------------------------

 SCF Done:  E(UB3LYP) =  -769.230282108     A.U. after   33 cycles
 SCF Done:  E(UB3LYP) =  -769.230282108     a.u. after    1 cycles

 The electronic state is 2-A.
 Alpha  occ. eigenvalues --  -19.05079 -19.04333 -19.04216 -19.03573 -10.18067
 Alpha  occ. eigenvalues --  -10.14023 -10.13930 -10.12512 -10.12213 -10.11814
 Alpha  occ. eigenvalues --  -10.09202 -10.08469 -10.08429 -10.08349 -10.08204
 Alpha  occ. eigenvalues --  -10.08187  -0.99360  -0.95315  -0.93781  -0.92632
 Alpha  occ. eigenvalues --   -0.76814  -0.69655  -0.66739  -0.65668  -0.62995
 Alpha  occ. eigenvalues --   -0.60499  -0.59836  -0.54740  -0.51887  -0.50229
 Alpha  occ. eigenvalues --   -0.49012  -0.44699  -0.43304  -0.42624  -0.41745
 Alpha  occ. eigenvalues --   -0.40427  -0.39777  -0.37864  -0.35956  -0.35781
 Alpha  occ. eigenvalues --   -0.35113  -0.34648  -0.33964  -0.33430  -0.32962
 Alpha  occ. eigenvalues --   -0.31903  -0.30864  -0.29754  -0.27964  -0.27280
 Alpha  occ. eigenvalues --   -0.27055  -0.26419  -0.25334  -0.24234  -0.22058
 Alpha  occ. eigenvalues --   -0.21430  -0.19501  -0.19000  -0.17070  -0.16542
 Alpha  occ. eigenvalues --   -0.15549   0.04217
 Alpha virt. eigenvalues --    0.05527   0.06542   0.06836   0.07046   0.07559
 Alpha virt. eigenvalues --    0.07630   0.08145   0.08994   0.09507   0.09915
 Alpha virt. eigenvalues --    0.10284   0.10764   0.11323   0.11822   0.12282

  Beta  occ. eigenvalues --  -19.05068 -19.04330 -19.04214 -19.03567 -10.18063
  Beta  occ. eigenvalues --  -10.14019 -10.13925 -10.12498 -10.12167 -10.11786
  Beta  occ. eigenvalues --  -10.09194 -10.08457 -10.08415 -10.08328 -10.08193
  Beta  occ. eigenvalues --  -10.08183  -0.99347  -0.95309  -0.93770  -0.92620
  Beta  occ. eigenvalues --   -0.76787  -0.69633  -0.66708  -0.65639  -0.62964
  Beta  occ. eigenvalues --   -0.60440  -0.59796  -0.54702  -0.51854  -0.50188
  Beta  occ. eigenvalues --   -0.48984  -0.44671  -0.43257  -0.42608  -0.41713
  Beta  occ. eigenvalues --   -0.40407  -0.39756  -0.37833  -0.35930  -0.35755
  Beta  occ. eigenvalues --   -0.35082  -0.34620  -0.33930  -0.33400  -0.32936
  Beta  occ. eigenvalues --   -0.31874  -0.30837  -0.29727  -0.27931  -0.27251
  Beta  occ. eigenvalues --   -0.27024  -0.26395  -0.25311  -0.24211  -0.22037
  Beta  occ. eigenvalues --   -0.21416  -0.19481  -0.18988  -0.17046  -0.16509
  Beta  occ. eigenvalues --   -0.15512
  Beta virt. eigenvalues --    0.06136   0.06640   0.06741   0.07251   0.07444
  Beta virt. eigenvalues --    0.07754   0.08150   0.08586   0.09402   0.09810
  Beta virt. eigenvalues --    0.10323   0.10623   0.10992   0.11701   0.12143

 Mulliken charges and spin densities:
               1          2
     1  C    0.015386  -0.395433
     2  O   -0.059152   0.016619
     3  C    0.444470  -0.443663
     4  C    0.594581   0.104030
     5  C   -0.770667   0.103653
     6  C   -0.851658   0.401938
     7  C    0.956646  -1.323790
     8  C   -0.535750   0.103582
     9  C   -0.249888   0.549432
    10  C    1.396998  -1.420449
    11  C   -1.517576   0.283145
    12  O   -0.169197   0.075520
    13  C    1.104933  -1.292256
    14  O   -0.063354   0.035631
    15  C    0.662091  -0.916899
    16  O   -0.149513   0.022559
    17  H   -0.073088   0.234727
    18  H    0.118438   0.027023
    19  H    0.055962   0.097647
    20  H    0.043215   0.189052
    21  H    0.189694  -0.014863
    22  H   -0.322203   0.504492
    23  H   -0.468519   0.625074
    24  H   -0.492025   0.664395
    25  H    0.007351   0.190744
    26  H    0.167449   0.084255
    27  H    0.207011   0.027481
    28  H   -0.257383   0.412890
    29  H   -0.283977   0.417742
    30  H   -0.518321   0.667987
    31  H   -0.173055   0.340268
    32  H   -0.039506   0.206364
    33  H   -0.192123   0.352204
    34  H    0.222733   0.068899
 Sum of Mulliken charges =  -1.00000   1.00000

 Dipole moment (field-independent basis, Debye):
    X=             -0.2554    Y=             -0.1007    Z=              2.2134  Tot=              2.2304
 Quadrupole moment (field-independent basis, Debye-Ang):
   XX=           -209.6341   YY=           -137.4262   ZZ=           -131.7347
   XY=              2.9850   XZ=              4.4087   YZ=             -2.8632

 Summary of Natural Population Analysis:

                                       Natural Population
                Natural  -----------------------------------------------
    Atom  No    Charge         Core      Valence    Rydberg      Total
 -----------------------------------------------------------------------
      C    1   -0.10540      0.99960     2.09742    0.00838     3.10540
      O    2   -0.30123      0.99989     3.29229    0.00905     4.30123
      C    3    0.05302      0.99948     1.93134    0.01615     2.94698
      C    4   -0.03149      0.99949     2.02120    0.01080     3.03149
      C    5   -0.09960      0.99951     2.09078    0.00932     3.09960
      C    6   -0.09970      0.99957     2.08946    0.01068     3.09970
      C    7   -0.10081      0.99956     2.09114    0.01011     3.10081
      C    8   -0.10107      0.99956     2.09088    0.01062     3.10107
      C    9   -0.09635      0.99951     2.08685    0.01000     3.09635
      C   10    0.03481      0.99952     1.95187    0.01380     2.96519
      C   11    0.21126      0.99954     1.76930    0.01990     2.78874
      O   12   -0.31658      0.99987     3.30658    0.01013     4.31658
      C   13   -0.09748      0.99960     2.08847    0.00941     3.09748
      O   14   -0.30205      0.99988     3.29269    0.00948     4.30205
      C   15   -0.10556      0.99959     2.09637    0.00960     3.10556
      O   16   -0.37323      0.99990     3.36707    0.00627     4.37323
      H   17    0.09100      0.00000     0.40791    0.00109     0.40900
      H   18    0.08749      0.00000     0.41120    0.00131     0.41251
      H   19    0.07882      0.00000     0.41983    0.00134     0.42118
      H   20    0.10302      0.00000     0.39490    0.00208     0.39698
      H   21    0.11110      0.00000     0.38737    0.00153     0.38890
      H   22    0.10068      0.00000     0.39840    0.00092     0.39932
      H   23    0.10211      0.00000     0.39631    0.00158     0.39789
      H   24    0.10187      0.00000     0.39690    0.00123     0.39813
      H   25    0.10578      0.00000     0.39249    0.00173     0.39422
      H   26    0.09371      0.00000     0.40424    0.00206     0.40629
      H   27    0.09189      0.00000     0.40588    0.00224     0.40811
      H   28    0.08786      0.00000     0.41031    0.00183     0.41214
      H   29    0.08239      0.00000     0.41603    0.00158     0.41761
      H   30    0.09333      0.00000     0.40490    0.00177     0.40667
      H   31    0.08648      0.00000     0.41202    0.00151     0.41352
      H   32    0.08593      0.00000     0.41285    0.00123     0.41407
      H   33    0.08903      0.00000     0.40984    0.00113     0.41097
      H   34    0.23901      0.00000     0.25751    0.00348     0.26099
 =======================================================================
   * Total *    0.00000     15.99408    44.80259    0.20333    61.00000

 Normal termination of Gaussian 16 at Fri Dec 11 01:22:33 2020.
