 Gaussian 16, Revision A.03,

 -----------------------------------------------------------
 # opt freq B3LYP/6-31G(d) empiricaldispersion=gd3bj scf=xqc
 -----------------------------------------------------------

 ------------------------------
 CID_154318687_JID_438_neutraal
 ------------------------------
 Symbolic Z-matrix:
 Charge =  0 Multiplicity = 1

 SCF Done:  E(RB3LYP) =  -425.199697513     A.U. after   12 cycles
 SCF Done:  E(RB3LYP) =  -425.204200856     A.U. after   10 cycles
 SCF Done:  E(RB3LYP) =  -425.204638341     A.U. after   10 cycles
 SCF Done:  E(RB3LYP) =  -425.204600215     A.U. after   10 cycles
 SCF Done:  E(RB3LYP) =  -425.204730724     A.U. after   10 cycles
 SCF Done:  E(RB3LYP) =  -425.204752783     A.U. after    9 cycles
 SCF Done:  E(RB3LYP) =  -425.204754995     A.U. after    7 cycles
 SCF Done:  E(RB3LYP) =  -425.204755592     A.U. after    7 cycles
 SCF Done:  E(RB3LYP) =  -425.204755714     A.U. after    6 cycles
 Optimization completed.
    -- Stationary point found.

 1\1\GINC-NODE310\FOpt\RB3LYP\6-31G(d)\C8H18N2\VSC10255\08-Dec-2020\0\\
 # opt freq B3LYP/6-31G(d) empiricaldispersion=gd3bj scf=xqc\\CID_15431
 8687_JID_438_neutraal\\0,1\C,1.2285573446,-1.2060807055,-0.484267806\C
 ,2.1183756173,-0.1050915142,0.1210176535\C,1.3759178537,1.1511830986,0
 .6123725178\C,0.4457498058,1.7928623997,-0.4501802423\N,-0.9750182688,
 1.9609938663,-0.1133683701\C,-1.6935160289,0.8350810123,0.4910072224\C
 ,-2.0083414345,-0.3466834153,-0.4921118059\C,-1.3352685408,-1.69378444
 35,-0.1177253671\C,0.0994068362,-1.7136490481,0.4440700376\N,-1.823041

 Normal termination of Gaussian 16 at Tue Dec  8 10:37:00 2020.

 --------------------------------------------------------------------
 #N Geom=AllCheck Guess=TCheck SCRF=Check GenChk RB3LYP/6-31G(d) Freq
 --------------------------------------------------------------------

 Structure from the checkpoint file:  "JID_438.chk"
 ------------------------------
 CID_154318687_JID_438_neutraal
 ------------------------------
 Charge =  0 Multiplicity = 1

 SCF Done:  E(RB3LYP) =  -425.204755714     A.U. after    1 cycles

  Exact polarizability: 100.361  -0.353  98.154   3.737  -0.338  84.020
 Approx polarizability: 130.888   0.714 131.377   3.328  -0.241 130.229

                      1                      2                      3
                      A                      A                      A
 Frequencies --    133.5401               149.3728               164.5435
 Red. masses --      3.1407                 1.8492                 1.6773
 Frc consts  --      0.0330                 0.0243                 0.0268
 IR Inten    --      0.2470                18.0684                13.7018

                      4                      5                      6
                      A                      A                      A
 Frequencies --    182.9004               201.4340               257.2284
 Red. masses --      2.0203                 2.3242                 2.0282
 Frc consts  --      0.0398                 0.0556                 0.0791
 IR Inten    --      2.7785                 1.4286                 1.8547

                      7                      8                      9
                      A                      A                      A
 Frequencies --    311.3651               332.0569               337.7160
 Red. masses --      2.3954                 2.2733                 2.2124
 Frc consts  --      0.1368                 0.1477                 0.1487
 IR Inten    --     10.2276                 5.2656                 0.5847

                     10                     11                     12
                      A                      A                      A
 Frequencies --    365.7998               371.9696               451.2672
 Red. masses --      2.4546                 1.9803                 2.1618
 Frc consts  --      0.1935                 0.1614                 0.2594
 IR Inten    --      0.7922                 1.6605                 0.9939

                     13                     14                     15
                      A                      A                      A
 Frequencies --    470.5060               533.8797               620.3590
 Red. masses --      2.1703                 3.1652                 2.0159
 Frc consts  --      0.2831                 0.5316                 0.4571
 IR Inten    --      0.8013                 8.6218                53.9646

                     16                     17                     18
                      A                      A                      A
 Frequencies --    705.3165               720.8008               776.7741
 Red. masses --      1.7392                 1.5433                 2.0383
 Frc consts  --      0.5098                 0.4724                 0.7246
 IR Inten    --     11.2657                 6.3730                 6.3646

                     19                     20                     21
                      A                      A                      A
 Frequencies --    785.7460               808.1081               857.8114
 Red. masses --      1.8637                 2.5503                 1.8240
 Frc consts  --      0.6779                 0.9813                 0.7908
 IR Inten    --     49.4345                 5.4196                 1.2506

                     22                     23                     24
                      A                      A                      A
 Frequencies --    926.9758               937.7036               944.1920
 Red. masses --      1.9103                 2.1551                 1.9261
 Frc consts  --      0.9671                 1.1165                 1.0117
 IR Inten    --     74.3062                47.5569                56.9424

                     25                     26                     27
                      A                      A                      A
 Frequencies --    970.0755               980.9208              1044.5330
 Red. masses --      1.8015                 1.8852                 2.0738
 Frc consts  --      0.9989                 1.0687                 1.3331
 IR Inten    --     17.2456                29.9079                 3.3658

                     28                     29                     30
                      A                      A                      A
 Frequencies --   1059.9512              1063.6208              1080.3725
 Red. masses --      2.2453                 1.9302                 2.0274
 Frc consts  --      1.4863                 1.2865                 1.3942
 IR Inten    --     29.5172                 0.7686                 2.8343

                     31                     32                     33
                      A                      A                      A
 Frequencies --   1093.5521              1128.6208              1147.3570
 Red. masses --      2.1505                 1.9673                 1.9465
 Frc consts  --      1.5152                 1.4764                 1.5098
 IR Inten    --      2.9906                 4.8200                 4.3239

                     34                     35                     36
                      A                      A                      A
 Frequencies --   1171.3158              1211.9677              1227.7086
 Red. masses --      3.0919                 1.2544                 1.4058
 Frc consts  --      2.4994                 1.0856                 1.2484
 IR Inten    --     27.9458                 3.9593                 0.9968

                     37                     38                     39
                      A                      A                      A
 Frequencies --   1245.5115              1276.1563              1285.9019
 Red. masses --      1.2416                 1.3216                 1.0907
 Frc consts  --      1.1348                 1.2681                 1.0626
 IR Inten    --      2.8958                 2.8672                 1.1189

                     40                     41                     42
                      A                      A                      A
 Frequencies --   1313.9273              1339.6376              1342.4699
 Red. masses --      1.1608                 1.1769                 1.1605
 Frc consts  --      1.1807                 1.2444                 1.2323
 IR Inten    --      8.0784                 1.6901                 0.4165

                     43                     44                     45
                      A                      A                      A
 Frequencies --   1353.4003              1379.2321              1390.9891
 Red. masses --      1.3271                 1.2982                 1.2772
 Frc consts  --      1.4322                 1.4550                 1.4560
 IR Inten    --      0.6577                 3.1664                 7.5902

                     46                     47                     48
                      A                      A                      A
 Frequencies --   1399.3993              1410.5990              1418.0764
 Red. masses --      1.3740                 1.2848                 1.3755
 Frc consts  --      1.5854                 1.5063                 1.6297
 IR Inten    --      0.3491                 6.6359                 2.2698

                     49                     50                     51
                      A                      A                      A
 Frequencies --   1422.2246              1431.2563              1441.6600
 Red. masses --      1.2874                 1.3361                 1.3626
 Frc consts  --      1.5343                 1.6126                 1.6685
 IR Inten    --      5.5254                 2.5815                 1.6716

                     52                     53                     54
                      A                      A                      A
 Frequencies --   1512.9164              1513.6902              1516.8399
 Red. masses --      1.0789                 1.0813                 1.0830
 Frc consts  --      1.4550                 1.4598                 1.4681
 IR Inten    --      1.7269                 0.1680                 6.4668

                     55                     56                     57
                      A                      A                      A
 Frequencies --   1523.9351              1527.0128              1530.3236
 Red. masses --      1.1081                 1.1013                 1.1418
 Frc consts  --      1.5162                 1.5130                 1.5754
 IR Inten    --      2.1249                 8.0455                 2.1049

                     58                     59                     60
                      A                      A                      A
 Frequencies --   1543.7103              1558.6472              1710.2979
 Red. masses --      1.0960                 1.0799                 1.0807
 Frc consts  --      1.5389                 1.5457                 1.8625
 IR Inten    --      6.8738                11.5134                20.1085

                     61                     62                     63
                      A                      A                      A
 Frequencies --   2987.3767              3009.6409              3025.7732
 Red. masses --      1.0718                 1.0835                 1.0615
 Frc consts  --      5.6356                 5.7823                 5.7258
 IR Inten    --     53.3998                18.8577                31.6157

                     64                     65                     66
                      A                      A                      A
 Frequencies --   3036.7759              3048.1948              3050.9432
 Red. masses --      1.0662                 1.0668                 1.0712
 Frc consts  --      5.7933                 5.8402                 5.8746
 IR Inten    --     29.3289                38.7778                19.2458

                     67                     68                     69
                      A                      A                      A
 Frequencies --   3057.4527              3059.8574              3069.6489
 Red. masses --      1.0862                 1.0820                 1.0950
 Frc consts  --      5.9827                 5.9688                 6.0792
 IR Inten    --     39.6923                18.5725                22.8421

                     70                     71                     72
                      A                      A                      A
 Frequencies --   3071.3393              3073.8448              3083.5383
 Red. masses --      1.0698                 1.0864                 1.0970
 Frc consts  --      5.9460                 6.0480                 6.1456
 IR Inten    --     49.6404                41.1430                46.7573

                     73                     74                     75
                      A                      A                      A
 Frequencies --   3093.4617              3098.9021              3113.3277
 Red. masses --      1.0975                 1.0958                 1.0957
 Frc consts  --      6.1882                 6.1998                 6.2572
 IR Inten    --     58.8499                85.4993                47.2938

                     76                     77                     78
                      A                      A                      A
 Frequencies --   3467.0557              3509.4589              3561.9358
 Red. masses --      1.0518                 1.0747                 1.0883
 Frc consts  --      7.4493                 7.7988                 8.1350
 IR Inten    --      2.6190                 0.5695                 3.3032

 - Thermochemistry -
 -------------------
 Temperature   298.150 Kelvin.  Pressure   1.00000 Atm.
 Atom     1 has atomic number  6 and mass  12.00000

 Molecular mass:   142.14700 amu.
 Principal axes and moments of inertia in atomic units:
                           1         2         3
     Eigenvalues --  1178.813361417.260592047.23740
           X            0.99982  -0.01337   0.01346
           Y            0.01338   0.99991  -0.00113
           Z           -0.01345   0.00131   0.99991
 This molecule is an asymmetric top.
 Rotational symmetry number  1.
 Warning -- assumption of classical behavior for rotation
           may cause significant error
 Rotational temperatures (Kelvin)      0.07348     0.06111     0.04231
 Rotational constants (GHZ):           1.53098     1.27340     0.88155
 Zero-point vibrational energy     695830.1 (Joules/Mol)
                                  166.30738 (Kcal/Mol)
 Warning -- explicit consideration of  15 degrees of freedom as
           vibrations may cause significant error
 Vibrational temperatures:    192.13   214.91   236.74   263.15   289.82
          (Kelvin)            370.09   447.98   477.76   485.90   526.30
                              535.18   649.27   676.95   768.13   892.56
                             1014.79  1037.07  1117.60  1130.51  1162.69
                             1234.20  1333.71  1349.15  1358.48  1395.72
                             1411.33  1502.85  1525.03  1530.31  1554.42
                             1573.38  1623.83  1650.79  1685.26  1743.75
                             1766.40  1792.01  1836.10  1850.13  1890.45
                             1927.44  1931.51  1947.24  1984.41  2001.32
                             2013.42  2029.54  2040.30  2046.26  2059.26
                             2074.23  2176.75  2177.86  2182.39  2192.60
                             2197.03  2201.79  2221.05  2242.55  2460.74
                             4298.17  4330.20  4353.41  4369.24  4385.67
                             4389.63  4398.99  4402.45  4416.54  4418.97
                             4422.58  4436.52  4450.80  4458.63  4479.38
                             4988.32  5049.33  5124.83

 Zero-point correction=                           0.265028 (Hartree/Particle)
 Thermal correction to Energy=                    0.275271
 Thermal correction to Enthalpy=                  0.276216
 Thermal correction to Gibbs Free Energy=         0.230587
 Sum of electronic and zero-point Energies=           -424.939728
 Sum of electronic and thermal Energies=              -424.929484
 Sum of electronic and thermal Enthalpies=            -424.928540
 Sum of electronic and thermal Free Energies=         -424.974169

                     E (Thermal)             CV                S
                      KCal/Mol        Cal/Mol-Kelvin    Cal/Mol-Kelvin
 Total                  172.735             41.295             96.033
 Electronic               0.000              0.000              0.000
 Translational            0.889              2.981             40.766
 Rotational               0.889              2.981             29.615
 Vibrational            170.958             35.334             25.652
 Vibration     1          0.613              1.920              2.894
 Vibration     2          0.618              1.903              2.680
 Vibration     3          0.623              1.886              2.497
 Vibration     4          0.630              1.863              2.299
 Vibration     5          0.638              1.838              2.120
 Vibration     6          0.667              1.751              1.681
 Vibration     7          0.700              1.652              1.355
 Vibration     8          0.714              1.611              1.250
 Vibration     9          0.718              1.600              1.223
 Vibration    10          0.739              1.543              1.097
 Vibration    11          0.744              1.530              1.072
 Vibration    12          0.810              1.358              0.792
 Vibration    13          0.828              1.315              0.736
 Vibration    14          0.889              1.175              0.579
 Vibration    15          0.980              0.989              0.416

 Optimization completed.
    -- Stationary point found.

 1\1\GINC-NODE310\Freq\RB3LYP\6-31G(d)\C8H18N2\VSC10255\08-Dec-2020\0\\
 #N Geom=AllCheck Guess=TCheck SCRF=Check GenChk RB3LYP/6-31G(d) Freq\\
 CID_154318687_JID_438_neutraal\\0,1\C,1.2285573446,-1.2060807055,-0.48
 4267806\C,2.1183756173,-0.1050915142,0.1210176535\C,1.3759178537,1.151
 1830986,0.6123725178\C,0.4457498058,1.7928623997,-0.4501802423\N,-0.97
 50182688,1.9609938663,-0.1133683701\C,-1.6935160289,0.8350810123,0.491
 0072224\C,-2.0083414345,-0.3466834153,-0.4921118059\C,-1.3352685408,-1
 .6937844435,-0.1177253671\C,0.0994068362,-1.7136490481,0.4440700376\N,

 Normal termination of Gaussian 16 at Tue Dec  8 10:44:24 2020.

 ----------------------------------------------------------------------
 # B3LYP/6-311++G(d,p) empiricaldispersion=gd3bj scf=xqc pop=npa geom=c
 heck
 ----------------------------------------------------------------------

 --------------------------------------
 CID_154318687_JID_438_Energie_neutraal
 --------------------------------------
 Structure from the checkpoint file:  "JID_438.chk"
 Charge =  0 Multiplicity = 1

 SCF Done:  E(RB3LYP) =  -425.334246189     A.U. after   13 cycles
 Normal termination of Gaussian 16 at Tue Dec  8 10:47:39 2020.

 ----------------------------------------------------------------------
 # B3LYP/6-311++G(d,p) empiricaldispersion=gd3bj scf=xqc pop=npa geom=c
 heck
 ----------------------------------------------------------------------

 ------------------------------------
 CID_154318687_JID_438_Energie_kation
 ------------------------------------
 Structure from the checkpoint file:  "JID_438.chk"
 Charge =  1 Multiplicity = 2

 SCF Done:  E(UB3LYP) =  -425.033508729     A.U. after   21 cycles
 Normal termination of Gaussian 16 at Tue Dec  8 10:55:00 2020.
 Gaussian 16:  ES64L-G16RevA.03 25-Dec-2016

 -----------------------------------
 CID_154318687_JID_438_Energie_anion
 -----------------------------------
 Structure from the checkpoint file:  "JID_438.chk"
 Charge = -1 Multiplicity = 2

                         Standard orientation:
 ---------------------------------------------------------------------
 Center     Atomic      Atomic             Coordinates (Angstroms)
 Number     Number       Type             X           Y           Z
 ---------------------------------------------------------------------
      1          6           0        1.254437    1.409929    0.567951
      2          6           0        2.348081    0.390098    0.201603
      3          6           0        1.843924   -0.934194   -0.400872
      4          6           0        0.765284   -1.648747    0.454659
      5          7           0       -0.527786   -1.950836   -0.175425
      6          6           0       -1.194102   -0.902151   -0.953546
      7          6           0       -1.818064    0.254971   -0.096841
      8          6           0       -1.201147    1.654828   -0.357005
      9          6           0        0.313875    1.801808   -0.596605
     10          7           0       -1.920129   -0.028277    1.344300
     11          1           0        1.748008    2.306758    0.961417
     12          1           0        0.671806    1.022636    1.409456
     13          1           0        3.048041    0.853262   -0.507161
     14          1           0        2.932195    0.172102    1.106598
     15          1           0        2.705102   -1.597799   -0.545774
     16          1           0        1.447529   -0.750845   -1.405184
     17          1           0        0.563924   -1.057235    1.351737
     18          1           0        1.152000   -2.606494    0.819372
     19          1           0       -0.415220   -2.760784   -0.779472
     20          1           0       -2.009246   -1.412079   -1.478702
     21          1           0       -0.557293   -0.470786   -1.742724
     22          1           0       -2.856396    0.340708   -0.443475
     23          1           0       -1.506031    2.295577    0.480797
     24          1           0       -1.697005    2.069418   -1.244319
     25          1           0        0.490192    2.851884   -0.860073
     26          1           0        0.589693    1.238847   -1.495406
     27          1           0       -1.986645   -1.039835    1.461378
     28          1           0       -1.058978    0.239207    1.813352
 ---------------------------------------------------------------------

 SCF Done:  E(UB3LYP) =  -425.318200458     A.U. after   27 cycles

 The electronic state is 2-A.
 Alpha  occ. eigenvalues --  -14.18836 -14.17866 -10.08822 -10.07873 -10.07828
 Alpha  occ. eigenvalues --  -10.05964 -10.05921 -10.05861 -10.05762 -10.05177
 Alpha  occ. eigenvalues --   -0.80074  -0.76411  -0.69791  -0.66176  -0.60272
 Alpha  occ. eigenvalues --   -0.59807  -0.51980  -0.51464  -0.45156  -0.44706
 Alpha  occ. eigenvalues --   -0.39567  -0.37851  -0.36573  -0.35246  -0.33752
 Alpha  occ. eigenvalues --   -0.32365  -0.31981  -0.30225  -0.27946  -0.27532
 Alpha  occ. eigenvalues --   -0.27016  -0.25447  -0.24640  -0.23454  -0.21478
 Alpha  occ. eigenvalues --   -0.21011  -0.20636  -0.20181  -0.13263  -0.11649
 Alpha  occ. eigenvalues --    0.04780
 Alpha virt. eigenvalues --    0.07003   0.07259   0.08393   0.09348   0.09412
 Alpha virt. eigenvalues --    0.10600   0.10754   0.10840   0.12380   0.12480
 Alpha virt. eigenvalues --    0.13174   0.13531   0.13993   0.14977   0.15428

  Beta  occ. eigenvalues --  -14.18814 -14.17858 -10.08816 -10.07854 -10.07803
  Beta  occ. eigenvalues --  -10.05951 -10.05910 -10.05843 -10.05742 -10.05151
  Beta  occ. eigenvalues --   -0.80035  -0.76382  -0.69753  -0.66137  -0.60228
  Beta  occ. eigenvalues --   -0.59758  -0.51925  -0.51405  -0.45088  -0.44665
  Beta  occ. eigenvalues --   -0.39491  -0.37811  -0.36547  -0.35197  -0.33710
  Beta  occ. eigenvalues --   -0.32327  -0.31954  -0.30188  -0.27914  -0.27496
  Beta  occ. eigenvalues --   -0.26971  -0.25401  -0.24608  -0.23411  -0.21438
  Beta  occ. eigenvalues --   -0.20968  -0.20599  -0.20146  -0.13243  -0.11622
  Beta virt. eigenvalues --    0.07189   0.08067   0.08272   0.08733   0.10130
  Beta virt. eigenvalues --    0.10199   0.10839   0.11057   0.11133   0.12971
  Beta virt. eigenvalues --    0.13194   0.13540   0.13879   0.14256   0.15183

 Mulliken charges and spin densities:
               1          2
     1  C    0.169139  -0.192602
     2  C   -0.302760  -0.276670
     3  C    0.631492  -0.601777
     4  C    0.449895  -1.004307
     5  N   -0.450281   0.266586
     6  C    0.764628  -1.364392
     7  C    0.564102  -0.190411
     8  C   -0.431469  -0.369645
     9  C   -0.154149  -0.011829
    10  N   -0.338456  -0.040023
    11  H   -0.228010   0.420635
    12  H    0.107915  -0.045459
    13  H   -0.164572   0.303484
    14  H   -0.229515   0.368128
    15  H   -0.393972   0.584374
    16  H   -0.123067   0.242673
    17  H    0.222807  -0.108942
    18  H   -0.480957   0.652912
    19  H   -0.216042   0.479638
    20  H   -0.371752   0.540678
    21  H   -0.116741   0.221251
    22  H    0.040987   0.165577
    23  H    0.117726   0.037673
    24  H   -0.213578   0.350357
    25  H   -0.348669   0.527336
    26  H    0.172420  -0.060860
    27  H    0.200478   0.036472
    28  H    0.122400   0.069143
 Sum of Mulliken charges =  -1.00000   1.00000

 Dipole moment (field-independent basis, Debye):
    X=             -1.3363    Y=              2.1330    Z=              1.9205  Tot=              3.1660
 Quadrupole moment (field-independent basis, Debye-Ang):
   XX=           -116.8746   YY=           -119.8446   ZZ=            -95.6562
   XY=              1.0928   XZ=             -0.4682   YZ=             -2.4740

 Summary of Natural Population Analysis:

                                       Natural Population
                Natural  -----------------------------------------------
    Atom  No    Charge         Core      Valence    Rydberg      Total
 -----------------------------------------------------------------------
      C    1   -0.19279      0.99962     2.18420    0.00897     3.19279
      C    2   -0.18334      0.99962     2.17562    0.00809     3.18334
      C    3   -0.20556      0.99962     2.19687    0.00907     3.20556
      C    4   -0.09047      0.99961     2.07808    0.01279     3.09047
      N    5   -0.34582      0.99974     2.83135    0.01473     3.84582
      C    6   -0.09618      0.99959     2.08440    0.01219     3.09618
      C    7   -0.01946      0.99961     2.00703    0.01283     3.01946
      C    8   -0.18892      0.99960     2.18035    0.00896     3.18892
      C    9   -0.19622      0.99962     2.18782    0.00878     3.19622
      N   10   -0.42249      0.99977     2.91420    0.00851     3.92249
      H   11    0.09993      0.00000     0.39893    0.00114     0.40007
      H   12    0.08604      0.00000     0.41218    0.00178     0.41396
      H   13    0.09607      0.00000     0.40272    0.00121     0.40393
      H   14    0.09388      0.00000     0.40499    0.00113     0.40612
      H   15    0.10226      0.00000     0.39559    0.00215     0.39774
      H   16    0.09673      0.00000     0.40156    0.00171     0.40327
      H   17    0.08278      0.00000     0.41520    0.00202     0.41722
      H   18    0.09793      0.00000     0.40052    0.00156     0.40207
      H   19    0.17898      0.00000     0.31665    0.00437     0.32102
      H   20    0.09706      0.00000     0.40100    0.00194     0.40294
      H   21    0.08142      0.00000     0.41651    0.00207     0.41858
      H   22    0.08725      0.00000     0.41089    0.00186     0.41275
      H   23    0.09811      0.00000     0.40074    0.00115     0.40189
      H   24    0.09897      0.00000     0.39987    0.00116     0.40103
      H   25    0.09996      0.00000     0.39870    0.00134     0.40004
      H   26    0.09500      0.00000     0.40309    0.00191     0.40500
      H   27    0.18119      0.00000     0.31649    0.00232     0.31881
      H   28    0.16768      0.00000     0.32994    0.00238     0.33232
 =======================================================================
   * Total *    0.00000      9.99641    29.86548    0.13811    40.00000

 Normal termination of Gaussian 16 at Tue Dec  8 11:04:06 2020.
