 Gaussian 16, Revision A.03,

 -----------------------------------------------------------
 # opt freq B3LYP/6-31G(d) empiricaldispersion=gd3bj scf=xqc
 -----------------------------------------------------------

 -------------------------------
 CID_136986781_JID_7707_neutraal
 -------------------------------
 Symbolic Z-matrix:
 Charge =  0 Multiplicity = 1

 SCF Done:  E(RB3LYP) =  -835.359076583     A.U. after   14 cycles
 SCF Done:  E(RB3LYP) =  -835.366249692     A.U. after   12 cycles
 SCF Done:  E(RB3LYP) =  -835.366944311     A.U. after   11 cycles
 SCF Done:  E(RB3LYP) =  -835.367100223     A.U. after   11 cycles
 SCF Done:  E(RB3LYP) =  -835.367155063     A.U. after   10 cycles
 SCF Done:  E(RB3LYP) =  -835.367182705     A.U. after   10 cycles
 SCF Done:  E(RB3LYP) =  -835.367189797     A.U. after    9 cycles
 SCF Done:  E(RB3LYP) =  -835.367191827     A.U. after    8 cycles
 SCF Done:  E(RB3LYP) =  -835.367192454     A.U. after    8 cycles
 SCF Done:  E(RB3LYP) =  -835.367192889     A.U. after    8 cycles
 SCF Done:  E(RB3LYP) =  -835.367790746     A.U. after   10 cycles
 SCF Done:  E(RB3LYP) =  -835.367819308     A.U. after   10 cycles
 SCF Done:  E(RB3LYP) =  -835.367819346     A.U. after    7 cycles
 SCF Done:  E(RB3LYP) =  -835.367819376     A.U. after    7 cycles
 SCF Done:  E(RB3LYP) =  -835.367819461     A.U. after    7 cycles
 Optimization completed.
    -- Stationary point found.
 Normal termination of Gaussian 16 at Mon Dec 14 19:00:07 2020.

 --------------------------------------------------------------------
 #N Geom=AllCheck Guess=TCheck SCRF=Check GenChk RB3LYP/6-31G(d) Freq
 --------------------------------------------------------------------

 Structure from the checkpoint file:  "JID_7707.chk"
 -------------------------------
 CID_136986781_JID_7707_neutraal
 -------------------------------
 Charge =  0 Multiplicity = 1

 SCF Done:  E(RB3LYP) =  -835.367819461     A.U. after    1 cycles

  Exact polarizability: 201.323 -10.147 152.762  14.117  -6.814  88.589
 Approx polarizability: 261.958 -15.454 252.561  27.276 -15.156 133.538

                      1                      2                      3
                      A                      A                      A
 Frequencies --     18.1891                25.4698                48.5271
 Red. masses --      3.7140                 5.0545                 4.0024
 Frc consts  --      0.0007                 0.0019                 0.0056
 IR Inten    --      0.1130                 0.2300                 0.3177

                      4                      5                      6
                      A                      A                      A
 Frequencies --     57.9642                80.5421                84.8080
 Red. masses --      2.9438                 1.4949                 1.8280
 Frc consts  --      0.0058                 0.0057                 0.0077
 IR Inten    --      0.4361                 1.1047                 0.1429

                      7                      8                      9
                      A                      A                      A
 Frequencies --    109.9070               119.7125               147.1530
 Red. masses --      3.7744                 4.8648                 2.7922
 Frc consts  --      0.0269                 0.0411                 0.0356
 IR Inten    --      2.3834                 1.6535                 1.4411

                     10                     11                     12
                      A                      A                      A
 Frequencies --    195.3888               208.8358               229.0317
 Red. masses --      4.9025                 4.0389                 2.7757
 Frc consts  --      0.1103                 0.1038                 0.0858
 IR Inten    --      4.0658                 0.9394                 1.0810

                     13                     14                     15
                      A                      A                      A
 Frequencies --    243.8172               281.6702               291.2274
 Red. masses --      1.2173                 6.3362                 3.8244
 Frc consts  --      0.0426                 0.2962                 0.1911
 IR Inten    --      0.3108                 8.0264                 3.7024

                     16                     17                     18
                      A                      A                      A
 Frequencies --    301.7133               332.4074               353.3724
 Red. masses --      3.3154                 5.8758                 1.3619
 Frc consts  --      0.1778                 0.3825                 0.1002
 IR Inten    --      6.2131                 4.0736                80.8132

                     19                     20                     21
                      A                      A                      A
 Frequencies --    376.1325               376.5839               412.5233
 Red. masses --      3.5205                 2.8502                 2.9826
 Frc consts  --      0.2935                 0.2381                 0.2990
 IR Inten    --     28.3419                27.4032                21.3167

                     22                     23                     24
                      A                      A                      A
 Frequencies --    420.0769               456.2177               498.0984
 Red. masses --      1.2190                 2.5074                 3.8747
 Frc consts  --      0.1267                 0.3075                 0.5664
 IR Inten    --     41.1603                 6.5176                 5.1056

                     25                     26                     27
                      A                      A                      A
 Frequencies --    554.1327               571.3681               599.7244
 Red. masses --      5.0767                 3.6087                 5.6236
 Frc consts  --      0.9185                 0.6941                 1.1917
 IR Inten    --     13.3590                22.4325                21.3786

                     28                     29                     30
                      A                      A                      A
 Frequencies --    616.4405               659.7012               704.6545
 Red. masses --      2.7166                 3.8430                 2.6255
 Frc consts  --      0.6082                 0.9854                 0.7681
 IR Inten    --     42.7261                12.6928                87.4214

                     31                     32                     33
                      A                      A                      A
 Frequencies --    749.6021               759.4238               801.6988
 Red. masses --      3.4236                 5.0112                 1.3470
 Frc consts  --      1.1334                 1.7028                 0.5101
 IR Inten    --     90.0296                71.8354                 2.4197

                     34                     35                     36
                      A                      A                      A
 Frequencies --    811.1935               815.4634               877.0448
 Red. masses --      5.6998                 1.1223                 2.2449
 Frc consts  --      2.2098                 0.4397                 1.0174
 IR Inten    --     12.1394                 5.8008                 7.7337

                     37                     38                     39
                      A                      A                      A
 Frequencies --    879.7808               927.5494               971.1309
 Red. masses --      1.3602                 5.3016                 5.2662
 Frc consts  --      0.6203                 2.6874                 2.9262
 IR Inten    --     19.8272                 8.5300               128.2618

                     40                     41                     42
                      A                      A                      A
 Frequencies --    989.3114              1009.7524              1015.8205
 Red. masses --      5.4844                 3.0713                 5.7252
 Frc consts  --      3.1626                 1.8450                 3.4808
 IR Inten    --     48.3785                13.5028                 2.2596

                     43                     44                     45
                      A                      A                      A
 Frequencies --   1049.5863              1059.3649              1074.4039
 Red. masses --      2.2014                 3.3054                 1.6038
 Frc consts  --      1.4289                 2.1856                 1.0907
 IR Inten    --     25.9759                 6.8225                 5.8472

                     46                     47                     48
                      A                      A                      A
 Frequencies --   1098.4630              1109.5738              1131.4829
 Red. masses --      3.1916                 2.9946                 2.1605
 Frc consts  --      2.2690                 2.1722                 1.6297
 IR Inten    --     88.3536                37.7404                71.5259

                     49                     50                     51
                      A                      A                      A
 Frequencies --   1148.9238              1183.0433              1189.5029
 Red. masses --      1.7778                 1.9023                 1.9008
 Frc consts  --      1.3827                 1.5687                 1.5846
 IR Inten    --     74.6042                35.1083                63.3100

                     52                     53                     54
                      A                      A                      A
 Frequencies --   1224.0419              1289.0349              1300.3612
 Red. masses --      1.8435                 5.0109                 1.3999
 Frc consts  --      1.6273                 4.9056                 1.3947
 IR Inten    --      9.4606                14.4956                10.4661

                     55                     56                     57
                      A                      A                      A
 Frequencies --   1329.4689              1335.4419              1358.9122
 Red. masses --      2.0562                 1.2783                 1.4030
 Frc consts  --      2.1412                 1.3431                 1.5265
 IR Inten    --     20.0772                11.2591               114.0518

                     58                     59                     60
                      A                      A                      A
 Frequencies --   1365.8651              1374.7128              1415.4019
 Red. masses --      1.1240                 1.6986                 1.3651
 Frc consts  --      1.2355                 1.8914                 1.6113
 IR Inten    --      1.7992                47.5024                98.9034

                     61                     62                     63
                      A                      A                      A
 Frequencies --   1431.7265              1433.1104              1444.7342
 Red. masses --      1.3945                 1.5339                 1.3355
 Frc consts  --      1.6842                 1.8561                 1.6424
 IR Inten    --     87.5117               109.8990                31.0250

                     64                     65                     66
                      A                      A                      A
 Frequencies --   1456.1366              1469.3681              1498.6024
 Red. masses --      1.8721                 2.3178                 2.0431
 Frc consts  --      2.3387                 2.9484                 2.7035
 IR Inten    --      9.1948                55.7596                93.3897

                     67                     68                     69
                      A                      A                      A
 Frequencies --   1504.7571              1514.9533              1519.7438
 Red. masses --      1.0461                 1.0866                 1.2321
 Frc consts  --      1.3956                 1.4694                 1.6766
 IR Inten    --      6.3662                13.3137                 4.0094

                     70                     71                     72
                      A                      A                      A
 Frequencies --   1520.6662              1526.5757              1532.8225
 Red. masses --      1.2966                 1.2032                 1.0710
 Frc consts  --      1.7665                 1.6520                 1.4826
 IR Inten    --     17.5468                43.8200                 4.5899

                     73                     74                     75
                      A                      A                      A
 Frequencies --   1543.1487              1601.7765              1634.5012
 Red. masses --      1.1071                 8.0845                 6.4285
 Frc consts  --      1.5534                12.2210                10.1188
 IR Inten    --      7.8725               316.4573               378.4173

                     76                     77                     78
                      A                      A                      A
 Frequencies --   1654.7081              1721.3995              3036.8985
 Red. masses --      1.2525                 4.6968                 1.0630
 Frc consts  --      2.0206                 8.2000                 5.7763
 IR Inten    --     77.2602                53.7378                34.9483

                     79                     80                     81
                      A                      A                      A
 Frequencies --   3049.4373              3058.7263              3059.6012
 Red. masses --      1.0389                 1.0365                 1.0578
 Frc consts  --      5.6921                 5.7132                 5.8340
 IR Inten    --     10.6685                10.6013                22.8526

                     82                     83                     84
                      A                      A                      A
 Frequencies --   3094.0176              3104.2051              3110.9557
 Red. masses --      1.1012                 1.0577                 1.1042
 Frc consts  --      6.2110                 6.0047                 6.2960
 IR Inten    --     21.1899                32.9659                30.2778

                     85                     86                     87
                      A                      A                      A
 Frequencies --   3116.7634              3118.0437              3133.5770
 Red. masses --      1.1009                 1.1005                 1.1040
 Frc consts  --      6.3007                 6.3041                 6.3871
 IR Inten    --     42.7219                 9.5006                52.7980

                     88                     89                     90
                      A                      A                      A
 Frequencies --   3147.1298              3161.0893              3238.5714
 Red. masses --      1.1030                 1.1108                 1.0920
 Frc consts  --      6.4366                 6.5395                 6.7482
 IR Inten    --     16.5839                31.0302                 1.3821

                     91                     92                     93
                      A                      A                      A
 Frequencies --   3553.1145              3656.0352              3778.2010
 Red. masses --      1.0468                 1.0989                 1.0679
 Frc consts  --      7.7865                 8.6542                 8.9813
 IR Inten    --     24.1775                23.8218               112.1354

 - Thermochemistry -
 -------------------
 Temperature   298.150 Kelvin.  Pressure   1.00000 Atm.
 Atom     1 has atomic number  6 and mass  12.00000

 Molecular mass:   240.12224 amu.
 Principal axes and moments of inertia in atomic units:
                           1         2         3
     Eigenvalues --  1894.852528550.581829802.53353
           X            0.99997  -0.00459  -0.00581
           Y            0.00458   0.99999  -0.00083
           Z            0.00582   0.00081   0.99998
 This molecule is an asymmetric top.
 Rotational symmetry number  1.
 Warning -- assumption of classical behavior for rotation
           may cause significant error
 Rotational temperatures (Kelvin)      0.04571     0.01013     0.00884
 Rotational constants (GHZ):           0.95244     0.21107     0.18411
 Zero-point vibrational energy     714444.8 (Joules/Mol)
                                  170.75641 (Kcal/Mol)
 Warning -- explicit consideration of  28 degrees of freedom as
           vibrations may cause significant error
 Vibrational temperatures:     26.17    36.65    69.82    83.40   115.88
          (Kelvin)            122.02   158.13   172.24   211.72   281.12
                              300.47   329.53   350.80   405.26   419.01
                              434.10   478.26   508.42   541.17   541.82
                              593.53   604.40   656.40   716.65   797.27
                              822.07   862.87   886.92   949.16  1013.84
                             1078.51  1092.64  1153.47  1167.13  1173.27
                             1261.87  1265.81  1334.54  1397.24  1423.40
                             1452.81  1461.54  1510.12  1524.19  1545.83
                             1580.44  1596.43  1627.95  1653.05  1702.14
                             1711.43  1761.12  1854.63  1870.93  1912.81
                             1921.40  1955.17  1965.18  1977.91  2036.45
                             2059.94  2061.93  2078.65  2095.06  2114.09
                             2156.15  2165.01  2179.68  2186.57  2187.90
                             2196.40  2205.39  2220.25  2304.60  2351.68
                             2380.76  2476.71  4369.42  4387.46  4400.82
                             4402.08  4451.60  4466.26  4475.97  4484.33
                             4486.17  4508.52  4528.02  4548.10  4659.58
                             5112.14  5260.22  5435.99

 Zero-point correction=                           0.272118 (Hartree/Particle)
 Thermal correction to Energy=                    0.289917
 Thermal correction to Enthalpy=                  0.290861
 Thermal correction to Gibbs Free Energy=         0.224184
 Sum of electronic and zero-point Energies=           -835.095702
 Sum of electronic and thermal Energies=              -835.077902
 Sum of electronic and thermal Enthalpies=            -835.076958
 Sum of electronic and thermal Free Energies=         -835.143635

                     E (Thermal)             CV                S
                      KCal/Mol        Cal/Mol-Kelvin    Cal/Mol-Kelvin
 Total                  181.926             64.806            140.334
 Electronic               0.000              0.000              0.000
 Translational            0.889              2.981             42.329
 Rotational               0.889              2.981             33.429
 Vibrational            180.148             58.844             64.576
 Vibration     1          0.593              1.986              6.823
 Vibration     2          0.593              1.985              6.154
 Vibration     3          0.595              1.978              4.877
 Vibration     4          0.596              1.974              4.525
 Vibration     5          0.600              1.962              3.878
 Vibration     6          0.601              1.960              3.776
 Vibration     7          0.606              1.941              3.271
 Vibration     8          0.609              1.933              3.105
 Vibration     9          0.617              1.906              2.709
 Vibration    10          0.636              1.846              2.176
 Vibration    11          0.642              1.827              2.054
 Vibration    12          0.652              1.797              1.887
 Vibration    13          0.659              1.773              1.775
 Vibration    14          0.681              1.708              1.524
 Vibration    15          0.687              1.690              1.467
 Vibration    16          0.694              1.670              1.407
 Vibration    17          0.714              1.611              1.248
 Vibration    18          0.730              1.568              1.151
 Vibration    19          0.747              1.521              1.055
 Vibration    20          0.747              1.520              1.053
 Vibration    21          0.776              1.443              0.918
 Vibration    22          0.783              1.427              0.892
 Vibration    23          0.814              1.347              0.777
 Vibration    24          0.854              1.254              0.663
 Vibration    25          0.910              1.131              0.536
 Vibration    26          0.928              1.093              0.502
 Vibration    27          0.958              1.032              0.450
 Vibration    28          0.976              0.997              0.422

 Optimization completed.
    -- Stationary point found.
 Normal termination of Gaussian 16 at Mon Dec 14 19:10:34 2020.

 ----------------------------------------------------------------------
 # B3LYP/6-311++G(d,p) empiricaldispersion=gd3bj scf=xqc pop=npa geom=c
 heck
 ----------------------------------------------------------------------

 ---------------------------------------
 CID_136986781_JID_7707_Energie_neutraal
 ---------------------------------------
 Structure from the checkpoint file:  "JID_7707.chk"
 Charge =  0 Multiplicity = 1

 SCF Done:  E(RB3LYP) =  -835.617281016     A.U. after   16 cycles
 Normal termination of Gaussian 16 at Mon Dec 14 19:16:11 2020.

 ----------------------------------------------------------------------
 # B3LYP/6-311++G(d,p) empiricaldispersion=gd3bj scf=xqc pop=npa geom=c
 heck
 ----------------------------------------------------------------------

 -------------------------------------
 CID_136986781_JID_7707_Energie_kation
 -------------------------------------
 Structure from the checkpoint file:  "JID_7707.chk"
 Charge =  1 Multiplicity = 2

 SCF Done:  E(UB3LYP) =  -835.316400752     A.U. after   29 cycles
 Normal termination of Gaussian 16 at Mon Dec 14 19:30:46 2020.
 Gaussian 16:  ES64L-G16RevA.03 25-Dec-2016

 ----------------------------------------------------------------------
 # B3LYP/6-311++G(d,p) empiricaldispersion=gd3bj scf=xqc pop=npa geom=c
 heck
 ----------------------------------------------------------------------

 ------------------------------------
 CID_136986781_JID_7707_Energie_anion
 ------------------------------------
 Structure from the checkpoint file:  "JID_7707.chk"
 Charge = -1 Multiplicity = 2

                         Standard orientation:
 ---------------------------------------------------------------------
 Center     Atomic      Atomic             Coordinates (Angstroms)
 Number     Number       Type             X           Y           Z
 ---------------------------------------------------------------------
      1          6           0       -4.494426    1.103995    1.329481
      2          6           0       -4.404898    0.342572    0.010635
      3          8           0       -4.238703   -1.062017    0.210552
      4          6           0       -2.893929   -1.446420    0.440510
      5          6           0       -2.164853   -1.662502   -0.889852
      6          8           0       -0.747833   -1.799112   -0.689278
      7          6           0       -0.033952   -0.676879   -0.498548
      8          7           0       -0.663308    0.503196   -0.534932
      9          6           0        0.093352    1.593050   -0.330240
     10          6           0        1.464011    1.487141   -0.105116
     11          6           0        2.013698    0.196046   -0.102379
     12          7           0        1.268979   -0.894970   -0.302437
     13          6           0        3.469863    0.010582    0.122993
     14          7           0        3.859498   -1.095146    0.663896
     15          8           0        5.269804   -1.075720    0.804308
     16          7           0        4.301889    1.080518   -0.171922
     17          6           0       -0.622275    2.914958   -0.348090
     18          1           0       -5.311365    0.711343    1.943216
     19          1           0       -4.677798    2.169253    1.144222
     20          1           0       -3.564351    1.019197    1.902468
     21          1           0       -5.336444    0.450700   -0.554817
     22          1           0       -3.587144    0.744389   -0.603211
     23          1           0       -2.354890   -0.697678    1.033200
     24          1           0       -2.918201   -2.378024    1.013990
     25          1           0       -2.473655   -2.599600   -1.356514
     26          1           0       -2.366489   -0.834547   -1.572439
     27          1           0        2.073505    2.358730    0.098021
     28          1           0        5.441859   -1.944922    1.195345
     29          1           0        4.056690    1.593631   -1.009543
     30          1           0        5.283591    0.833379   -0.128944
     31          1           0       -1.421591    2.918585    0.401193
     32          1           0        0.057267    3.746985   -0.146019
     33          1           0       -1.096075    3.072937   -1.323417
 ---------------------------------------------------------------------

 SCF Done:  E(UB3LYP) =  -835.626395122     A.U. after   33 cycles
 SCF Done:  E(UB3LYP) =  -835.626395122     a.u. after    1 cycles

 The electronic state is 2-A.
 Alpha  occ. eigenvalues --  -19.02441 -19.02238 -19.01943 -14.18941 -14.18242
 Alpha  occ. eigenvalues --  -14.13609 -14.12705 -10.12984 -10.11928 -10.10581
 Alpha  occ. eigenvalues --  -10.10320 -10.07794 -10.07188 -10.05543 -10.04206
 Alpha  occ. eigenvalues --  -10.03983 -10.01714  -0.94950  -0.93862  -0.93405
 Alpha  occ. eigenvalues --   -0.81234  -0.79021  -0.73080  -0.68216  -0.67123
 Alpha  occ. eigenvalues --   -0.64374  -0.62126  -0.58404  -0.55047  -0.50906
 Alpha  occ. eigenvalues --   -0.49873  -0.46597  -0.43236  -0.40761  -0.39988
 Alpha  occ. eigenvalues --   -0.39373  -0.38768  -0.37490  -0.35670  -0.34574
 Alpha  occ. eigenvalues --   -0.32867  -0.32320  -0.31486  -0.31210  -0.30363
 Alpha  occ. eigenvalues --   -0.29573  -0.29099  -0.28037  -0.27161  -0.26746
 Alpha  occ. eigenvalues --   -0.26647  -0.25619  -0.23854  -0.21856  -0.21520
 Alpha  occ. eigenvalues --   -0.20392  -0.18972  -0.15938  -0.15495  -0.15244
 Alpha  occ. eigenvalues --   -0.13755  -0.10251  -0.09231  -0.08713   0.05009
 Alpha virt. eigenvalues --    0.07015   0.08408   0.08934   0.09012   0.09707
 Alpha virt. eigenvalues --    0.10189   0.11144   0.11538   0.11748   0.12354
 Alpha virt. eigenvalues --    0.12899   0.13610   0.14249   0.14596   0.14906

  Beta  occ. eigenvalues --  -19.02441 -19.02170 -19.01949 -14.18905 -14.17848
  Beta  occ. eigenvalues --  -14.13241 -14.12383 -10.13033 -10.11928 -10.10574
  Beta  occ. eigenvalues --  -10.10318 -10.07808 -10.07184 -10.05240 -10.04235
  Beta  occ. eigenvalues --  -10.03502 -10.01826  -0.94927  -0.93584  -0.93402
  Beta  occ. eigenvalues --   -0.80713  -0.78816  -0.72337  -0.67821  -0.67069
  Beta  occ. eigenvalues --   -0.64073  -0.61974  -0.58128  -0.55016  -0.50360
  Beta  occ. eigenvalues --   -0.49763  -0.46507  -0.43022  -0.40668  -0.39929
  Beta  occ. eigenvalues --   -0.39293  -0.38619  -0.37359  -0.35442  -0.34508
  Beta  occ. eigenvalues --   -0.32755  -0.32205  -0.31302  -0.30996  -0.30086
  Beta  occ. eigenvalues --   -0.29408  -0.29063  -0.27391  -0.26955  -0.26389
  Beta  occ. eigenvalues --   -0.26220  -0.25511  -0.23576  -0.21669  -0.21249
  Beta  occ. eigenvalues --   -0.20000  -0.18510  -0.15755  -0.15007  -0.13314
  Beta  occ. eigenvalues --   -0.13132  -0.09254  -0.08700  -0.07517
  Beta virt. eigenvalues --    0.06944   0.08287   0.08862   0.08919   0.09646
  Beta virt. eigenvalues --    0.10149   0.11057   0.11440   0.11662   0.11875
  Beta virt. eigenvalues --    0.12312   0.12953   0.13780   0.14407   0.14566

 Mulliken charges and spin densities:
               1          2
     1  C   -0.356685  -0.064338
     2  C   -0.235961   0.022540
     3  O   -0.098091   0.001062
     4  C   -0.270749  -0.014540
     5  C   -0.161421  -0.009440
     6  O   -0.030005   0.000080
     7  C    0.070950  -0.003173
     8  N   -0.063084   0.202229
     9  C   -0.043449   0.095805
    10  C   -0.279420   0.025274
    11  C   -0.182478   0.164528
    12  N   -0.167152   0.151568
    13  C   -0.242324   0.092009
    14  N   -0.466506   0.184455
    15  O   -0.111641   0.009987
    16  N   -0.358756  -0.013369
    17  C   -0.407538  -0.099997
    18  H    0.125333   0.014283
    19  H    0.089015   0.019477
    20  H    0.128968   0.017333
    21  H    0.138331  -0.000020
    22  H    0.141225  -0.002396
    23  H    0.171517   0.006890
    24  H    0.145903   0.003581
    25  H    0.165242  -0.001009
    26  H    0.177045   0.013392
    27  H    0.093826   0.058492
    28  H    0.246337   0.014424
    29  H    0.211642  -0.005456
    30  H    0.237984   0.046365
    31  H    0.107244   0.026766
    32  H    0.133078  -0.006537
    33  H    0.091620   0.049732
 Sum of Mulliken charges =  -1.00000   1.00000

 Dipole moment (field-independent basis, Debye):
    X=             -4.3635    Y=              2.5242    Z=             -0.5675  Tot=              5.0728
 Quadrupole moment (field-independent basis, Debye-Ang):
   XX=           -148.3388   YY=           -117.5217   ZZ=           -109.4096
   XY=              0.4354   XZ=             -4.1521   YZ=             -2.9339

 Summary of Natural Population Analysis:

                                       Natural Population
                Natural  -----------------------------------------------
    Atom  No    Charge         Core      Valence    Rydberg      Total
 -----------------------------------------------------------------------
      C    1   -0.30041      0.99967     2.29543    0.00530     3.30041
      C    2   -0.01558      0.99960     2.00541    0.01057     3.01558
      O    3   -0.30784      0.99989     3.29697    0.01098     4.30784
      C    4   -0.02223      0.99959     2.01148    0.01116     3.02223
      C    5   -0.02345      0.99957     2.01261    0.01126     3.02345
      O    6   -0.27811      0.99985     3.26752    0.01074     4.27811
      C    7    0.35202      0.99954     1.62882    0.01961     2.64798
      N    8   -0.26771      0.99962     2.75548    0.01260     3.76771
      C    9    0.16725      0.99957     1.82119    0.01199     2.83275
      C   10   -0.18641      0.99948     2.17984    0.00709     3.18641
      C   11    0.17948      0.99951     1.80783    0.01319     2.82052
      N   12   -0.20771      0.99963     2.69946    0.00863     3.70771
      C   13    0.16722      0.99962     1.81492    0.01824     2.83278
      N   14   -0.05292      0.99962     2.53781    0.01548     3.55292
      O   15   -0.31370      0.99990     3.30635    0.00745     4.31370
      N   16   -0.41210      0.99971     2.90203    0.01036     3.91210
      C   17   -0.29730      0.99964     2.29281    0.00485     3.29730
      H   18    0.09445      0.00000     0.40398    0.00157     0.40555
      H   19    0.09604      0.00000     0.40232    0.00164     0.40396
      H   20    0.10172      0.00000     0.39706    0.00122     0.39828
      H   21    0.08009      0.00000     0.41880    0.00111     0.41991
      H   22    0.09387      0.00000     0.40475    0.00138     0.40613
      H   23    0.09229      0.00000     0.40646    0.00125     0.40771
      H   24    0.08438      0.00000     0.41451    0.00111     0.41562
      H   25    0.08379      0.00000     0.41508    0.00113     0.41621
      H   26    0.09469      0.00000     0.40409    0.00123     0.40531
      H   27    0.09920      0.00000     0.39921    0.00159     0.40080
      H   28    0.22906      0.00000     0.26742    0.00353     0.27094
      H   29    0.18278      0.00000     0.31509    0.00213     0.31722
      H   30    0.19057      0.00000     0.30729    0.00214     0.30943
      H   31    0.10152      0.00000     0.39739    0.00108     0.39848
      H   32    0.09329      0.00000     0.40592    0.00079     0.40671
      H   33    0.10175      0.00000     0.39716    0.00109     0.39825
 =======================================================================
   * Total *    0.00000     16.99400    46.79248    0.21352    64.00000

 Normal termination of Gaussian 16 at Mon Dec 14 19:46:54 2020.
