 Gaussian 16, Revision A.03,

 -----------------------------------------------------------
 # opt freq B3LYP/6-31G(d) empiricaldispersion=gd3bj scf=xqc
 -----------------------------------------------------------

 ------------------------------
 CID_84127654_JID_6223_neutraal
 ------------------------------
 Symbolic Z-matrix:
 Charge =  0 Multiplicity = 1

 SCF Done:  E(RB3LYP) =  -691.026059603     A.U. after   15 cycles
 SCF Done:  E(RB3LYP) =  -691.030485009     A.U. after   12 cycles
 SCF Done:  E(RB3LYP) =  -691.031102166     A.U. after   13 cycles
 SCF Done:  E(RB3LYP) =  -691.031374104     A.U. after   13 cycles
 SCF Done:  E(RB3LYP) =  -691.031665807     A.U. after   12 cycles
 SCF Done:  E(RB3LYP) =  -691.031774571     A.U. after   11 cycles
 SCF Done:  E(RB3LYP) =  -691.031807384     A.U. after   12 cycles
 SCF Done:  E(RB3LYP) =  -691.031825208     A.U. after   10 cycles
 SCF Done:  E(RB3LYP) =  -691.031834181     A.U. after   10 cycles
 SCF Done:  E(RB3LYP) =  -691.031835878     A.U. after    8 cycles
 SCF Done:  E(RB3LYP) =  -691.031837334     A.U. after    9 cycles
 SCF Done:  E(RB3LYP) =  -691.031837646     A.U. after    7 cycles
 Optimization completed.
    -- Stationary point found.
 Normal termination of Gaussian 16 at Thu Dec 10 21:17:12 2020.

 --------------------------------------------------------------------
 #N Geom=AllCheck Guess=TCheck SCRF=Check GenChk RB3LYP/6-31G(d) Freq
 --------------------------------------------------------------------

 Structure from the checkpoint file:  "JID_6223.chk"
 ------------------------------
 CID_84127654_JID_6223_neutraal
 ------------------------------
 Charge =  0 Multiplicity = 1

 SCF Done:  E(RB3LYP) =  -691.031837646     A.U. after    1 cycles

  Exact polarizability: 195.326  -1.905 148.793 -13.968   1.075  92.818
 Approx polarizability: 256.744  -6.158 242.500 -23.707   7.380 145.764

                      1                      2                      3
                      A                      A                      A
 Frequencies --     28.4353                40.9127                65.4948
 Red. masses --      4.2947                 4.0029                 4.4346
 Frc consts  --      0.0020                 0.0039                 0.0112
 IR Inten    --      0.7399                 2.5425                 3.4175

                      4                      5                      6
                      A                      A                      A
 Frequencies --     81.8778               108.0978               131.1779
 Red. masses --      4.1614                 3.9860                 4.6079
 Frc consts  --      0.0164                 0.0274                 0.0467
 IR Inten    --      0.1618                 1.7064                 0.4156

                      7                      8                      9
                      A                      A                      A
 Frequencies --    165.6951               176.0871               195.6694
 Red. masses --      2.8548                 1.1641                 2.8337
 Frc consts  --      0.0462                 0.0213                 0.0639
 IR Inten    --      3.6877                 1.8245                 0.2948

                     10                     11                     12
                      A                      A                      A
 Frequencies --    293.3466               304.4646               318.4674
 Red. masses --      2.8721                 2.2318                 2.1437
 Frc consts  --      0.1456                 0.1219                 0.1281
 IR Inten    --      1.2946                 6.2412                 2.4564

                     13                     14                     15
                      A                      A                      A
 Frequencies --    339.0627               405.6987               422.1098
 Red. masses --      2.7523                 2.7884                 3.1000
 Frc consts  --      0.1864                 0.2704                 0.3254
 IR Inten    --      2.0848                 2.4368                 6.4086

                     16                     17                     18
                      A                      A                      A
 Frequencies --    455.5960               468.7117               478.2030
 Red. masses --      3.3506                 3.1382                 3.5815
 Frc consts  --      0.4098                 0.4062                 0.4826
 IR Inten    --     10.5633                 8.0173                 8.8395

                     19                     20                     21
                      A                      A                      A
 Frequencies --    508.0356               526.0168               557.0370
 Red. masses --      5.0672                 3.5427                 3.8167
 Frc consts  --      0.7706                 0.5775                 0.6978
 IR Inten    --      3.1501                 5.9344                 0.7831

                     22                     23                     24
                      A                      A                      A
 Frequencies --    598.7031               645.0733               680.3711
 Red. masses --      2.6365                 2.1243                 2.0042
 Frc consts  --      0.5568                 0.5208                 0.5466
 IR Inten    --     28.6997                62.8223                10.4247

                     25                     26                     27
                      A                      A                      A
 Frequencies --    694.9678               740.1219               750.3915
 Red. masses --      4.0861                 3.0908                 1.7362
 Frc consts  --      1.1628                 0.9975                 0.5760
 IR Inten    --     22.5961                 1.2276                11.3848

                     28                     29                     30
                      A                      A                      A
 Frequencies --    764.7821               786.8862               800.7996
 Red. masses --      1.3807                 2.0728                 2.7780
 Frc consts  --      0.4758                 0.7562                 1.0496
 IR Inten    --     27.0786                28.7410                10.6936

                     31                     32                     33
                      A                      A                      A
 Frequencies --    852.0202               877.8361               882.0569
 Red. masses --      2.2901                 2.7877                 1.4762
 Frc consts  --      0.9795                 1.2657                 0.6767
 IR Inten    --     28.3638                23.6579                 0.1947

                     34                     35                     36
                      A                      A                      A
 Frequencies --    907.8209               924.5365               942.5251
 Red. masses --      2.3427                 1.9826                 1.4509
 Frc consts  --      1.1375                 0.9985                 0.7594
 IR Inten    --      9.4045                 3.6350                 1.1381

                     37                     38                     39
                      A                      A                      A
 Frequencies --    971.1477               979.1025              1021.6562
 Red. masses --      2.0871                 1.2499                 2.4804
 Frc consts  --      1.1598                 0.7060                 1.5254
 IR Inten    --      3.5369                 0.0128                 6.7886

                     40                     41                     42
                      A                      A                      A
 Frequencies --   1028.1302              1048.9069              1073.7922
 Red. masses --      1.5859                 1.9383                 1.5368
 Frc consts  --      0.9877                 1.2565                 1.0440
 IR Inten    --      1.7899                10.7377                 6.0528

                     43                     44                     45
                      A                      A                      A
 Frequencies --   1086.1934              1102.1703              1109.1802
 Red. masses --      2.0328                 2.1698                 2.2925
 Frc consts  --      1.4131                 1.5530                 1.6618
 IR Inten    --      0.5977                 8.3498                10.5896

                     46                     47                     48
                      A                      A                      A
 Frequencies --   1133.7216              1168.1470              1171.2535
 Red. masses --      1.8451                 1.9114                 2.4749
 Frc consts  --      1.3973                 1.5367                 2.0004
 IR Inten    --      9.9682                 7.5025                22.5055

                     49                     50                     51
                      A                      A                      A
 Frequencies --   1195.8395              1212.9926              1228.1858
 Red. masses --      1.0967                 2.0497                 1.4138
 Frc consts  --      0.9240                 1.7769                 1.2566
 IR Inten    --      0.0934                 2.0340                 9.5197

                     52                     53                     54
                      A                      A                      A
 Frequencies --   1251.2988              1259.7435              1280.8459
 Red. masses --      1.5154                 2.0753                 1.3946
 Frc consts  --      1.3979                 1.9404                 1.3480
 IR Inten    --      0.1743                 2.2100                 6.1939

                     55                     56                     57
                      A                      A                      A
 Frequencies --   1304.0634              1325.7765              1337.6288
 Red. masses --      1.6910                 1.4936                 1.6710
 Frc consts  --      1.6943                 1.5468                 1.7615
 IR Inten    --     43.2755                46.7016                11.6401

                     58                     59                     60
                      A                      A                      A
 Frequencies --   1342.5142              1357.5687              1367.9943
 Red. masses --      1.4142                 1.5691                 2.0821
 Frc consts  --      1.5017                 1.7038                 2.2957
 IR Inten    --     17.6282                10.7033                 9.4020

                     61                     62                     63
                      A                      A                      A
 Frequencies --   1379.8571              1404.6721              1407.7974
 Red. masses --      1.5926                 1.3262                 1.4480
 Frc consts  --      1.7866                 1.5418                 1.6908
 IR Inten    --     52.3297                11.8799                 2.4962

                     64                     65                     66
                      A                      A                      A
 Frequencies --   1419.0551              1453.5282              1494.0025
 Red. masses --      1.5316                 1.2219                 1.8340
 Frc consts  --      1.8171                 1.5210                 2.4118
 IR Inten    --     13.2506                 1.1646                 0.9276

                     67                     68                     69
                      A                      A                      A
 Frequencies --   1499.8985              1503.9406              1509.7608
 Red. masses --      1.5267                 1.1895                 1.1900
 Frc consts  --      2.0236                 1.5852                 1.5981
 IR Inten    --     14.9429                14.9999                44.3952

                     70                     71                     72
                      A                      A                      A
 Frequencies --   1515.8660              1523.3622              1526.7014
 Red. masses --      1.2102                 1.2163                 1.0766
 Frc consts  --      1.6384                 1.6631                 1.4785
 IR Inten    --     18.5019                 4.4089                14.4119

                     73                     74                     75
                      A                      A                      A
 Frequencies --   1539.1480              1546.6150              1549.2482
 Red. masses --      1.4186                 1.6024                 1.1360
 Frc consts  --      1.9800                 2.2584                 1.6064
 IR Inten    --      8.3385                24.3964                 7.0630

                     76                     77                     78
                      A                      A                      A
 Frequencies --   1640.4361              1668.8211              1774.8395
 Red. masses --      5.7125                 5.7384                 8.0883
 Frc consts  --      9.0573                 9.4159                15.0116
 IR Inten    --      0.9918                 1.3604               315.3881

                     79                     80                     81
                      A                      A                      A
 Frequencies --   2999.4565              3014.2217              3037.7901
 Red. masses --      1.0699                 1.0826                 1.0459
 Frc consts  --      5.6713                 5.7951                 5.6865
 IR Inten    --     59.5772                19.1832                21.4161

                     82                     83                     84
                      A                      A                      A
 Frequencies --   3041.2092              3052.7242              3068.9131
 Red. masses --      1.0633                 1.0670                 1.0884
 Frc consts  --      5.7945                 5.8588                 6.0398
 IR Inten    --     38.7191                18.5920                79.9836

                     85                     86                     87
                      A                      A                      A
 Frequencies --   3077.7295              3092.7464              3101.1046
 Red. masses --      1.0730                 1.0897                 1.0895
 Frc consts  --      5.9886                 6.1413                 6.1734
 IR Inten    --      8.9757                26.5734                21.3228

                     88                     89                     90
                      A                      A                      A
 Frequencies --   3105.9406              3135.0922              3140.0110
 Red. masses --      1.1052                 1.1030                 1.1002
 Frc consts  --      6.2817                 6.3876                 6.3911
 IR Inten    --     33.1649                12.0789                 6.5654

                     91                     92                     93
                      A                      A                      A
 Frequencies --   3167.7600              3175.6087              3190.0717
 Red. masses --      1.0868                 1.0876                 1.0914
 Frc consts  --      6.4253                 6.4620                 6.5440
 IR Inten    --     15.8000                 4.2101                33.7743

                     94                     95                     96
                      A                      A                      A
 Frequencies --   3205.4925              3489.9488              3585.7580
 Red. masses --      1.0974                 1.0731                 1.0760
 Frc consts  --      6.6435                 7.7009                 8.1515
 IR Inten    --     34.4506                 0.5678                19.5592

 - Thermochemistry -
 -------------------
 Temperature   298.150 Kelvin.  Pressure   1.00000 Atm.
 Atom     1 has atomic number  6 and mass  12.00000

 Molecular mass:   218.14191 amu.
 Principal axes and moments of inertia in atomic units:
                           1         2         3
     Eigenvalues --  1454.450106774.833277739.72483
           X            0.99994  -0.00990  -0.00530
           Y            0.00984   0.99989  -0.01067
           Z            0.00540   0.01062   0.99993
 This molecule is an asymmetric top.
 Rotational symmetry number  1.
 Warning -- assumption of classical behavior for rotation
           may cause significant error
 Rotational temperatures (Kelvin)      0.05955     0.01278     0.01119
 Rotational constants (GHZ):           1.24084     0.26639     0.23318
 Zero-point vibrational energy     779463.2 (Joules/Mol)
                                  186.29618 (Kcal/Mol)
 Warning -- explicit consideration of  22 degrees of freedom as
           vibrations may cause significant error
 Vibrational temperatures:     40.91    58.86    94.23   117.80   155.53
          (Kelvin)            188.74   238.40   253.35   281.52   422.06
                              438.06   458.20   487.84   583.71   607.32
                              655.50   674.37   688.03   730.95   756.82
                              801.45   861.40   928.12   978.90   999.90
                             1064.87  1079.65  1100.35  1132.15  1152.17
                             1225.87  1263.01  1269.08  1306.15  1330.20
                             1356.08  1397.26  1408.71  1469.94  1479.25
                             1509.14  1544.95  1562.79  1585.78  1595.86
                             1631.17  1680.70  1685.17  1720.55  1745.23
                             1767.09  1800.34  1812.49  1842.85  1876.26
                             1907.50  1924.55  1931.58  1953.24  1968.24
                             1985.31  2021.01  2025.51  2041.70  2091.30
                             2149.54  2158.02  2163.84  2172.21  2180.99
                             2191.78  2196.58  2214.49  2225.23  2229.02
                             2360.22  2401.06  2553.60  4315.55  4336.79
                             4370.70  4375.62  4392.19  4415.48  4428.17
                             4449.77  4461.80  4468.76  4510.70  4517.78
                             4557.70  4568.99  4589.80  4611.99  5021.26
                             5159.11

 Zero-point correction=                           0.296882 (Hartree/Particle)
 Thermal correction to Energy=                    0.311640
 Thermal correction to Enthalpy=                  0.312584
 Thermal correction to Gibbs Free Energy=         0.253949
 Sum of electronic and zero-point Energies=           -690.734956
 Sum of electronic and thermal Energies=              -690.720198
 Sum of electronic and thermal Enthalpies=            -690.719253
 Sum of electronic and thermal Free Energies=         -690.777889

                     E (Thermal)             CV                S
                      KCal/Mol        Cal/Mol-Kelvin    Cal/Mol-Kelvin
 Total                  195.557             57.419            123.409
 Electronic               0.000              0.000              0.000
 Translational            0.889              2.981             42.043
 Rotational               0.889              2.981             32.700
 Vibrational            193.780             51.457             48.666
 Vibration     1          0.593              1.984              5.936
 Vibration     2          0.594              1.981              5.214
 Vibration     3          0.597              1.971              4.284
 Vibration     4          0.600              1.962              3.845
 Vibration     5          0.606              1.943              3.303
 Vibration     6          0.612              1.922              2.929
 Vibration     7          0.624              1.885              2.484
 Vibration     8          0.628              1.872              2.369
 Vibration     9          0.636              1.846              2.173
 Vibration    10          0.688              1.686              1.455
 Vibration    11          0.695              1.665              1.392
 Vibration    12          0.705              1.638              1.318
 Vibration    13          0.719              1.597              1.217
 Vibration    14          0.771              1.458              0.942
 Vibration    15          0.784              1.422              0.885
 Vibration    16          0.814              1.349              0.779
 Vibration    17          0.826              1.319              0.741
 Vibration    18          0.835              1.298              0.715
 Vibration    19          0.863              1.232              0.638
 Vibration    20          0.881              1.192              0.596
 Vibration    21          0.913              1.124              0.530
 Vibration    22          0.957              1.035              0.452

                           ! Non-Optimized Parameters !
 Normal termination of Gaussian 16 at Thu Dec 10 21:29:34 2020.

 ----------------------------------------------------------------------
 # B3LYP/6-311++G(d,p) empiricaldispersion=gd3bj scf=xqc pop=npa geom=c
 heck
 ----------------------------------------------------------------------

 --------------------------------------
 CID_84127654_JID_6223_Energie_neutraal
 --------------------------------------
 Structure from the checkpoint file:  "JID_6223.chk"
 Charge =  0 Multiplicity = 1

 SCF Done:  E(RB3LYP) =  -691.225388977     A.U. after   15 cycles
 Normal termination of Gaussian 16 at Thu Dec 10 21:35:47 2020.

 ----------------------------------------------------------------------
 # B3LYP/6-311++G(d,p) empiricaldispersion=gd3bj scf=xqc pop=npa geom=c
 heck
 ----------------------------------------------------------------------

 ------------------------------------
 CID_84127654_JID_6223_Energie_kation
 ------------------------------------
 Structure from the checkpoint file:  "JID_6223.chk"
 Charge =  1 Multiplicity = 2

 SCF Done:  E(UB3LYP) =  -690.935102200     A.U. after   29 cycles
 Normal termination of Gaussian 16 at Thu Dec 10 21:52:38 2020.
 Gaussian 16:  ES64L-G16RevA.03 25-Dec-2016

 ----------------------------------------------------------------------
 # B3LYP/6-311++G(d,p) empiricaldispersion=gd3bj scf=xqc pop=npa geom=c
 heck
 ----------------------------------------------------------------------

 -----------------------------------
 CID_84127654_JID_6223_Energie_anion
 -----------------------------------
 Structure from the checkpoint file:  "JID_6223.chk"
 Charge = -1 Multiplicity = 2

                         Standard orientation:
 ---------------------------------------------------------------------
 Center     Atomic      Atomic             Coordinates (Angstroms)
 Number     Number       Type             X           Y           Z
 ---------------------------------------------------------------------
      1          6           0       -1.717748    2.144876   -0.319177
      2          6           0       -2.510094    0.863102   -0.207922
      3          6           0       -3.897059    0.912106   -0.026856
      4          6           0       -4.665872   -0.248551    0.054812
      5          6           0       -4.047302   -1.493009   -0.047862
      6          6           0       -2.666392   -1.556683   -0.228412
      7          6           0       -1.887160   -0.398018   -0.308261
      8          6           0       -0.386042   -0.518901   -0.439434
      9          6           0        0.296133   -0.553126    0.943921
     10          6           0        1.821552   -0.425251    0.895799
     11          6           0        2.222610    0.968982    0.376522
     12          8           0        1.608260    1.982751    0.697584
     13          7           0        3.334885    1.032711   -0.413156
     14          6           0        4.096502   -0.095238   -0.937009
     15          6           0        3.854498   -1.325449   -0.060909
     16          7           0        2.437280   -1.556803    0.193609
     17          1           0       -1.351673    2.295198   -1.344100
     18          1           0       -2.342287    3.007402   -0.067258
     19          1           0       -0.835362    2.159351    0.328320
     20          1           0       -4.381026    1.882994    0.049461
     21          1           0       -5.741017   -0.178853    0.195964
     22          1           0       -4.632458   -2.406613    0.010719
     23          1           0       -2.177043   -2.525310   -0.308501
     24          1           0       -0.151643   -1.436240   -0.994438
     25          1           0        0.014266    0.319466   -1.020111
     26          1           0       -0.086360    0.270495    1.550710
     27          1           0        0.037252   -1.487554    1.453210
     28          1           0        2.189963   -0.455855    1.932622
     29          1           0        3.545096    1.965214   -0.749027
     30          1           0        5.161568    0.167344   -0.955010
     31          1           0        3.795743   -0.313743   -1.974020
     32          1           0        4.353007   -1.191873    0.907372
     33          1           0        4.290055   -2.210353   -0.537062
     34          1           0        1.958931   -1.703474   -0.693979
 ---------------------------------------------------------------------

 SCF Done:  E(UB3LYP) =  -691.216138540     A.U. after   33 cycles
 SCF Done:  E(UB3LYP) =  -691.216138539     a.u. after    1 cycles

 The electronic state is 2-A.
 Alpha  occ. eigenvalues --  -18.98744 -14.23702 -14.20619 -10.16992 -10.11352
 Alpha  occ. eigenvalues --  -10.10397 -10.09916 -10.09557 -10.09224 -10.08948
 Alpha  occ. eigenvalues --  -10.08849 -10.08687 -10.08541 -10.08040 -10.07849
 Alpha  occ. eigenvalues --  -10.07293  -0.93906  -0.84268  -0.80050  -0.77671
 Alpha  occ. eigenvalues --   -0.70886  -0.68415  -0.66871  -0.63259  -0.60232
 Alpha  occ. eigenvalues --   -0.58476  -0.54620  -0.52443  -0.51044  -0.48857
 Alpha  occ. eigenvalues --   -0.46221  -0.42111  -0.41451  -0.40657  -0.38727
 Alpha  occ. eigenvalues --   -0.37478  -0.36042  -0.35497  -0.35274  -0.33545
 Alpha  occ. eigenvalues --   -0.33014  -0.32476  -0.31563  -0.31207  -0.30677
 Alpha  occ. eigenvalues --   -0.29784  -0.28691  -0.27270  -0.26656  -0.26589
 Alpha  occ. eigenvalues --   -0.26043  -0.25114  -0.24352  -0.23617  -0.18261
 Alpha  occ. eigenvalues --   -0.16556  -0.15722  -0.15410  -0.12609   0.04169
 Alpha virt. eigenvalues --    0.05564   0.06814   0.07024   0.07322   0.07698
 Alpha virt. eigenvalues --    0.07844   0.08091   0.08964   0.09772   0.10195
 Alpha virt. eigenvalues --    0.10714   0.11019   0.11595   0.11807   0.12219

  Beta  occ. eigenvalues --  -18.98728 -14.23686 -14.20598 -10.16982 -10.11347
  Beta  occ. eigenvalues --  -10.10336 -10.09887 -10.09557 -10.09219 -10.08941
  Beta  occ. eigenvalues --  -10.08844 -10.08677 -10.08528 -10.08024 -10.07847
  Beta  occ. eigenvalues --  -10.07290  -0.93875  -0.84226  -0.80005  -0.77655
  Beta  occ. eigenvalues --   -0.70864  -0.68400  -0.66834  -0.63202  -0.60205
  Beta  occ. eigenvalues --   -0.58439  -0.54547  -0.52389  -0.51014  -0.48832
  Beta  occ. eigenvalues --   -0.46172  -0.42072  -0.41386  -0.40625  -0.38705
  Beta  occ. eigenvalues --   -0.37427  -0.35997  -0.35453  -0.35229  -0.33522
  Beta  occ. eigenvalues --   -0.32996  -0.32458  -0.31537  -0.31167  -0.30601
  Beta  occ. eigenvalues --   -0.29765  -0.28659  -0.27238  -0.26621  -0.26554
  Beta  occ. eigenvalues --   -0.26013  -0.25083  -0.24334  -0.23595  -0.18235
  Beta  occ. eigenvalues --   -0.16508  -0.15679  -0.15376  -0.12577
  Beta virt. eigenvalues --    0.05681   0.06913   0.07071   0.07174   0.07334
  Beta virt. eigenvalues --    0.08123   0.08254   0.08853   0.09499   0.10139
  Beta virt. eigenvalues --    0.10558   0.10976   0.11286   0.11737   0.12097

 Mulliken charges and spin densities:
               1          2
     1  C   -0.358897  -0.365970
     2  C   -0.179140   0.740931
     3  C   -0.413328  -0.026043
     4  C    0.059244  -0.307928
     5  C    0.039465  -0.458923
     6  C   -0.026554  -0.432945
     7  C   -0.004726   0.851117
     8  C    0.511301  -0.764389
     9  C   -0.259267  -0.707297
    10  C    0.812446  -0.802830
    11  C   -0.608409   0.434490
    12  O   -0.348493   0.023208
    13  N   -0.484033   0.331633
    14  C    2.341533  -2.613145
    15  C   -0.551680   0.195327
    16  N    0.020160   0.036374
    17  H    0.099541   0.077527
    18  H    0.118959   0.007246
    19  H    0.192230   0.018856
    20  H    0.055439   0.072814
    21  H    0.003894   0.140546
    22  H   -0.081473   0.230837
    23  H   -0.062090   0.219804
    24  H   -0.384735   0.573162
    25  H    0.054789   0.143450
    26  H    0.167710   0.001535
    27  H    0.201916  -0.009665
    28  H    0.063641   0.166926
    29  H   -0.218138   0.529888
    30  H   -0.915169   1.092140
    31  H   -0.516849   0.702614
    32  H    0.108016   0.038677
    33  H   -0.764022   0.965032
    34  H    0.326719  -0.104997
 Sum of Mulliken charges =  -1.00000   1.00000

 Dipole moment (field-independent basis, Debye):
    X=             -9.6092    Y=              1.0721    Z=              4.1217  Tot=             10.5107
 Quadrupole moment (field-independent basis, Debye-Ang):
   XX=           -200.0918   YY=           -137.8772   ZZ=           -131.6467
   XY=             -1.1782   XZ=             16.9428   YZ=             -5.9407

 Summary of Natural Population Analysis:

                                       Natural Population
                Natural  -----------------------------------------------
    Atom  No    Charge         Core      Valence    Rydberg      Total
 -----------------------------------------------------------------------
      C    1   -0.30255      0.99963     2.29783    0.00508     3.30255
      C    2   -0.01240      0.99947     2.00381    0.00913     3.01240
      C    3   -0.10101      0.99952     2.09247    0.00902     3.10101
      C    4   -0.10691      0.99957     2.09739    0.00995     3.10691
      C    5   -0.10586      0.99956     2.09692    0.00938     3.10586
      C    6   -0.09755      0.99951     2.08832    0.00971     3.09755
      C    7   -0.00790      0.99947     1.99842    0.01001     3.00790
      C    8   -0.20576      0.99960     2.19661    0.00955     3.20576
      C    9   -0.18630      0.99960     2.17754    0.00916     3.18630
      C   10   -0.04714      0.99955     2.03460    0.01299     3.04714
      C   11    0.33879      0.99964     1.63753    0.02405     2.66121
      O   12   -0.33546      0.99988     3.32945    0.00613     4.33546
      N   13   -0.31511      0.99967     2.80427    0.01116     3.81511
      C   14   -0.09082      0.99961     2.08005    0.01115     3.09082
      C   15   -0.09136      0.99963     2.07971    0.01202     3.09136
      N   16   -0.33815      0.99975     2.82574    0.01265     3.83815
      H   17    0.10547      0.00000     0.39350    0.00103     0.39453
      H   18    0.09787      0.00000     0.40134    0.00079     0.40213
      H   19    0.12190      0.00000     0.37696    0.00114     0.37810
      H   20    0.09661      0.00000     0.40244    0.00095     0.40339
      H   21    0.09805      0.00000     0.40114    0.00080     0.40195
      H   22    0.09913      0.00000     0.40004    0.00083     0.40087
      H   23    0.10087      0.00000     0.39811    0.00102     0.39913
      H   24    0.10155      0.00000     0.39703    0.00142     0.39845
      H   25    0.10700      0.00000     0.39141    0.00159     0.39300
      H   26    0.10917      0.00000     0.38975    0.00107     0.39083
      H   27    0.10148      0.00000     0.39745    0.00107     0.39852
      H   28    0.10461      0.00000     0.39417    0.00122     0.39539
      H   29    0.19702      0.00000     0.29962    0.00335     0.30298
      H   30    0.10249      0.00000     0.39189    0.00563     0.39751
      H   31    0.09397      0.00000     0.39973    0.00631     0.40603
      H   32    0.09072      0.00000     0.40783    0.00144     0.40928
      H   33    0.10381      0.00000     0.39442    0.00177     0.39619
      H   34    0.17375      0.00000     0.32189    0.00436     0.32625
 =======================================================================
   * Total *   -0.00000     15.99366    42.79939    0.20695    59.00000

 Normal termination of Gaussian 16 at Thu Dec 10 22:12:30 2020.
