 Gaussian 16, Revision A.03,

 -----------------------------------------------------------
 # opt freq B3LYP/6-31G(d) empiricaldispersion=gd3bj scf=xqc
 -----------------------------------------------------------

 -------------------------------
 CID_115866004_JID_6227_neutraal
 -------------------------------
 Symbolic Z-matrix:
 Charge =  0 Multiplicity = 1

 SCF Done:  E(RB3LYP) =  -676.125157813     A.U. after   14 cycles
 SCF Done:  E(RB3LYP) =  -676.128588021     A.U. after   12 cycles
 SCF Done:  E(RB3LYP) =  -676.124144412     A.U. after   13 cycles
 SCF Done:  E(RB3LYP) =  -676.129755233     A.U. after   12 cycles
 SCF Done:  E(RB3LYP) =  -676.130735944     A.U. after   12 cycles
 SCF Done:  E(RB3LYP) =  -676.131017028     A.U. after   11 cycles
 SCF Done:  E(RB3LYP) =  -676.131148820     A.U. after   11 cycles
 SCF Done:  E(RB3LYP) =  -676.131226911     A.U. after   11 cycles
 SCF Done:  E(RB3LYP) =  -676.131320967     A.U. after   11 cycles
 SCF Done:  E(RB3LYP) =  -676.131409270     A.U. after   11 cycles
 SCF Done:  E(RB3LYP) =  -676.131482807     A.U. after    9 cycles
 SCF Done:  E(RB3LYP) =  -676.131483698     A.U. after    9 cycles
 SCF Done:  E(RB3LYP) =  -676.131483924     A.U. after    8 cycles
 SCF Done:  E(RB3LYP) =  -676.131483918     A.U. after    6 cycles
 SCF Done:  E(RB3LYP) =  -676.131483905     A.U. after    6 cycles
 Optimization completed.
    -- Stationary point found.
 Normal termination of Gaussian 16 at Thu Dec 10 21:28:49 2020.

 --------------------------------------------------------------------
 #N Geom=AllCheck Guess=TCheck SCRF=Check GenChk RB3LYP/6-31G(d) Freq
 --------------------------------------------------------------------

 Structure from the checkpoint file:  "JID_6227.chk"
 -------------------------------
 CID_115866004_JID_6227_neutraal
 -------------------------------
 Charge =  0 Multiplicity = 1

 SCF Done:  E(RB3LYP) =  -676.131483905     A.U. after    1 cycles

  Exact polarizability: 213.370  13.258 145.536  20.494  -5.194 116.675
 Approx polarizability: 278.193  28.517 228.183  34.460 -10.596 181.882

                      1                      2                      3
                      A                      A                      A
 Frequencies --     12.7751                29.9983                40.8540
 Red. masses --      3.4115                 4.1898                 4.6834
 Frc consts  --      0.0003                 0.0022                 0.0046
 IR Inten    --      0.4134                 0.1942                 0.0256

                      4                      5                      6
                      A                      A                      A
 Frequencies --     85.6856               122.2494               128.2282
 Red. masses --      3.7104                 3.8785                 2.7804
 Frc consts  --      0.0161                 0.0342                 0.0269
 IR Inten    --      1.2356                 0.7954                 1.1143

                      7                      8                      9
                      A                      A                      A
 Frequencies --    158.8611               208.3954               247.6553
 Red. masses --      2.6253                 2.6252                 2.7851
 Frc consts  --      0.0390                 0.0672                 0.1006
 IR Inten    --      0.4449                 0.4810                 5.6349

                     10                     11                     12
                      A                      A                      A
 Frequencies --    271.0693               289.7572               306.2744
 Red. masses --      1.5631                 1.4508                 1.8059
 Frc consts  --      0.0677                 0.0718                 0.0998
 IR Inten    --      0.8460                 1.0296                 1.0557

                     13                     14                     15
                      A                      A                      A
 Frequencies --    311.0040               331.7966               358.6786
 Red. masses --      3.1609                 2.4879                 2.5582
 Frc consts  --      0.1801                 0.1614                 0.1939
 IR Inten    --      2.9495                 0.5551                 0.9236

                     16                     17                     18
                      A                      A                      A
 Frequencies --    388.5354               434.7785               440.3372
 Red. masses --      2.7407                 2.2873                 2.4286
 Frc consts  --      0.2438                 0.2548                 0.2774
 IR Inten    --      0.4551                 2.3956                 1.0080

                     19                     20                     21
                      A                      A                      A
 Frequencies --    459.9975               477.0236               537.1264
 Red. masses --      2.6350                 2.8156                 1.6172
 Frc consts  --      0.3285                 0.3775                 0.2749
 IR Inten    --      8.2993                 3.8918                15.4628

                     22                     23                     24
                      A                      A                      A
 Frequencies --    590.3187               608.5000               609.1748
 Red. masses --      2.9373                 3.3162                 2.3909
 Frc consts  --      0.6031                 0.7235                 0.5228
 IR Inten    --     29.5878                 4.8175                46.5213

                     25                     26                     27
                      A                      A                      A
 Frequencies --    668.8638               712.0292               731.2998
 Red. masses --      3.3656                 2.3421                 1.3534
 Frc consts  --      0.8871                 0.6996                 0.4264
 IR Inten    --      4.9292                14.0421                30.1663

                     28                     29                     30
                      A                      A                      A
 Frequencies --    763.1301               780.0898               796.6149
 Red. masses --      4.1737                 1.5308                 1.3151
 Frc consts  --      1.4321                 0.5489                 0.4917
 IR Inten    --      5.6214                 1.5431                21.8421

                     31                     32                     33
                      A                      A                      A
 Frequencies --    811.3092               848.1060               861.6737
 Red. masses --      1.9758                 2.3417                 1.2990
 Frc consts  --      0.7662                 0.9924                 0.5683
 IR Inten    --      2.2768                 1.0490                 0.0225

                     34                     35                     36
                      A                      A                      A
 Frequencies --    868.4858               891.6518               908.0342
 Red. masses --      1.6573                 2.1699                 6.1279
 Frc consts  --      0.7365                 1.0165                 2.9769
 IR Inten    --      1.6023                 1.5896                 7.1258

                     37                     38                     39
                      A                      A                      A
 Frequencies --    913.2754               945.4721               966.5351
 Red. masses --      1.9240                 1.3849                 2.9930
 Frc consts  --      0.9455                 0.7294                 1.6474
 IR Inten    --      5.6515                 4.6423                 9.4630

                     40                     41                     42
                      A                      A                      A
 Frequencies --    982.8758               993.2287              1003.4129
 Red. masses --      2.1543                 1.6471                 1.4583
 Frc consts  --      1.2262                 0.9574                 0.8651
 IR Inten    --      1.8996                12.5141                13.4341

                     43                     44                     45
                      A                      A                      A
 Frequencies --   1009.0634              1045.0297              1048.3336
 Red. masses --      1.4351                 1.3616                 1.6606
 Frc consts  --      0.8610                 0.8761                 1.0753
 IR Inten    --     16.3477                23.5202                 0.5429

                     46                     47                     48
                      A                      A                      A
 Frequencies --   1065.7995              1079.1408              1100.4722
 Red. masses --      1.8952                 2.7579                 1.7324
 Frc consts  --      1.2684                 1.8923                 1.2361
 IR Inten    --      1.6162                10.2242                 0.0706

                     49                     50                     51
                      A                      A                      A
 Frequencies --   1127.5319              1128.1723              1140.1549
 Red. masses --      1.3193                 2.7973                 3.0452
 Frc consts  --      0.9883                 2.0977                 2.3324
 IR Inten    --      9.1359                11.0566                53.1538

                     52                     53                     54
                      A                      A                      A
 Frequencies --   1166.0842              1175.4721              1185.1237
 Red. masses --      1.6621                 1.6186                 2.0778
 Frc consts  --      1.3316                 1.3177                 1.7195
 IR Inten    --      4.6113                 6.1758                 0.7821

                     55                     56                     57
                      A                      A                      A
 Frequencies --   1215.9766              1222.9526              1266.4029
 Red. masses --      2.6621                 2.6687                 1.9839
 Frc consts  --      2.3192                 2.3516                 1.8746
 IR Inten    --     25.0022                23.1106                 7.5696

                     58                     59                     60
                      A                      A                      A
 Frequencies --   1281.4648              1283.3933              1299.3431
 Red. masses --      1.6836                 1.3506                 1.3375
 Frc consts  --      1.6289                 1.3107                 1.3304
 IR Inten    --      3.2555                 6.2712                 4.4468

                     61                     62                     63
                      A                      A                      A
 Frequencies --   1324.1760              1326.0579              1338.2924
 Red. masses --      1.2391                 1.3480                 1.4013
 Frc consts  --      1.2801                 1.3966                 1.4787
 IR Inten    --      1.5235                22.0794                 4.8135

                     64                     65                     66
                      A                      A                      A
 Frequencies --   1354.8847              1375.6806              1388.1132
 Red. masses --      1.4346                 1.3761                 1.3810
 Frc consts  --      1.5517                 1.5343                 1.5678
 IR Inten    --      5.3176                 1.3146                 0.5454

                     67                     68                     69
                      A                      A                      A
 Frequencies --   1394.6053              1399.3346              1404.8603
 Red. masses --      1.4339                 1.4936                 1.4495
 Frc consts  --      1.6432                 1.7232                 1.6855
 IR Inten    --     37.4145                 0.9386                 1.5845

                     70                     71                     72
                      A                      A                      A
 Frequencies --   1410.1192              1434.3942              1441.3405
 Red. masses --      1.4895                 1.2555                 2.4358
 Frc consts  --      1.7451                 1.5219                 2.9815
 IR Inten    --      0.4407                 7.9318                 6.8021

                     73                     74                     75
                      A                      A                      A
 Frequencies --   1494.8216              1500.2329              1508.0374
 Red. masses --      1.0749                 1.0901                 1.0923
 Frc consts  --      1.4152                 1.4456                 1.4635
 IR Inten    --      0.9152                 0.4108                13.9494

                     76                     77                     78
                      A                      A                      A
 Frequencies --   1522.6882              1524.9843              1527.2404
 Red. masses --      1.0852                 1.0723                 1.0719
 Frc consts  --      1.4825                 1.4693                 1.4731
 IR Inten    --      5.8856                 3.7705                 3.9968

                     79                     80                     81
                      A                      A                      A
 Frequencies --   1530.9551              1532.9460              1540.5700
 Red. masses --      1.0692                 4.7822                 1.1031
 Frc consts  --      1.4765                 6.6211                 1.5426
 IR Inten    --     12.3536                17.3256                 3.1051

                     82                     83                     84
                      A                      A                      A
 Frequencies --   1558.3235              1630.3872              1723.9873
 Red. masses --      1.1765                 5.6888                 5.8782
 Frc consts  --      1.6832                 8.9094                10.2935
 IR Inten    --     11.4827                 3.1227                 2.6921

                     85                     86                     87
                      A                      A                      A
 Frequencies --   3002.6663              3017.0532              3020.5946
 Red. masses --      1.0732                 1.0673                 1.0667
 Frc consts  --      5.7010                 5.7240                 5.7341
 IR Inten    --     48.2062                11.7086                30.1629

                     88                     89                     90
                      A                      A                      A
 Frequencies --   3027.4792              3039.0566              3040.1229
 Red. masses --      1.0661                 1.0406                 1.0612
 Frc consts  --      5.7572                 5.6627                 5.7786
 IR Inten    --     28.5358                44.3124                19.5873

                     91                     92                     93
                      A                      A                      A
 Frequencies --   3054.7089              3069.5081              3077.6486
 Red. masses --      1.0715                 1.0938                 1.1025
 Frc consts  --      5.8910                 6.0720                 6.1527
 IR Inten    --     36.6880                63.0294                68.2401

                     94                     95                     96
                      A                      A                      A
 Frequencies --   3089.2892              3091.7489              3101.3605
 Red. masses --      1.0940                 1.0958                 1.1019
 Frc consts  --      6.1516                 6.1715                 6.2445
 IR Inten    --     34.0393                23.0497                47.1033

                     97                     98                     99
                      A                      A                      A
 Frequencies --   3103.8596              3120.7034              3127.4496
 Red. masses --      1.0901                 1.0900                 1.1000
 Frc consts  --      6.1873                 6.2544                 6.3393
 IR Inten    --     19.0093                42.4464                49.4370

                    100                    101                    102
                      A                      A                      A
 Frequencies --   3140.0481              3170.2171              3263.7113
 Red. masses --      1.0894                 1.0876                 1.0908
 Frc consts  --      6.3287                 6.4402                 6.8455
 IR Inten    --     17.8594                15.7704                 7.6482

                    103                    104                    105
                      A                      A                      A
 Frequencies --   3275.6918              3303.2769              3528.1924
 Red. masses --      1.0971                 1.1042                 1.0746
 Frc consts  --      6.9362                 7.0987                 7.8812
 IR Inten    --      1.7483                 1.1893                 0.8887

 - Thermochemistry -
 -------------------
 Temperature   298.150 Kelvin.  Pressure   1.00000 Atm.
 Atom     1 has atomic number  6 and mass  12.00000

 Molecular mass:   219.16231 amu.
 Principal axes and moments of inertia in atomic units:
                           1         2         3
     Eigenvalues --  1696.183147393.648187953.99009
           X            0.99999  -0.00413  -0.00029
           Y            0.00412   0.99955  -0.02977
           Z            0.00041   0.02977   0.99956
 This molecule is an asymmetric top.
 Rotational symmetry number  1.
 Warning -- assumption of classical behavior for rotation
           may cause significant error
 Rotational temperatures (Kelvin)      0.05106     0.01171     0.01089
 Rotational constants (GHZ):           1.06400     0.24409     0.22690
 Zero-point vibrational energy     864819.3 (Joules/Mol)
                                  206.69677 (Kcal/Mol)
 Warning -- explicit consideration of  24 degrees of freedom as
           vibrations may cause significant error
 Vibrational temperatures:     18.38    43.16    58.78   123.28   175.89
          (Kelvin)            184.49   228.57   299.83   356.32   390.01
                              416.90   440.66   447.47   477.38   516.06
                              559.02   625.55   633.55   661.83   686.33
                              772.81   849.34   875.50   876.47   962.35
                             1024.45  1052.18  1097.97  1122.38  1146.15
                             1167.29  1220.24  1239.76  1249.56  1282.89
                             1306.46  1314.00  1360.32  1390.63  1414.14
                             1429.03  1443.69  1451.82  1503.56  1508.32
                             1533.45  1552.64  1583.33  1622.27  1623.19
                             1640.43  1677.74  1691.24  1705.13  1749.52
                             1759.56  1822.07  1843.74  1846.52  1869.46
                             1905.19  1907.90  1925.50  1949.38  1979.30
                             1997.19  2006.53  2013.33  2021.28  2028.85
                             2063.77  2073.77  2150.71  2158.50  2169.73
                             2190.81  2194.11  2197.36  2202.70  2205.57
                             2216.54  2242.08  2345.76  2480.43  4320.17
                             4340.87  4345.96  4355.87  4372.52  4374.06
                             4395.04  4416.34  4428.05  4444.80  4448.34
                             4462.17  4465.76  4490.00  4499.70  4517.83
                             4561.24  4695.75  4712.99  4752.68  5076.28

 Zero-point correction=                           0.329392 (Hartree/Particle)
 Thermal correction to Energy=                    0.344895
 Thermal correction to Enthalpy=                  0.345839
 Thermal correction to Gibbs Free Energy=         0.284786
 Sum of electronic and zero-point Energies=           -675.802092
 Sum of electronic and thermal Energies=              -675.786589
 Sum of electronic and thermal Enthalpies=            -675.785644
 Sum of electronic and thermal Free Energies=         -675.846698

                     E (Thermal)             CV                S
                      KCal/Mol        Cal/Mol-Kelvin    Cal/Mol-Kelvin
 Total                  216.425             61.078            128.498
 Electronic               0.000              0.000              0.000
 Translational            0.889              2.981             42.057
 Rotational               0.889              2.981             32.967
 Vibrational            214.648             55.116             53.474
 Vibration     1          0.593              1.987              7.524
 Vibration     2          0.594              1.984              5.830
 Vibration     3          0.594              1.981              5.217
 Vibration     4          0.601              1.959              3.756
 Vibration     5          0.610              1.931              3.065
 Vibration     6          0.611              1.925              2.972
 Vibration     7          0.621              1.893              2.563
 Vibration     8          0.642              1.828              2.058
 Vibration     9          0.661              1.767              1.747
 Vibration    10          0.675              1.727              1.589
 Vibration    11          0.686              1.693              1.475
 Vibration    12          0.697              1.662              1.382
 Vibration    13          0.700              1.653              1.357
 Vibration    14          0.714              1.612              1.251
 Vibration    15          0.734              1.557              1.128
 Vibration    16          0.757              1.495              1.006
 Vibration    17          0.795              1.394              0.843
 Vibration    18          0.800              1.382              0.826
 Vibration    19          0.818              1.339              0.766
 Vibration    20          0.834              1.301              0.718
 Vibration    21          0.892              1.168              0.571
 Vibration    22          0.948              1.052              0.467
 Vibration    23          0.967              1.014              0.435
 Vibration    24          0.968              1.012              0.434

 Optimization completed.
    -- Stationary point found.
 Normal termination of Gaussian 16 at Thu Dec 10 21:43:08 2020.

 ----------------------------------------------------------------------
 # B3LYP/6-311++G(d,p) empiricaldispersion=gd3bj scf=xqc pop=npa geom=c
 heck
 ----------------------------------------------------------------------

 ---------------------------------------
 CID_115866004_JID_6227_Energie_neutraal
 ---------------------------------------
 Structure from the checkpoint file:  "JID_6227.chk"
 Charge =  0 Multiplicity = 1

 SCF Done:  E(RB3LYP) =  -676.318109049     A.U. after   15 cycles
 Normal termination of Gaussian 16 at Thu Dec 10 21:50:42 2020.

 ----------------------------------------------------------------------
 # B3LYP/6-311++G(d,p) empiricaldispersion=gd3bj scf=xqc pop=npa geom=c
 heck
 ----------------------------------------------------------------------

 -------------------------------------
 CID_115866004_JID_6227_Energie_kation
 -------------------------------------
 Structure from the checkpoint file:  "JID_6227.chk"
 Charge =  1 Multiplicity = 2

 SCF Done:  E(UB3LYP) =  -676.047874753     A.U. after   23 cycles
 Normal termination of Gaussian 16 at Thu Dec 10 22:07:30 2020.
 Gaussian 16:  ES64L-G16RevA.03 25-Dec-2016

 ----------------------------------------------------------------------
 # B3LYP/6-311++G(d,p) empiricaldispersion=gd3bj scf=xqc pop=npa geom=c
 heck
 ----------------------------------------------------------------------

 ------------------------------------
 CID_115866004_JID_6227_Energie_anion
 ------------------------------------
 Structure from the checkpoint file:  "JID_6227.chk"
 Charge = -1 Multiplicity = 2

                         Standard orientation:
 ---------------------------------------------------------------------
 Center     Atomic      Atomic             Coordinates (Angstroms)
 Number     Number       Type             X           Y           Z
 ---------------------------------------------------------------------
      1          6           0       -2.749608   -2.014861    1.192568
      2          6           0       -2.375774   -0.787404    0.346118
      3          6           0       -3.672939   -0.011321    0.008778
      4          6           0       -3.412120    1.358018   -0.624392
      5          6           0       -2.577870    2.234098    0.317600
      6          6           0       -1.249946    1.553530    0.672089
      7          6           0       -1.451162    0.123267    1.196861
      8          7           0       -1.800968   -1.327787   -0.916562
      9          6           0       -0.649356   -0.752390   -1.605739
     10          6           0        0.690830   -0.879840   -0.921479
     11          6           0        1.625065    0.082771   -0.881839
     12          6           0        2.925463   -0.027750   -0.260319
     13          6           0        3.605940   -1.018266    0.404116
     14          6           0        4.870008   -0.470314    0.783032
     15          6           0        4.880389    0.813954    0.325598
     16          8           0        3.710592    1.100512   -0.309296
     17          1           0       -3.299957   -1.722383    2.091908
     18          1           0       -3.384474   -2.699392    0.616685
     19          1           0       -1.849646   -2.558497    1.507127
     20          1           0       -4.281289   -0.637050   -0.653128
     21          1           0       -4.244599    0.140411    0.936575
     22          1           0       -4.365195    1.849431   -0.856743
     23          1           0       -2.889059    1.227453   -1.581086
     24          1           0       -3.154304    2.413140    1.237364
     25          1           0       -2.389064    3.217588   -0.130647
     26          1           0       -0.714844    2.137426    1.431560
     27          1           0       -0.602773    1.548382   -0.209379
     28          1           0       -1.916659    0.197410    2.189939
     29          1           0       -0.482496   -0.366193    1.345234
     30          1           0       -1.645998   -2.325204   -0.811770
     31          1           0       -0.593097   -1.277625   -2.571982
     32          1           0       -0.845930    0.294583   -1.852934
     33          1           0        0.892656   -1.846625   -0.457234
     34          1           0        1.423571    1.048496   -1.342478
     35          1           0        3.245701   -2.018793    0.596930
     36          1           0        5.663741   -0.968052    1.322202
     37          1           0        5.602238    1.614956    0.364202
 ---------------------------------------------------------------------

 SCF Done:  E(UB3LYP) =  -676.307438069     A.U. after   33 cycles
 SCF Done:  E(UB3LYP) =  -676.307438068     a.u. after    1 cycles

 The electronic state is 2-A.
 Alpha  occ. eigenvalues --  -19.06162 -14.17912 -10.10128 -10.10004 -10.09610
 Alpha  occ. eigenvalues --  -10.08104 -10.06114 -10.05940 -10.05806 -10.05374
 Alpha  occ. eigenvalues --  -10.05106 -10.04926 -10.04925 -10.04449 -10.04311
 Alpha  occ. eigenvalues --  -10.03508  -0.98971  -0.79425  -0.71309  -0.68670
 Alpha  occ. eigenvalues --   -0.67753  -0.65423  -0.63300  -0.61167  -0.57117
 Alpha  occ. eigenvalues --   -0.54472  -0.50383  -0.49177  -0.47647  -0.45907
 Alpha  occ. eigenvalues --   -0.44049  -0.43409  -0.40165  -0.36963  -0.36001
 Alpha  occ. eigenvalues --   -0.34949  -0.34413  -0.33629  -0.33265  -0.32529
 Alpha  occ. eigenvalues --   -0.31464  -0.30988  -0.29593  -0.28535  -0.27798
 Alpha  occ. eigenvalues --   -0.26928  -0.26587  -0.25977  -0.25711  -0.24931
 Alpha  occ. eigenvalues --   -0.24545  -0.24026  -0.23180  -0.20686  -0.19567
 Alpha  occ. eigenvalues --   -0.19280  -0.17883  -0.16689  -0.10794  -0.09024
 Alpha  occ. eigenvalues --    0.04857
 Alpha virt. eigenvalues --    0.06766   0.07468   0.07568   0.08230   0.08950
 Alpha virt. eigenvalues --    0.09125   0.09816   0.10196   0.10530   0.10919
 Alpha virt. eigenvalues --    0.11412   0.12651   0.12948   0.13003   0.13043

  Beta  occ. eigenvalues --  -19.05994 -14.17882 -10.10030 -10.09913 -10.09610
  Beta  occ. eigenvalues --  -10.08127 -10.06157 -10.05929 -10.05800 -10.05375
  Beta  occ. eigenvalues --  -10.05074 -10.04908 -10.04903 -10.04366 -10.04248
  Beta  occ. eigenvalues --  -10.03215  -0.98703  -0.79368  -0.71263  -0.68448
  Beta  occ. eigenvalues --   -0.67533  -0.65324  -0.63272  -0.60891  -0.57063
  Beta  occ. eigenvalues --   -0.54331  -0.50347  -0.49037  -0.47593  -0.45607
  Beta  occ. eigenvalues --   -0.43977  -0.43251  -0.39996  -0.36910  -0.35901
  Beta  occ. eigenvalues --   -0.34862  -0.34354  -0.33221  -0.32969  -0.32458
  Beta  occ. eigenvalues --   -0.31393  -0.30911  -0.29487  -0.28435  -0.27716
  Beta  occ. eigenvalues --   -0.26898  -0.26542  -0.25869  -0.25625  -0.24875
  Beta  occ. eigenvalues --   -0.24490  -0.23952  -0.23096  -0.20632  -0.19493
  Beta  occ. eigenvalues --   -0.19232  -0.16980  -0.16229  -0.10685  -0.08012
  Beta virt. eigenvalues --    0.06996   0.07458   0.07853   0.08545   0.08976
  Beta virt. eigenvalues --    0.09113   0.09222   0.10080   0.10357   0.10750
  Beta virt. eigenvalues --    0.11017   0.11487   0.12840   0.13009   0.13111

 Mulliken charges and spin densities:
               1          2
     1  C    1.597513  -1.943589
     2  C   -1.582289   1.724002
     3  C    0.296821  -0.836027
     4  C   -0.494613   0.257138
     5  C    0.018809  -0.619006
     6  C   -0.406286   0.280990
     7  C    0.453749  -0.801251
     8  N   -0.044058   0.052368
     9  C   -0.017362  -0.402406
    10  C    0.121415   0.151339
    11  C   -0.475010   0.084787
    12  C   -0.267839  -0.073275
    13  C   -0.041433   0.465162
    14  C   -0.360209  -0.213486
    15  C   -0.113795   0.194905
    16  O   -0.035682   0.024008
    17  H   -0.201888   0.337082
    18  H   -0.166450   0.301060
    19  H   -0.282614   0.440194
    20  H    0.066220   0.096860
    21  H   -0.111754   0.243282
    22  H   -0.104947   0.281045
    23  H    0.086649   0.037933
    24  H   -0.027647   0.144967
    25  H   -0.020307   0.170218
    26  H    0.136040   0.036819
    27  H    0.075127  -0.063899
    28  H   -0.196306   0.385136
    29  H    0.255640  -0.120092
    30  H    0.047622   0.188029
    31  H   -0.051369   0.233835
    32  H    0.229578  -0.109758
    33  H    0.286992  -0.171425
    34  H    0.117663   0.029359
    35  H   -0.010284   0.152979
    36  H    0.109391   0.018679
    37  H    0.112909   0.022038
 Sum of Mulliken charges =  -1.00000   1.00000

 Dipole moment (field-independent basis, Debye):
    X=              2.6115    Y=              1.7117    Z=             -1.2277  Tot=              3.3552
 Quadrupole moment (field-independent basis, Debye-Ang):
   XX=           -172.3330   YY=           -127.7330   ZZ=           -130.0568
   XY=             -3.7216   XZ=              8.4989   YZ=              0.3819

 Summary of Natural Population Analysis:

                                       Natural Population
                Natural  -----------------------------------------------
    Atom  No    Charge         Core      Valence    Rydberg      Total
 -----------------------------------------------------------------------
      C    1   -0.28620      0.99962     2.27950    0.00708     3.28620
      C    2    0.06305      0.99955     1.92298    0.01443     2.93695
      C    3   -0.19013      0.99957     2.18020    0.01035     3.19013
      C    4   -0.19166      0.99962     2.18378    0.00826     3.19166
      C    5   -0.18809      0.99963     2.18050    0.00797     3.18809
      C    6   -0.19280      0.99962     2.18517    0.00801     3.19280
      C    7   -0.20017      0.99958     2.19070    0.00988     3.20017
      N    8   -0.34850      0.99972     2.83549    0.01330     3.84850
      C    9   -0.10464      0.99960     2.09306    0.01198     3.10464
      C   10   -0.03020      0.99953     2.02206    0.00861     3.03020
      C   11   -0.12802      0.99949     2.12014    0.00840     3.12802
      C   12    0.15858      0.99946     1.82776    0.01420     2.84142
      C   13   -0.14331      0.99952     2.13572    0.00808     3.14331
      C   14   -0.16610      0.99958     2.15721    0.00931     3.16610
      C   15    0.06111      0.99953     1.92445    0.01491     2.93889
      O   16   -0.22340      0.99986     3.21579    0.00774     4.22340
      H   17    0.10244      0.00000     0.39630    0.00127     0.39756
      H   18    0.09915      0.00000     0.39972    0.00113     0.40085
      H   19    0.10008      0.00000     0.39866    0.00126     0.39992
      H   20    0.10213      0.00000     0.39643    0.00144     0.39787
      H   21    0.09297      0.00000     0.40567    0.00135     0.40703
      H   22    0.09500      0.00000     0.40412    0.00088     0.40500
      H   23    0.09445      0.00000     0.40417    0.00138     0.40555
      H   24    0.09155      0.00000     0.40731    0.00114     0.40845
      H   25    0.09418      0.00000     0.40504    0.00079     0.40582
      H   26    0.09652      0.00000     0.40259    0.00089     0.40348
      H   27    0.09753      0.00000     0.40074    0.00173     0.40247
      H   28    0.09772      0.00000     0.40099    0.00129     0.40228
      H   29    0.11133      0.00000     0.38764    0.00103     0.38867
      H   30    0.17315      0.00000     0.32449    0.00235     0.32685
      H   31    0.09898      0.00000     0.39990    0.00112     0.40102
      H   32    0.09043      0.00000     0.40798    0.00159     0.40957
      H   33    0.08471      0.00000     0.41407    0.00121     0.41529
      H   34    0.09492      0.00000     0.40323    0.00185     0.40508
      H   35    0.10470      0.00000     0.39449    0.00081     0.39530
      H   36    0.10159      0.00000     0.39769    0.00072     0.39841
      H   37    0.08697      0.00000     0.41217    0.00085     0.41303
 =======================================================================
   * Total *    0.00000     15.99349    43.81792    0.18859    60.00000

 Normal termination of Gaussian 16 at Thu Dec 10 22:31:26 2020.
