 Gaussian 16, Revision A.03,

 -----------------------------------------------------------
 # opt freq B3LYP/6-31G(d) empiricaldispersion=gd3bj scf=xqc
 -----------------------------------------------------------

 ------------------------------
 CID_65984333_JID_2668_neutraal
 ------------------------------
 Symbolic Z-matrix:
 Charge =  0 Multiplicity = 1

 SCF Done:  E(RB3LYP) =  -522.466390608     A.U. after   13 cycles
 SCF Done:  E(RB3LYP) =  -522.474835336     A.U. after   10 cycles
 SCF Done:  E(RB3LYP) =  -522.475762461     A.U. after   10 cycles
 SCF Done:  E(RB3LYP) =  -522.476060339     A.U. after   10 cycles
 SCF Done:  E(RB3LYP) =  -522.476103984     A.U. after   10 cycles
 SCF Done:  E(RB3LYP) =  -522.476199564     A.U. after    9 cycles
 SCF Done:  E(RB3LYP) =  -522.476214784     A.U. after    9 cycles
 SCF Done:  E(RB3LYP) =  -522.476217471     A.U. after    8 cycles
 SCF Done:  E(RB3LYP) =  -522.476220047     A.U. after    8 cycles
 SCF Done:  E(RB3LYP) =  -522.476228515     A.U. after    9 cycles
 SCF Done:  E(RB3LYP) =  -522.476250669     A.U. after    9 cycles
 SCF Done:  E(RB3LYP) =  -522.476251765     A.U. after    8 cycles
 SCF Done:  E(RB3LYP) =  -522.476253235     A.U. after    8 cycles
 SCF Done:  E(RB3LYP) =  -522.476253499     A.U. after    7 cycles
 SCF Done:  E(RB3LYP) =  -522.476253506     A.U. after    6 cycles
 SCF Done:  E(RB3LYP) =  -522.476253496     A.U. after    5 cycles
 Optimization completed.
    -- Stationary point found.
 Normal termination of Gaussian 16 at Wed Dec  9 17:45:09 2020.

 --------------------------------------------------------------------
 #N Geom=AllCheck Guess=TCheck SCRF=Check GenChk RB3LYP/6-31G(d) Freq
 --------------------------------------------------------------------

 Structure from the checkpoint file:  "JID_2668.chk"
 ------------------------------
 CID_65984333_JID_2668_neutraal
 ------------------------------
 Charge =  0 Multiplicity = 1

 SCF Done:  E(RB3LYP) =  -522.476253496     A.U. after    1 cycles

  Exact polarizability: 128.554  -0.380 101.834  -1.241   1.145 102.214
 Approx polarizability: 154.383  -2.510 144.216   0.809  -1.085 156.529

                      1                      2                      3
                      A                      A                      A
 Frequencies --     19.3817                37.9961                46.0586
 Red. masses --      2.5477                 2.5800                 3.4788
 Frc consts  --      0.0006                 0.0022                 0.0043
 IR Inten    --      0.0941                 0.0114                 0.3181

                      4                      5                      6
                      A                      A                      A
 Frequencies --     92.4318               132.5489               152.9909
 Red. masses --      2.4897                 2.7109                 3.3066
 Frc consts  --      0.0125                 0.0281                 0.0456
 IR Inten    --      4.3094                 0.5214                 0.5535

                      7                      8                      9
                      A                      A                      A
 Frequencies --    217.4654               221.8666               249.1537
 Red. masses --      1.9954                 2.5657                 2.4604
 Frc consts  --      0.0556                 0.0744                 0.0900
 IR Inten    --      0.0953                 0.2821                11.6439

                     10                     11                     12
                      A                      A                      A
 Frequencies --    328.6546               342.6423               351.1028
 Red. masses --      1.4019                 2.2552                 3.1657
 Frc consts  --      0.0892                 0.1560                 0.2299
 IR Inten    --     82.1314                16.0666                 6.5145

                     13                     14                     15
                      A                      A                      A
 Frequencies --    417.6790               432.1842               463.3933
 Red. masses --      1.9390                 1.8001                 3.4414
 Frc consts  --      0.1993                 0.1981                 0.4354
 IR Inten    --      1.8393                 8.6145                 3.2731

                     16                     17                     18
                      A                      A                      A
 Frequencies --    571.2358               628.0255               688.0799
 Red. masses --      2.0867                 3.1199                 3.3515
 Frc consts  --      0.4012                 0.7250                 0.9349
 IR Inten    --      5.3164                 6.9097                 1.8540

                     19                     20                     21
                      A                      A                      A
 Frequencies --    782.1861               803.3000               824.1847
 Red. masses --      1.3944                 2.2752                 2.0835
 Frc consts  --      0.5026                 0.8650                 0.8339
 IR Inten    --      1.0618                 2.1606                 0.9408

                     22                     23                     24
                      A                      A                      A
 Frequencies --    878.7235               893.1537               905.8292
 Red. masses --      1.9294                 1.8828                 1.6017
 Frc consts  --      0.8777                 0.8849                 0.7743
 IR Inten    --      2.0287                 0.6261                 6.7618

                     25                     26                     27
                      A                      A                      A
 Frequencies --    911.0925               917.7034               960.8560
 Red. masses --      2.5061                 1.2518                 2.4380
 Frc consts  --      1.2257                 0.6211                 1.3262
 IR Inten    --      1.2402                 0.4372                 1.1285

                     28                     29                     30
                      A                      A                      A
 Frequencies --    968.4415               985.5680              1021.2617
 Red. masses --      1.9073                 1.7227                 1.4635
 Frc consts  --      1.0539                 0.9859                 0.8993
 IR Inten    --      4.4834                 1.0833                 0.8924

                     31                     32                     33
                      A                      A                      A
 Frequencies --   1034.5318              1038.1761              1061.0725
 Red. masses --      2.4593                 2.3020                 3.5416
 Frc consts  --      1.5508                 1.4618                 2.3493
 IR Inten    --      1.5922                 1.7764                88.0156

                     34                     35                     36
                      A                      A                      A
 Frequencies --   1070.3384              1105.8694              1111.2270
 Red. masses --      2.2533                 2.4159                 1.9695
 Frc consts  --      1.5209                 1.7407                 1.4329
 IR Inten    --     12.0912                43.4520                 8.7357

                     37                     38                     39
                      A                      A                      A
 Frequencies --   1125.9193              1146.6230              1158.2654
 Red. masses --      2.9287                 1.2491                 1.5278
 Frc consts  --      2.1875                 0.9676                 1.2076
 IR Inten    --      6.0254                 9.8885                 9.2296

                     40                     41                     42
                      A                      A                      A
 Frequencies --   1186.9276              1211.1808              1227.7488
 Red. masses --      1.2651                 1.4092                 1.7537
 Frc consts  --      1.0501                 1.2180                 1.5575
 IR Inten    --      1.9794                 1.6683                 6.1762

                     43                     44                     45
                      A                      A                      A
 Frequencies --   1243.7922              1248.3463              1251.7984
 Red. masses --      1.7756                 1.9318                 1.3750
 Frc consts  --      1.6184                 1.7737                 1.2695
 IR Inten    --     24.5380                12.6524                 9.8064

                     46                     47                     48
                      A                      A                      A
 Frequencies --   1284.0024              1288.1231              1296.1826
 Red. masses --      1.2347                 1.4396                 1.3149
 Frc consts  --      1.1993                 1.4074                 1.3016
 IR Inten    --      3.0493                12.7285                 2.2549

                     49                     50                     51
                      A                      A                      A
 Frequencies --   1312.7763              1326.8060              1344.8707
 Red. masses --      1.2537                 1.3360                 1.3185
 Frc consts  --      1.2730                 1.3857                 1.4050
 IR Inten    --      0.0389                 4.0643                 3.6304

                     52                     53                     54
                      A                      A                      A
 Frequencies --   1348.9834              1357.6002              1364.9255
 Red. masses --      1.5236                 1.3237                 1.2966
 Frc consts  --      1.6336                 1.4374                 1.4232
 IR Inten    --      7.8779                 3.8194                 0.3586

                     55                     56                     57
                      A                      A                      A
 Frequencies --   1375.0102              1381.9666              1406.9076
 Red. masses --      1.4232                 1.4656                 1.2762
 Frc consts  --      1.5854                 1.6492                 1.4884
 IR Inten    --      1.0659                 5.7093                21.2493

                     58                     59                     60
                      A                      A                      A
 Frequencies --   1412.0885              1413.4205              1444.1116
 Red. masses --      1.3319                 1.4284                 1.4251
 Frc consts  --      1.5647                 1.6813                 1.7510
 IR Inten    --      8.4349                22.3411                52.9569

                     61                     62                     63
                      A                      A                      A
 Frequencies --   1499.8091              1518.4337              1519.6221
 Red. masses --      1.0879                 1.0797                 1.0895
 Frc consts  --      1.4418                 1.4667                 1.4823
 IR Inten    --      1.4254                 1.3205                 0.3570

                     64                     65                     66
                      A                      A                      A
 Frequencies --   1525.8570              1531.9603              1540.5491
 Red. masses --      1.0916                 1.0879                 1.0836
 Frc consts  --      1.4974                 1.5043                 1.5152
 IR Inten    --      2.5317                 1.7883                 1.4773

                     67                     68                     69
                      A                      A                      A
 Frequencies --   1548.2257              1564.5667              2948.3992
 Red. masses --      1.1031                 1.1138                 1.0702
 Frc consts  --      1.5578                 1.6064                 5.4813
 IR Inten    --      0.9692                 4.8112                58.1660

                     70                     71                     72
                      A                      A                      A
 Frequencies --   2978.0397              3009.1061              3014.9637
 Red. masses --      1.0717                 1.0599                 1.0679
 Frc consts  --      5.5999                 5.6545                 5.7193
 IR Inten    --     54.3804                73.4581                37.2916

                     73                     74                     75
                      A                      A                      A
 Frequencies --   3020.3705              3031.4317              3043.9616
 Red. masses --      1.0774                 1.0707                 1.0665
 Frc consts  --      5.7911                 5.7973                 5.8221
 IR Inten    --      2.9661                29.6963                49.8648

                     76                     77                     78
                      A                      A                      A
 Frequencies --   3046.8736              3052.2737              3057.6155
 Red. masses --      1.0653                 1.0907                 1.0989
 Frc consts  --      5.8268                 5.9867                 6.0532
 IR Inten    --     15.6663                67.3051                44.8409

                     79                     80                     81
                      A                      A                      A
 Frequencies --   3061.4996              3062.4130              3087.7454
 Red. masses --      1.1006                 1.0663                 1.0983
 Frc consts  --      6.0777                 5.8918                 6.1697
 IR Inten    --     33.9614                57.5887                20.5367

                     82                     83                     84
                      A                      A                      A
 Frequencies --   3090.2907              3096.7235              3099.0354
 Red. masses --      1.0891                 1.0949                 1.0997
 Frc consts  --      6.1279                 6.1863                 6.2225
 IR Inten    --     27.2991                37.2254                38.8759

                     85                     86                     87
                      A                      A                      A
 Frequencies --   3108.1109              3112.6245              3734.9161
 Red. masses --      1.0900                 1.1045                 1.0660
 Frc consts  --      6.2039                 6.3046                 8.7613
 IR Inten    --     54.4985                83.5890                 6.4768

 - Thermochemistry -
 -------------------
 Temperature   298.150 Kelvin.  Pressure   1.00000 Atm.
 Atom     1 has atomic number  6 and mass  12.00000

 Molecular mass:   169.14666 amu.
 Principal axes and moments of inertia in atomic units:
                           1         2         3
     Eigenvalues --  1027.525804050.315674532.86732
           X            0.99998   0.00582  -0.00311
           Y           -0.00578   0.99987   0.01517
           Z            0.00319  -0.01515   0.99988
 This molecule is an asymmetric top.
 Rotational symmetry number  1.
 Warning -- assumption of classical behavior for rotation
           may cause significant error
 Rotational temperatures (Kelvin)      0.08429     0.02138     0.01911
 Rotational constants (GHZ):           1.75640     0.44558     0.39815
 Zero-point vibrational energy     746052.3 (Joules/Mol)
                                  178.31078 (Kcal/Mol)
 Warning -- explicit consideration of  16 degrees of freedom as
           vibrations may cause significant error
 Vibrational temperatures:     27.89    54.67    66.27   132.99   190.71
          (Kelvin)            220.12   312.88   319.22   358.48   472.86
                              492.99   505.16   600.95   621.82   666.72
                              821.88   903.59   989.99  1125.39  1155.77
                             1185.82  1264.29  1285.05  1303.29  1310.86
                             1320.37  1382.46  1393.37  1418.01  1469.37
                             1488.46  1493.70  1526.65  1539.98  1591.10
                             1598.81  1619.95  1649.73  1666.49  1707.72
                             1742.62  1766.46  1789.54  1796.09  1801.06
                             1847.39  1853.32  1864.92  1888.79  1908.98
                             1934.97  1940.89  1953.28  1963.82  1978.33
                             1988.34  2024.23  2031.68  2033.60  2077.75
                             2157.89  2184.69  2186.40  2195.37  2204.15
                             2216.51  2227.55  2251.06  4242.09  4284.73
                             4329.43  4337.86  4345.64  4361.55  4379.58
                             4383.77  4391.54  4399.23  4404.82  4406.13
                             4442.58  4446.24  4455.49  4458.82  4471.88
                             4478.37  5373.71

 Zero-point correction=                           0.284156 (Hartree/Particle)
 Thermal correction to Energy=                    0.296734
 Thermal correction to Enthalpy=                  0.297678
 Thermal correction to Gibbs Free Energy=         0.243164
 Sum of electronic and zero-point Energies=           -522.192097
 Sum of electronic and thermal Energies=              -522.179520
 Sum of electronic and thermal Enthalpies=            -522.178575
 Sum of electronic and thermal Free Energies=         -522.233090

                     E (Thermal)             CV                S
                      KCal/Mol        Cal/Mol-Kelvin    Cal/Mol-Kelvin
 Total                  186.203             47.049            114.735
 Electronic               0.000              0.000              0.000
 Translational            0.889              2.981             41.285
 Rotational               0.889              2.981             31.312
 Vibrational            184.426             41.087             42.138
 Vibration     1          0.593              1.986              6.697
 Vibration     2          0.594              1.982              5.361
 Vibration     3          0.595              1.979              4.980
 Vibration     4          0.602              1.955              3.608
 Vibration     5          0.613              1.921              2.909
 Vibration     6          0.619              1.899              2.635
 Vibration     7          0.646              1.814              1.980
 Vibration     8          0.648              1.808              1.944
 Vibration     9          0.662              1.764              1.737
 Vibration    10          0.712              1.618              1.267
 Vibration    11          0.722              1.590              1.200
 Vibration    12          0.728              1.573              1.161
 Vibration    13          0.781              1.432              0.900
 Vibration    14          0.793              1.400              0.852
 Vibration    15          0.821              1.331              0.756
 Vibration    16          0.927              1.093              0.502

                           ! Non-Optimized Parameters !
 Normal termination of Gaussian 16 at Wed Dec  9 17:53:16 2020.

 ----------------------------------------------------------------------
 # B3LYP/6-311++G(d,p) empiricaldispersion=gd3bj scf=xqc pop=npa geom=c
 heck
 ----------------------------------------------------------------------

 --------------------------------------
 CID_65984333_JID_2668_Energie_neutraal
 --------------------------------------
 Structure from the checkpoint file:  "JID_2668.chk"
 Charge =  0 Multiplicity = 1

 SCF Done:  E(RB3LYP) =  -522.629924591     A.U. after   13 cycles
 Normal termination of Gaussian 16 at Wed Dec  9 17:56:16 2020.

 ----------------------------------------------------------------------
 # B3LYP/6-311++G(d,p) empiricaldispersion=gd3bj scf=xqc pop=npa geom=c
 heck
 ----------------------------------------------------------------------

 ------------------------------------
 CID_65984333_JID_2668_Energie_kation
 ------------------------------------
 Structure from the checkpoint file:  "JID_2668.chk"
 Charge =  1 Multiplicity = 2

 SCF Done:  E(UB3LYP) =  -522.342517411     A.U. after   18 cycles
 Normal termination of Gaussian 16 at Wed Dec  9 18:01:26 2020.
 Gaussian 16:  ES64L-G16RevA.03 25-Dec-2016

 ----------------------------------------------------------------------
 # B3LYP/6-311++G(d,p) empiricaldispersion=gd3bj scf=xqc pop=npa geom=c
 heck
 ----------------------------------------------------------------------

 -----------------------------------
 CID_65984333_JID_2668_Energie_anion
 -----------------------------------
 Structure from the checkpoint file:  "JID_2668.chk"
 Charge = -1 Multiplicity = 2

                         Standard orientation:
 ---------------------------------------------------------------------
 Center     Atomic      Atomic             Coordinates (Angstroms)
 Number     Number       Type             X           Y           Z
 ---------------------------------------------------------------------
      1          6           0        2.706758    1.690683    0.189248
      2          6           0        3.794644    0.630284   -0.075984
      3          6           0        3.030567   -0.634604   -0.558548
      4          6           0        1.515968   -0.325194   -0.393286
      5          6           0        1.480290    0.859837    0.589687
      6          6           0        0.720158   -1.579738    0.002903
      7          7           0       -0.723323   -1.480705    0.118169
      8          6           0       -1.396547   -0.807354    1.241054
      9          6           0       -2.535764   -0.403942    0.269256
     10          6           0       -1.554829   -0.785177   -0.872776
     11          6           0       -3.023543    1.032117    0.317012
     12          8           0       -3.936937    1.333638   -0.731617
     13          1           0        2.485354    2.244094   -0.732930
     14          1           0        3.000725    2.425567    0.946261
     15          1           0        4.540606    0.972210   -0.800442
     16          1           0        4.333117    0.412199    0.853516
     17          1           0        3.307014   -1.505359    0.049042
     18          1           0        3.269129   -0.891779   -1.595716
     19          1           0        1.136347    0.035143   -1.359814
     20          1           0        1.593222    0.494315    1.620546
     21          1           0        0.545948    1.429385    0.544511
     22          1           0        0.943870   -2.367173   -0.732164
     23          1           0        1.093702   -1.947899    0.968845
     24          1           0       -1.654394   -1.471978    2.075291
     25          1           0       -0.869736    0.070400    1.645257
     26          1           0       -3.387421   -1.088158    0.317861
     27          1           0       -1.084099    0.109427   -1.320554
     28          1           0       -1.927246   -1.422118   -1.685623
     29          1           0       -3.568979    1.219792    1.248318
     30          1           0       -2.159135    1.718262    0.300725
     31          1           0       -3.465486    1.198025   -1.568572
 ---------------------------------------------------------------------

 SCF Done:  E(UB3LYP) =  -522.615564027     A.U. after   30 cycles

 The electronic state is 2-A.
 Alpha  occ. eigenvalues --  -19.02152 -14.19807 -10.11542 -10.09595 -10.08965
 Alpha  occ. eigenvalues --  -10.08866 -10.07741 -10.06329 -10.05976 -10.05946
 Alpha  occ. eigenvalues --  -10.05783 -10.05704  -0.92233  -0.84082  -0.73466
 Alpha  occ. eigenvalues --   -0.68029  -0.62348  -0.60457  -0.58133  -0.57584
 Alpha  occ. eigenvalues --   -0.51052  -0.46642  -0.45920  -0.44505  -0.41849
 Alpha  occ. eigenvalues --   -0.39887  -0.38054  -0.36648  -0.35858  -0.34519
 Alpha  occ. eigenvalues --   -0.33607  -0.31338  -0.30673  -0.29457  -0.29198
 Alpha  occ. eigenvalues --   -0.25852  -0.25283  -0.24160  -0.23643  -0.23280
 Alpha  occ. eigenvalues --   -0.22742  -0.22403  -0.22013  -0.21256  -0.20654
 Alpha  occ. eigenvalues --   -0.17684  -0.10955   0.04637
 Alpha virt. eigenvalues --    0.06770   0.07308   0.07768   0.08538   0.09144
 Alpha virt. eigenvalues --    0.09361   0.09818   0.10656   0.11398   0.11624
 Alpha virt. eigenvalues --    0.11894   0.12231   0.12734   0.13550   0.14086

  Beta  occ. eigenvalues --  -19.02116 -14.19804 -10.11521 -10.09588 -10.08925
  Beta  occ. eigenvalues --  -10.08857 -10.07738 -10.06317 -10.05959 -10.05926
  Beta  occ. eigenvalues --  -10.05765 -10.05678  -0.92157  -0.84066  -0.73436
  Beta  occ. eigenvalues --   -0.68003  -0.62304  -0.60410  -0.58075  -0.57535
  Beta  occ. eigenvalues --   -0.51004  -0.46566  -0.45869  -0.44444  -0.41786
  Beta  occ. eigenvalues --   -0.39857  -0.37995  -0.36599  -0.35828  -0.34483
  Beta  occ. eigenvalues --   -0.33569  -0.31308  -0.30634  -0.29425  -0.29164
  Beta  occ. eigenvalues --   -0.25824  -0.25254  -0.24123  -0.23604  -0.23238
  Beta  occ. eigenvalues --   -0.22702  -0.22372  -0.21975  -0.21224  -0.20620
  Beta  occ. eigenvalues --   -0.17642  -0.10940
  Beta virt. eigenvalues --    0.06820   0.07618   0.07872   0.08254   0.09140
  Beta virt. eigenvalues --    0.09385   0.09639   0.10292   0.10928   0.11654
  Beta virt. eigenvalues --    0.11998   0.12302   0.12448   0.13007   0.13813

 Mulliken charges and spin densities:
               1          2
     1  C    0.569984  -1.163955
     2  C   -0.213350  -0.074745
     3  C    1.302737  -2.078512
     4  C   -0.853871   1.706349
     5  C   -0.264442   0.110839
     6  C    0.046319  -0.798953
     7  N    0.032194   0.067666
     8  C   -0.186088  -0.199722
     9  C   -0.647579   0.834381
    10  C    0.289427  -0.721782
    11  C    1.075954  -1.562518
    12  O   -0.294859   0.053038
    13  H   -0.157973   0.312167
    14  H   -0.457328   0.616347
    15  H   -0.174311   0.318716
    16  H    0.004712   0.124392
    17  H   -0.093273   0.226411
    18  H   -0.128156   0.276252
    19  H   -0.132811   0.300765
    20  H   -0.126762   0.283352
    21  H    0.613527  -0.513872
    22  H   -0.000042   0.174527
    23  H    0.074861   0.087989
    24  H   -0.004573   0.158609
    25  H   -0.080039   0.178328
    26  H    0.164283   0.024803
    27  H   -0.390080   0.536681
    28  H   -0.436917   0.606426
    29  H    0.069658   0.082353
    30  H   -0.498433   0.684412
    31  H   -0.102769   0.349254
 Sum of Mulliken charges =  -1.00000   1.00000

 Dipole moment (field-independent basis, Debye):
    X=             -0.4403    Y=             -3.3008    Z=              3.9591  Tot=              5.1733
 Quadrupole moment (field-independent basis, Debye-Ang):
   XX=           -148.8910   YY=           -116.8937   ZZ=           -113.2603
   XY=              0.9760   XZ=             -6.6169   YZ=              0.8003

 Summary of Natural Population Analysis:

                                       Natural Population
                Natural  -----------------------------------------------
    Atom  No    Charge         Core      Valence    Rydberg      Total
 -----------------------------------------------------------------------
      C    1   -0.18941      0.99964     2.18166    0.00811     3.18941
      C    2   -0.19016      0.99965     2.18355    0.00696     3.19016
      C    3   -0.18953      0.99963     2.18105    0.00885     3.18953
      C    4   -0.12254      0.99959     2.11268    0.01027     3.12254
      C    5   -0.19337      0.99962     2.18422    0.00954     3.19337
      C    6   -0.07458      0.99959     2.06429    0.01070     3.07458
      N    7   -0.28188      0.99973     2.76902    0.01313     3.78188
      C    8   -0.07284      0.99962     2.06468    0.00854     3.07284
      C    9   -0.12924      0.99958     2.11894    0.01072     3.12924
      C   10   -0.08022      0.99963     2.06763    0.01296     3.08022
      C   11   -0.00775      0.99956     1.99485    0.01334     3.00775
      O   12   -0.36887      0.99990     3.36259    0.00638     4.36887
      H   13    0.09639      0.00000     0.40186    0.00175     0.40361
      H   14    0.09830      0.00000     0.40046    0.00124     0.40170
      H   15    0.09873      0.00000     0.39990    0.00138     0.40127
      H   16    0.09293      0.00000     0.40556    0.00151     0.40707
      H   17    0.09347      0.00000     0.40534    0.00119     0.40653
      H   18    0.10022      0.00000     0.39859    0.00119     0.39978
      H   19    0.09822      0.00000     0.39942    0.00236     0.40178
      H   20    0.09126      0.00000     0.40740    0.00134     0.40874
      H   21    0.10206      0.00000     0.39623    0.00171     0.39794
      H   22    0.09342      0.00000     0.40517    0.00141     0.40658
      H   23    0.09209      0.00000     0.40667    0.00124     0.40791
      H   24    0.08663      0.00000     0.41206    0.00132     0.41337
      H   25    0.08550      0.00000     0.41284    0.00167     0.41450
      H   26    0.09971      0.00000     0.39912    0.00117     0.40029
      H   27    0.08632      0.00000     0.41101    0.00267     0.41368
      H   28    0.09167      0.00000     0.40666    0.00167     0.40833
      H   29    0.08375      0.00000     0.41501    0.00123     0.41625
      H   30    0.07872      0.00000     0.41938    0.00190     0.42128
      H   31    0.23102      0.00000     0.26356    0.00541     0.26898
 =======================================================================
   * Total *   -0.00000     11.99573    34.85142    0.15285    47.00000

 Normal termination of Gaussian 16 at Wed Dec  9 18:09:26 2020.
