 Gaussian 16, Revision A.03,

 -----------------------------------------------------------
 # opt freq B3LYP/6-31G(d) empiricaldispersion=gd3bj scf=xqc
 -----------------------------------------------------------

 ------------------------------
 CID_25649071_JID_7404_neutraal
 ------------------------------
 Symbolic Z-matrix:
 Charge =  0 Multiplicity = 1

 SCF Done:  E(RB3LYP) =  -775.992730395     A.U. after   15 cycles
 SCF Done:  E(RB3LYP) =  -775.996061125     A.U. after   13 cycles
 SCF Done:  E(RB3LYP) =  -775.996324844     A.U. after   14 cycles
 SCF Done:  E(RB3LYP) =  -775.997694090     A.U. after   13 cycles
 SCF Done:  E(RB3LYP) =  -775.998492881     A.U. after   12 cycles
 SCF Done:  E(RB3LYP) =  -775.998655410     A.U. after   11 cycles
 SCF Done:  E(RB3LYP) =  -775.998689911     A.U. after   11 cycles
 SCF Done:  E(RB3LYP) =  -775.998716037     A.U. after   10 cycles
 SCF Done:  E(RB3LYP) =  -775.998730124     A.U. after    9 cycles
 SCF Done:  E(RB3LYP) =  -775.998733743     A.U. after    9 cycles
 SCF Done:  E(RB3LYP) =  -775.998734779     A.U. after    7 cycles
 SCF Done:  E(RB3LYP) =  -775.998734825     A.U. after    8 cycles
 SCF Done:  E(RB3LYP) =  -775.998734862     A.U. after    8 cycles
 SCF Done:  E(RB3LYP) =  -775.998734892     A.U. after    8 cycles
 SCF Done:  E(RB3LYP) =  -775.998734913     A.U. after    7 cycles
 Optimization completed.
    -- Stationary point found.
 Normal termination of Gaussian 16 at Fri Dec 11 12:04:15 2020.

 --------------------------------------------------------------------
 #N Geom=AllCheck Guess=TCheck SCRF=Check GenChk RB3LYP/6-31G(d) Freq
 --------------------------------------------------------------------

 Structure from the checkpoint file:  "JID_7404.chk"
 ------------------------------
 CID_25649071_JID_7404_neutraal
 ------------------------------
 Charge =  0 Multiplicity = 1

 SCF Done:  E(RB3LYP) =  -775.998734913     A.U. after    1 cycles

  Exact polarizability: 163.837  17.981 150.944  17.793 -15.253 102.531
 Approx polarizability: 247.538  36.444 245.421  42.019 -39.951 169.109

                      1                      2                      3
                      A                      A                      A
 Frequencies --     18.4767                38.7456                45.5499
 Red. masses --      6.8471                 4.9378                 4.4226
 Frc consts  --      0.0014                 0.0044                 0.0054
 IR Inten    --      2.1879                 2.5060                 0.4342

                      4                      5                      6
                      A                      A                      A
 Frequencies --     60.6267                65.7437                91.4616
 Red. masses --      4.2549                 3.4076                 4.7445
 Frc consts  --      0.0092                 0.0087                 0.0234
 IR Inten    --      6.1889                 1.5219                 3.0536

                      7                      8                      9
                      A                      A                      A
 Frequencies --    123.6730               131.4172               225.7594
 Red. masses --      4.4030                 7.0652                 1.5696
 Frc consts  --      0.0397                 0.0719                 0.0471
 IR Inten    --      3.2911                 3.0486                 4.9969

                     10                     11                     12
                      A                      A                      A
 Frequencies --    248.1732               285.2946               299.8604
 Red. masses --      2.5527                 4.4189                 3.2382
 Frc consts  --      0.0926                 0.2119                 0.1715
 IR Inten    --      2.5830                 0.8805                 0.6010

                     13                     14                     15
                      A                      A                      A
 Frequencies --    345.5676               362.0813               408.2147
 Red. masses --      3.4598                 2.5730                 4.8816
 Frc consts  --      0.2434                 0.1987                 0.4793
 IR Inten    --      3.1161                 1.3252                10.1083

                     16                     17                     18
                      A                      A                      A
 Frequencies --    424.0076               451.7135               483.7021
 Red. masses --      3.0300                 3.7001                 3.9721
 Frc consts  --      0.3210                 0.4448                 0.5475
 IR Inten    --      0.3999                 3.6809                 4.4179

                     19                     20                     21
                      A                      A                      A
 Frequencies --    565.2557               605.2355               637.9465
 Red. masses --      3.0648                 4.2997                 6.0330
 Frc consts  --      0.5770                 0.9280                 1.4466
 IR Inten    --     24.3286                 6.7918                 0.6026

                     22                     23                     24
                      A                      A                      A
 Frequencies --    663.2263               679.1070               714.5483
 Red. masses --      4.8405                 5.0082                 1.8642
 Frc consts  --      1.2545                 1.3609                 0.5608
 IR Inten    --      7.7990                16.7218                35.4185

                     25                     26                     27
                      A                      A                      A
 Frequencies --    730.1448               734.0105               781.6716
 Red. masses --     11.4304                 4.3201                 1.7041
 Frc consts  --      3.5903                 1.3714                 0.6135
 IR Inten    --      2.4629                 3.7076                22.3749

                     28                     29                     30
                      A                      A                      A
 Frequencies --    797.3659               843.6100               854.3764
 Red. masses --      1.3460                 3.3713                 1.2483
 Frc consts  --      0.5042                 1.4136                 0.5369
 IR Inten    --      7.4293                 6.8234                 1.1164

                     31                     32                     33
                      A                      A                      A
 Frequencies --    865.8537               923.0217               938.0701
 Red. masses --      1.5817                 1.7992                 1.7788
 Frc consts  --      0.6986                 0.9031                 0.9222
 IR Inten    --     10.0389                 3.6547                 2.7144

                     34                     35                     36
                      A                      A                      A
 Frequencies --    967.6009               972.2089               978.5269
 Red. masses --      3.0702                 1.3964                 3.0931
 Frc consts  --      1.6936                 0.7776                 1.7450
 IR Inten    --      1.6047                 2.5141                16.9471

                     37                     38                     39
                      A                      A                      A
 Frequencies --    988.6392              1001.2943              1024.7435
 Red. masses --      3.4714                 1.2731                 6.1018
 Frc consts  --      1.9991                 0.7520                 3.7752
 IR Inten    --      0.4157                 0.1111                 1.7425

                     40                     41                     42
                      A                      A                      A
 Frequencies --   1045.6669              1057.5765              1079.6291
 Red. masses --      6.2849                 2.2831                 3.0478
 Frc consts  --      4.0489                 1.5045                 2.0930
 IR Inten    --     14.7287                 2.5975                 6.0182

                     43                     44                     45
                      A                      A                      A
 Frequencies --   1113.6990              1118.9037              1125.7335
 Red. masses --      1.5613                 3.8357                 1.9858
 Frc consts  --      1.1410                 2.8293                 1.4827
 IR Inten    --      4.2211                41.9717                11.8430

                     46                     47                     48
                      A                      A                      A
 Frequencies --   1150.8211              1180.7793              1195.4484
 Red. masses --      1.9813                 2.0854                 1.1403
 Frc consts  --      1.5460                 1.7131                 0.9602
 IR Inten    --     38.9281                 5.3202                 2.0158

                     49                     50                     51
                      A                      A                      A
 Frequencies --   1196.6067              1210.0818              1293.3203
 Red. masses --      2.0045                 1.1333                 3.0703
 Frc consts  --      1.6910                 0.9777                 3.0259
 IR Inten    --     16.7579                 0.5618                49.5161

                     52                     53                     54
                      A                      A                      A
 Frequencies --   1299.2040              1330.8279              1336.2739
 Red. masses --      1.9921                 2.0309                 2.4955
 Frc consts  --      1.9811                 2.1193                 2.6254
 IR Inten    --      6.8277                74.3528                 4.9885

                     55                     56                     57
                      A                      A                      A
 Frequencies --   1346.8991              1365.0583              1386.2308
 Red. masses --      2.5829                 2.0225                 1.6980
 Frc consts  --      2.7608                 2.2204                 1.9224
 IR Inten    --     24.1859                 0.5291                 9.6690

                     58                     59                     60
                      A                      A                      A
 Frequencies --   1407.0645              1437.4176              1448.2433
 Red. masses --      1.2852                 1.2886                 3.4999
 Frc consts  --      1.4991                 1.5686                 4.3251
 IR Inten    --      3.0486                18.0458                81.7932

                     61                     62                     63
                      A                      A                      A
 Frequencies --   1472.8280              1497.7424              1502.9900
 Red. masses --      3.1188                 1.5664                 1.9475
 Frc consts  --      3.9861                 2.0703                 2.5920
 IR Inten    --     62.3594                19.5649                12.1016

                     64                     65                     66
                      A                      A                      A
 Frequencies --   1507.8969              1522.5481              1523.0768
 Red. masses --      1.2143                 1.1173                 2.0112
 Frc consts  --      1.6268                 1.5260                 2.7488
 IR Inten    --     12.5184                 7.8761                19.8170

                     67                     68                     69
                      A                      A                      A
 Frequencies --   1534.5836              1547.6133              1646.2457
 Red. masses --      1.0533                 2.3347                 5.7985
 Frc consts  --      1.4615                 3.2947                 9.2588
 IR Inten    --      3.6233                47.0766                 7.0517

                     70                     71                     72
                      A                      A                      A
 Frequencies --   1660.3214              1758.0285              3060.3493
 Red. masses --      5.6696                10.1654                 1.0352
 Frc consts  --      9.2084                18.5109                 5.7121
 IR Inten    --     25.0885               340.5512                15.7173

                     73                     74                     75
                      A                      A                      A
 Frequencies --   3093.3043              3100.3124              3126.5927
 Red. masses --      1.0637                 1.0679                 1.1030
 Frc consts  --      5.9968                 6.0478                 6.3528
 IR Inten    --     17.8306                 8.3122                19.5475

                     76                     77                     78
                      A                      A                      A
 Frequencies --   3141.3237              3160.3374              3192.3776
 Red. masses --      1.1002                 1.1049                 1.0859
 Frc consts  --      6.3966                 6.5019                 6.5202
 IR Inten    --     15.6625                16.1359                 1.4698

                     79                     80                     81
                      A                      A                      A
 Frequencies --   3197.8754              3201.9116              3210.1261
 Red. masses --      1.0976                 1.0890                 1.0924
 Frc consts  --      6.6135                 6.5780                 6.6327
 IR Inten    --      1.0299                 4.8987                14.9608

                     82                     83                     84
                      A                      A                      A
 Frequencies --   3217.2647              3226.8532              3325.8448
 Red. masses --      1.0952                 1.0962                 1.1006
 Frc consts  --      6.6791                 6.7250                 7.1728
 IR Inten    --     19.4381                 2.1336                 5.4048

 - Thermochemistry -
 -------------------
 Temperature   298.150 Kelvin.  Pressure   1.00000 Atm.
 Atom     1 has atomic number  6 and mass  12.00000

 Molecular mass:   231.11201 amu.
 Principal axes and moments of inertia in atomic units:
                           1         2         3
     Eigenvalues --  2641.825584930.925056483.00662
           X            0.99992   0.01103  -0.00541
           Y           -0.01090   0.99966   0.02356
           Z            0.00567  -0.02350   0.99971
 This molecule is an asymmetric top.
 Rotational symmetry number  1.
 Warning -- assumption of classical behavior for rotation
           may cause significant error
 Rotational temperatures (Kelvin)      0.03279     0.01757     0.01336
 Rotational constants (GHZ):           0.68314     0.36600     0.27838
 Zero-point vibrational energy     633604.3 (Joules/Mol)
                                  151.43505 (Kcal/Mol)
 Warning -- explicit consideration of  20 degrees of freedom as
           vibrations may cause significant error
 Vibrational temperatures:     26.58    55.75    65.54    87.23    94.59
          (Kelvin)            131.59   177.94   189.08   324.82   357.07
                              410.48   431.43   497.19   520.95   587.33
                              610.05   649.92   695.94   813.28   870.80
                              917.86   954.23   977.08  1028.08  1050.52
                             1056.08  1124.65  1147.23  1213.77  1229.26
                             1245.77  1328.02  1349.67  1392.16  1398.79
                             1407.88  1422.43  1440.64  1474.38  1504.48
                             1521.62  1553.35  1602.36  1609.85  1619.68
                             1655.77  1698.88  1719.98  1721.65  1741.04
                             1860.80  1869.26  1914.76  1922.60  1937.89
                             1964.01  1994.48  2024.45  2068.12  2083.70
                             2119.07  2154.92  2162.47  2169.53  2190.61
                             2191.37  2207.92  2226.67  2368.58  2388.83
                             2529.41  4403.16  4450.57  4460.66  4498.47
                             4519.66  4547.02  4593.12  4601.03  4606.84
                             4618.66  4628.93  4642.72  4785.15

 Zero-point correction=                           0.241327 (Hartree/Particle)
 Thermal correction to Energy=                    0.256264
 Thermal correction to Enthalpy=                  0.257208
 Thermal correction to Gibbs Free Energy=         0.196308
 Sum of electronic and zero-point Energies=           -775.757408
 Sum of electronic and thermal Energies=              -775.742471
 Sum of electronic and thermal Enthalpies=            -775.741527
 Sum of electronic and thermal Free Energies=         -775.802427

                     E (Thermal)             CV                S
                      KCal/Mol        Cal/Mol-Kelvin    Cal/Mol-Kelvin
 Total                  160.808             55.437            128.176
 Electronic               0.000              0.000              0.000
 Translational            0.889              2.981             42.215
 Rotational               0.889              2.981             32.801
 Vibrational            159.031             49.475             53.159
 Vibration     1          0.593              1.986              6.792
 Vibration     2          0.594              1.981              5.322
 Vibration     3          0.595              1.979              5.002
 Vibration     4          0.597              1.973              4.437
 Vibration     5          0.597              1.971              4.277
 Vibration     6          0.602              1.955              3.629
 Vibration     7          0.610              1.929              3.042
 Vibration     8          0.612              1.922              2.925
 Vibration     9          0.650              1.802              1.912
 Vibration    10          0.662              1.766              1.744
 Vibration    11          0.683              1.701              1.502
 Vibration    12          0.692              1.674              1.418
 Vibration    13          0.724              1.584              1.186
 Vibration    14          0.736              1.550              1.113
 Vibration    15          0.773              1.452              0.933
 Vibration    16          0.786              1.418              0.878
 Vibration    17          0.810              1.357              0.791
 Vibration    18          0.840              1.286              0.700
 Vibration    19          0.921              1.106              0.513
 Vibration    20          0.964              1.021              0.441

 Optimization completed.
    -- Stationary point found.
 Normal termination of Gaussian 16 at Fri Dec 11 12:15:37 2020.

 ----------------------------------------------------------------------
 # B3LYP/6-311++G(d,p) empiricaldispersion=gd3bj scf=xqc pop=npa geom=c
 heck
 ----------------------------------------------------------------------

 --------------------------------------
 CID_25649071_JID_7404_Energie_neutraal
 --------------------------------------
 Structure from the checkpoint file:  "JID_7404.chk"
 Charge =  0 Multiplicity = 1

 SCF Done:  E(RB3LYP) =  -776.205113874     A.U. after   15 cycles
 Normal termination of Gaussian 16 at Fri Dec 11 12:19:39 2020.

 ----------------------------------------------------------------------
 # B3LYP/6-311++G(d,p) empiricaldispersion=gd3bj scf=xqc pop=npa geom=c
 heck
 ----------------------------------------------------------------------

 ------------------------------------
 CID_25649071_JID_7404_Energie_kation
 ------------------------------------
 Structure from the checkpoint file:  "JID_7404.chk"
 Charge =  1 Multiplicity = 2

 SCF Done:  E(UB3LYP) =  -775.877744784     A.U. after   29 cycles
 Normal termination of Gaussian 16 at Fri Dec 11 12:30:11 2020.
 Gaussian 16:  ES64L-G16RevA.03 25-Dec-2016

 ----------------------------------------------------------------------
 # B3LYP/6-311++G(d,p) empiricaldispersion=gd3bj scf=xqc pop=npa geom=c
 heck
 ----------------------------------------------------------------------

 -----------------------------------
 CID_25649071_JID_7404_Energie_anion
 -----------------------------------
 Structure from the checkpoint file:  "JID_7404.chk"
 Charge = -1 Multiplicity = 2

                         Standard orientation:
 ---------------------------------------------------------------------
 Center     Atomic      Atomic             Coordinates (Angstroms)
 Number     Number       Type             X           Y           Z
 ---------------------------------------------------------------------
      1          6           0       -1.131140    2.577345    1.776139
      2          6           0       -1.398316    2.484639    0.275587
      3          7           0       -0.831911    1.254548   -0.310833
      4          6           0       -1.578968    0.042194   -0.153612
      5          6           0       -1.144206   -0.950204    0.730078
      6          6           0       -1.886195   -2.122389    0.874959
      7          6           0       -3.074181   -2.293008    0.164086
      8          6           0       -3.515856   -1.292354   -0.704722
      9          6           0       -2.767988   -0.128235   -0.869562
     10          6           0        0.472298    1.293061   -0.712587
     11          8           0        1.177200    2.293330   -0.616545
     12          6           0        1.065765    0.033170   -1.359142
     13          7           0        2.166764   -0.459432   -0.546393
     14          6           0        3.308708    0.143795   -0.159486
     15          7           0        3.980238   -0.680162    0.620402
     16          7           0        3.217846   -1.807451    0.709926
     17          7           0        2.129225   -1.691920    0.020550
     18          1           0       -1.553600    1.715585    2.303584
     19          1           0       -1.584391    3.486110    2.186504
     20          1           0       -0.054398    2.613413    1.964681
     21          1           0       -2.471869    2.476718    0.068585
     22          1           0       -0.946757    3.327894   -0.249140
     23          1           0       -0.221625   -0.812122    1.283440
     24          1           0       -1.533607   -2.897063    1.548635
     25          1           0       -3.653790   -3.203394    0.283672
     26          1           0       -4.437366   -1.423269   -1.264200
     27          1           0       -3.091335    0.647123   -1.557697
     28          1           0        0.367225   -0.791640   -1.477426
     29          1           0        1.448806    0.329366   -2.339809
     30          1           0        3.580451    1.147482   -0.444457
 ---------------------------------------------------------------------

 SCF Done:  E(UB3LYP) =  -776.202381805     A.U. after   33 cycles
 SCF Done:  E(UB3LYP) =  -776.202881419     a.u. after   10 cycles

 The electronic state is 2-A.
 Alpha  occ. eigenvalues --  -18.97995 -14.29675 -14.26146 -14.25094 -14.24267
 Alpha  occ. eigenvalues --  -14.22286 -10.15829 -10.12770 -10.11984 -10.10783
 Alpha  occ. eigenvalues --  -10.09793 -10.07096 -10.07019 -10.06793 -10.06530
 Alpha  occ. eigenvalues --  -10.06486 -10.06081  -1.02014  -0.93597  -0.84165
 Alpha  occ. eigenvalues --   -0.83663  -0.77211  -0.74434  -0.67546  -0.64956
 Alpha  occ. eigenvalues --   -0.64289  -0.62980  -0.55098  -0.54771  -0.52176
 Alpha  occ. eigenvalues --   -0.51283  -0.50224  -0.45476  -0.43770  -0.41761
 Alpha  occ. eigenvalues --   -0.39665  -0.38091  -0.37159  -0.36581  -0.36150
 Alpha  occ. eigenvalues --   -0.34759  -0.33354  -0.33063  -0.31931  -0.30792
 Alpha  occ. eigenvalues --   -0.30642  -0.28782  -0.27312  -0.26379  -0.26168
 Alpha  occ. eigenvalues --   -0.25744  -0.24984  -0.24505  -0.20240  -0.19083
 Alpha  occ. eigenvalues --   -0.18888  -0.17711  -0.17433  -0.15325  -0.15114
 Alpha  occ. eigenvalues --   -0.13547   0.04480
 Alpha virt. eigenvalues --    0.06475   0.07374   0.07683   0.08233   0.08738
 Alpha virt. eigenvalues --    0.09331   0.09697   0.10341   0.10846   0.11166
 Alpha virt. eigenvalues --    0.11346   0.12335   0.12370   0.12636   0.13223

  Beta  occ. eigenvalues --  -18.97891 -14.29575 -14.26003 -14.25066 -14.24284
  Beta  occ. eigenvalues --  -14.22304 -10.15622 -10.12693 -10.11989 -10.10773
  Beta  occ. eigenvalues --  -10.09626 -10.07128 -10.07014 -10.06805 -10.06471
  Beta  occ. eigenvalues --  -10.06377 -10.05911  -1.01874  -0.93361  -0.84018
  Beta  occ. eigenvalues --   -0.83523  -0.77062  -0.74253  -0.67428  -0.64757
  Beta  occ. eigenvalues --   -0.64132  -0.62785  -0.54973  -0.54691  -0.51894
  Beta  occ. eigenvalues --   -0.51132  -0.50086  -0.45288  -0.43629  -0.41509
  Beta  occ. eigenvalues --   -0.39502  -0.37954  -0.36913  -0.36403  -0.36023
  Beta  occ. eigenvalues --   -0.34689  -0.33265  -0.32870  -0.31874  -0.30698
  Beta  occ. eigenvalues --   -0.30494  -0.28650  -0.26996  -0.26235  -0.25770
  Beta  occ. eigenvalues --   -0.25512  -0.24869  -0.24377  -0.19926  -0.18783
  Beta  occ. eigenvalues --   -0.18519  -0.17576  -0.16956  -0.14973  -0.14892
  Beta  occ. eigenvalues --   -0.12932
  Beta virt. eigenvalues --    0.06808   0.07662   0.07991   0.08423   0.08691
  Beta virt. eigenvalues --    0.08932   0.09844   0.10075   0.10480   0.11033
  Beta virt. eigenvalues --    0.11450   0.11936   0.12405   0.12521   0.12681

 Mulliken charges and spin densities:
               1          2
     1  C   -0.474944   0.002913
     2  C    0.151626  -0.194977
     3  N    0.476551  -0.109896
     4  C   -0.638824   0.372462
     5  C   -0.298641   0.210920
     6  C   -0.294275   0.071917
     7  C    0.341553  -0.616580
     8  C    0.544792  -0.828112
     9  C   -0.465548   0.520608
    10  C    0.193535   0.097964
    11  O   -0.372483   0.057773
    12  C   -0.125142  -0.621493
    13  N    0.094117  -0.003032
    14  C   -0.132985   0.028868
    15  N   -0.131392  -0.004456
    16  N    0.034031  -0.012539
    17  N   -0.151206   0.120594
    18  H    0.146206  -0.011235
    19  H    0.128687  -0.000902
    20  H    0.179659   0.000968
    21  H   -0.073065   0.189959
    22  H    0.199386  -0.015130
    23  H    0.131267   0.038126
    24  H    0.116857   0.048020
    25  H    0.005252   0.110836
    26  H   -0.381008   0.546180
    27  H   -0.192564   0.341317
    28  H    0.343468  -0.128191
    29  H   -0.530346   0.772822
    30  H    0.175434   0.014295
 Sum of Mulliken charges =  -1.00000   1.00000

 Dipole moment (field-independent basis, Debye):
    X=             -2.7919    Y=              2.7605    Z=              1.4364  Tot=              4.1807
 Quadrupole moment (field-independent basis, Debye-Ang):
   XX=           -169.6698   YY=           -131.8681   ZZ=           -122.2444
   XY=              2.2087   XZ=             -7.1251   YZ=              4.6707

 Summary of Natural Population Analysis:

                                       Natural Population
                Natural  -----------------------------------------------
    Atom  No    Charge         Core      Valence    Rydberg      Total
 -----------------------------------------------------------------------
      C    1   -0.29232      0.99966     2.28905    0.00361     3.29232
      C    2   -0.08274      0.99962     2.07279    0.01033     3.08274
      N    3   -0.25357      0.99961     2.74238    0.01159     3.75357
      C    4    0.09057      0.99945     1.89822    0.01175     2.90943
      C    5   -0.10795      0.99951     2.10050    0.00795     3.10795
      C    6   -0.09007      0.99957     2.08116    0.00933     3.09007
      C    7   -0.07906      0.99957     2.06880    0.01069     3.07906
      C    8   -0.10881      0.99957     2.09938    0.00986     3.10881
      C    9   -0.09101      0.99951     2.08158    0.00993     3.09101
      C   10    0.36586      0.99964     1.61201    0.02249     2.63414
      O   11   -0.32417      0.99988     3.31889    0.00541     4.32417
      C   12   -0.12547      0.99957     2.11450    0.01140     3.12547
      N   13   -0.10454      0.99965     2.59025    0.01464     3.60454
      C   14    0.10583      0.99964     1.87593    0.01859     2.89417
      N   15   -0.17473      0.99974     2.66269    0.01230     3.67473
      N   16   -0.05143      0.99981     2.53407    0.01755     3.55143
      N   17   -0.02781      0.99978     2.50970    0.01833     3.52781
      H   18    0.10069      0.00000     0.39832    0.00099     0.39931
      H   19    0.09455      0.00000     0.40475    0.00070     0.40545
      H   20    0.10518      0.00000     0.39398    0.00085     0.39482
      H   21    0.09573      0.00000     0.40310    0.00117     0.40427
      H   22    0.10603      0.00000     0.39293    0.00104     0.39397
      H   23    0.10727      0.00000     0.39122    0.00151     0.39273
      H   24    0.09915      0.00000     0.40003    0.00082     0.40085
      H   25    0.09550      0.00000     0.40378    0.00072     0.40450
      H   26    0.09896      0.00000     0.40002    0.00102     0.40104
      H   27    0.10128      0.00000     0.39764    0.00108     0.39872
      H   28    0.11929      0.00000     0.37903    0.00168     0.38071
      H   29    0.11579      0.00000     0.38038    0.00383     0.38421
      H   30    0.11204      0.00000     0.38667    0.00129     0.38796
 =======================================================================
   * Total *   -0.00000     16.99377    43.78375    0.22247    61.00000

 Normal termination of Gaussian 16 at Fri Dec 11 14:30:19 2020.
