 Gaussian 16, Revision A.03,

 -----------------------------------------------------------
 # opt freq B3LYP/6-31G(d) empiricaldispersion=gd3bj scf=xqc
 -----------------------------------------------------------

 -------------------------------
 CID_137701402_JID_2689_neutraal
 -------------------------------
 Symbolic Z-matrix:
 Charge =  0 Multiplicity = 1

 SCF Done:  E(RB3LYP) =  -577.122659046     A.U. after   14 cycles
 SCF Done:  E(RB3LYP) =  -577.125636090     A.U. after   12 cycles
 SCF Done:  E(RB3LYP) =  -577.125888582     A.U. after   12 cycles
 SCF Done:  E(RB3LYP) =  -577.126429406     A.U. after   11 cycles
 SCF Done:  E(RB3LYP) =  -577.126531452     A.U. after   11 cycles
 SCF Done:  E(RB3LYP) =  -577.126599593     A.U. after   12 cycles
 SCF Done:  E(RB3LYP) =  -577.126642041     A.U. after   10 cycles
 SCF Done:  E(RB3LYP) =  -577.126655641     A.U. after   10 cycles
 SCF Done:  E(RB3LYP) =  -577.126656793     A.U. after    8 cycles
 SCF Done:  E(RB3LYP) =  -577.126657303     A.U. after    8 cycles
 SCF Done:  E(RB3LYP) =  -577.126657365     A.U. after    7 cycles
 Optimization completed.
    -- Stationary point found.

 1\1\GINC-NODE366\FOpt\RB3LYP\6-31G(d)\C9H14O3\VSC10255\09-Dec-2020\0\\
 # opt freq B3LYP/6-31G(d) empiricaldispersion=gd3bj scf=xqc\\CID_13770
 1402_JID_2689_neutraal\\0,1\C,1.0195741786,0.0861221768,0.0317425979\C
 ,0.6114399636,-1.3466158984,0.3856871747\C,0.9955346543,-1.7885635245,
 1.8070118301\C,0.7004029835,-3.2822984774,2.012002109\C,1.0907184511,-
 3.7678283982,3.4199991971\C,0.4558542693,-2.9105721506,4.4985897115\O,
 -0.1733006226,-3.3684092678,5.4300678301\C,0.6771903068,-1.4023611667,
 4.3133242221\C,0.2755750349,-0.9646796383,2.8855368983\C,-0.026955919,

 Normal termination of Gaussian 16 at Wed Dec  9 17:53:34 2020.

 --------------------------------------------------------------------
 #N Geom=AllCheck Guess=TCheck SCRF=Check GenChk RB3LYP/6-31G(d) Freq
 --------------------------------------------------------------------

 Structure from the checkpoint file:  "JID_2689.chk"
 -------------------------------
 CID_137701402_JID_2689_neutraal
 -------------------------------
 Charge =  0 Multiplicity = 1

 SCF Done:  E(RB3LYP) =  -577.126657365     A.U. after    1 cycles

  Exact polarizability: 113.385   1.261  95.673  -0.837   0.236  83.709
 Approx polarizability: 148.798   2.366 127.649  -1.312   3.134 139.759

                      1                      2                      3
                      A                      A                      A
 Frequencies --     45.4506                70.9711                88.9868
 Red. masses --      5.8693                 4.9402                 2.9392
 Frc consts  --      0.0071                 0.0147                 0.0137
 IR Inten    --      1.4587                 1.1295                 0.5821

                      4                      5                      6
                      A                      A                      A
 Frequencies --    102.5084               138.4217               171.0447
 Red. masses --      2.9099                 3.4978                 2.2305
 Frc consts  --      0.0180                 0.0395                 0.0384
 IR Inten    --      0.9191                 0.7040                 0.1824

                      7                      8                      9
                      A                      A                      A
 Frequencies --    201.5104               249.3566               267.6911
 Red. masses --      3.2005                 1.4870                 2.3485
 Frc consts  --      0.0766                 0.0545                 0.0992
 IR Inten    --      2.8533                 0.1716                 0.1104

                     10                     11                     12
                      A                      A                      A
 Frequencies --    305.9464               357.9167               386.6782
 Red. masses --      5.5450                 3.8783                 2.7525
 Frc consts  --      0.3058                 0.2927                 0.2425
 IR Inten    --      0.3549                 1.2352                 1.5763

                     13                     14                     15
                      A                      A                      A
 Frequencies --    450.4771               473.8714               484.7219
 Red. masses --      2.4970                 2.3731                 3.3528
 Frc consts  --      0.2986                 0.3140                 0.4641
 IR Inten    --      2.2391                 1.1803                 3.6548

                     16                     17                     18
                      A                      A                      A
 Frequencies --    537.6806               596.6918               643.6715
 Red. masses --      3.7654                 1.7142                 2.8467
 Frc consts  --      0.6414                 0.3596                 0.6949
 IR Inten    --     13.7503                79.1968                57.8839

                     19                     20                     21
                      A                      A                      A
 Frequencies --    685.6663               735.2621               769.5878
 Red. masses --      2.9095                 2.8992                 1.6919
 Frc consts  --      0.8059                 0.9234                 0.5904
 IR Inten    --     22.5515                10.6613                 5.6990

                     22                     23                     24
                      A                      A                      A
 Frequencies --    802.2731               856.0681               865.8522
 Red. masses --      1.5792                 2.9099                 2.2345
 Frc consts  --      0.5989                 1.2564                 0.9870
 IR Inten    --      8.4646                 0.5297                 2.1469

                     25                     26                     27
                      A                      A                      A
 Frequencies --    914.7908               933.5705               974.0703
 Red. masses --      1.6007                 2.5094                 1.9198
 Frc consts  --      0.7892                 1.2886                 1.0732
 IR Inten    --      4.3139                 4.2034                11.5986

                     28                     29                     30
                      A                      A                      A
 Frequencies --    989.5130              1037.5738              1058.8057
 Red. masses --      2.0569                 1.7609                 2.4103
 Frc consts  --      1.1866                 1.1169                 1.5920
 IR Inten    --      6.8033                 0.3836                 2.6225

                     31                     32                     33
                      A                      A                      A
 Frequencies --   1072.3176              1093.8555              1120.3299
 Red. masses --      2.3210                 1.5975                 2.3733
 Frc consts  --      1.5724                 1.1262                 1.7551
 IR Inten    --      1.0538                10.9439                 3.2524

                     34                     35                     36
                      A                      A                      A
 Frequencies --   1138.2793              1160.4411              1183.1747
 Red. masses --      1.5902                 1.9802                 2.4106
 Frc consts  --      1.2139                 1.5711                 1.9882
 IR Inten    --     15.7973                41.1360                24.3040

                     37                     38                     39
                      A                      A                      A
 Frequencies --   1214.3844              1256.6860              1275.4250
 Red. masses --      2.1480                 1.4477                 1.3370
 Frc consts  --      1.8663                 1.3470                 1.2814
 IR Inten    --    190.6878                 1.7521                 5.5425

                     40                     41                     42
                      A                      A                      A
 Frequencies --   1297.7182              1313.9900              1326.4314
 Red. masses --      1.2870                 1.3019                 1.2404
 Frc consts  --      1.2770                 1.3243                 1.2858
 IR Inten    --      4.9644                 1.8976                 1.9122

                     43                     44                     45
                      A                      A                      A
 Frequencies --   1347.7847              1358.4636              1382.1728
 Red. masses --      1.2851                 1.3228                 1.6757
 Frc consts  --      1.3754                 1.4383                 1.8862
 IR Inten    --      9.8753                 4.1328                14.8360

                     46                     47                     48
                      A                      A                      A
 Frequencies --   1388.9210              1394.7680              1409.0555
 Red. masses --      2.2561                 1.4636                 1.4779
 Frc consts  --      2.5643                 1.6775                 1.7289
 IR Inten    --     49.1228                 5.2974                 2.0137

                     49                     50                     51
                      A                      A                      A
 Frequencies --   1419.2879              1445.1022              1497.0564
 Red. masses --      1.5943                 1.2488                 1.0910
 Frc consts  --      1.8922                 1.5365                 1.4406
 IR Inten    --      1.8007                 2.1495                 8.0920

                     52                     53                     54
                      A                      A                      A
 Frequencies --   1513.9601              1521.6041              1529.7081
 Red. masses --      1.0776                 1.0795                 1.0657
 Frc consts  --      1.4553                 1.4725                 1.4693
 IR Inten    --      1.6324                 3.5761                 5.7090

                     55                     56                     57
                      A                      A                      A
 Frequencies --   1534.1250              1539.8388              1819.2810
 Red. masses --      1.0644                 1.0634                11.7324
 Frc consts  --      1.4759                 1.4856                22.8791
 IR Inten    --      0.6090                 6.9330               166.6129

                     58                     59                     60
                      A                      A                      A
 Frequencies --   1857.6629              2992.9328              3026.9329
 Red. masses --      9.7983                 1.0819                 1.0629
 Frc consts  --     19.9220                 5.7097                 5.7377
 IR Inten    --    324.1874                14.7301                 9.9935

                     61                     62                     63
                      A                      A                      A
 Frequencies --   3028.8582              3038.7973              3048.7215
 Red. masses --      1.0672                 1.0618                 1.0382
 Frc consts  --      5.7683                 5.7770                 5.6853
 IR Inten    --      7.6999                49.3694                23.5689

                     64                     65                     66
                      A                      A                      A
 Frequencies --   3057.9101              3061.4277              3065.2245
 Red. masses --      1.0744                 1.1010                 1.0687
 Frc consts  --      5.9191                 6.0800                 5.9158
 IR Inten    --      2.3695                13.1424                23.3753

                     67                     68                     69
                      A                      A                      A
 Frequencies --   3083.8045              3106.8325              3113.8426
 Red. masses --      1.1010                 1.1040                 1.1012
 Frc consts  --      6.1692                 6.2785                 6.2909
 IR Inten    --     40.9197                33.5787                38.7383

                     70                     71                     72
                      A                      A                      A
 Frequencies --   3122.8832              3124.4676              3690.0994
 Red. masses --      1.1017                 1.0951                 1.0640
 Frc consts  --      6.3303                 6.2985                 8.5362
 IR Inten    --     41.9857                17.1050                55.7623

 - Thermochemistry -
 -------------------
 Temperature   298.150 Kelvin.  Pressure   1.00000 Atm.
 Atom     1 has atomic number  6 and mass  12.00000

 Molecular mass:   170.09429 amu.
 Principal axes and moments of inertia in atomic units:
                           1         2         3
     Eigenvalues --  1337.011992855.629373749.39654
           X            0.99981  -0.01949  -0.00278
           Y            0.01946   0.99975  -0.01091
           Z            0.00299   0.01085   0.99994
 This molecule is an asymmetric top.
 Rotational symmetry number  1.
 Warning -- assumption of classical behavior for rotation
           may cause significant error
 Rotational temperatures (Kelvin)      0.06478     0.03033     0.02310
 Rotational constants (GHZ):           1.34983     0.63199     0.48134
 Zero-point vibrational energy     587194.1 (Joules/Mol)
                                  140.34276 (Kcal/Mol)
 Warning -- explicit consideration of  17 degrees of freedom as
           vibrations may cause significant error
 Vibrational temperatures:     65.39   102.11   128.03   147.49   199.16
          (Kelvin)            246.10   289.93   358.77   385.15   440.19
                              514.96   556.34   648.14   681.80   697.41
                              773.60   858.51   926.10   986.52  1057.88
                             1107.27  1154.29  1231.69  1245.77  1316.18
                             1343.20  1401.47  1423.69  1492.84  1523.39
                             1542.83  1573.81  1611.90  1637.73  1669.62
                             1702.32  1747.23  1808.09  1835.05  1867.13
                             1890.54  1908.44  1939.16  1954.53  1988.64
                             1998.35  2006.76  2027.32  2042.04  2079.18
                             2153.93  2178.25  2189.25  2200.91  2207.26
                             2215.48  2617.54  2672.76  4306.16  4355.08
                             4357.85  4372.15  4386.43  4399.65  4404.71
                             4410.17  4436.91  4470.04  4480.13  4493.13
                             4495.41  5309.23

 Zero-point correction=                           0.223650 (Hartree/Particle)
 Thermal correction to Energy=                    0.235759
 Thermal correction to Enthalpy=                  0.236703
 Thermal correction to Gibbs Free Energy=         0.184853
 Sum of electronic and zero-point Energies=           -576.903007
 Sum of electronic and thermal Energies=              -576.890899
 Sum of electronic and thermal Enthalpies=            -576.889954
 Sum of electronic and thermal Free Energies=         -576.941805

                     E (Thermal)             CV                S
                      KCal/Mol        Cal/Mol-Kelvin    Cal/Mol-Kelvin
 Total                  147.941             45.060            109.129
 Electronic               0.000              0.000              0.000
 Translational            0.889              2.981             41.301
 Rotational               0.889              2.981             31.038
 Vibrational            146.163             39.098             36.789
 Vibration     1          0.595              1.979              5.006
 Vibration     2          0.598              1.968              4.126
 Vibration     3          0.602              1.957              3.682
 Vibration     4          0.605              1.947              3.406
 Vibration     5          0.614              1.915              2.826
 Vibration     6          0.626              1.878              2.424
 Vibration     7          0.638              1.838              2.119
 Vibration     8          0.662              1.764              1.735
 Vibration     9          0.673              1.732              1.611
 Vibration    10          0.696              1.662              1.384
 Vibration    11          0.733              1.559              1.131
 Vibration    12          0.755              1.499              1.013
 Vibration    13          0.809              1.360              0.794
 Vibration    14          0.831              1.308              0.727
 Vibration    15          0.841              1.284              0.697
 Vibration    16          0.893              1.167              0.570
 Vibration    17          0.955              1.039              0.455

 Optimization completed.
    -- Stationary point found.

 1\1\GINC-NODE366\Freq\RB3LYP\6-31G(d)\C9H14O3\VSC10255\09-Dec-2020\0\\
 #N Geom=AllCheck Guess=TCheck SCRF=Check GenChk RB3LYP/6-31G(d) Freq\\
 CID_137701402_JID_2689_neutraal\\0,1\C,1.0195741786,0.0861221768,0.031
 7425979\C,0.6114399636,-1.3466158984,0.3856871747\C,0.9955346543,-1.78
 85635245,1.8070118301\C,0.7004029835,-3.2822984774,2.012002109\C,1.090
 7184511,-3.7678283982,3.4199991971\C,0.4558542693,-2.9105721506,4.4985
 897115\O,-0.1733006226,-3.3684092678,5.4300678301\C,0.6771903068,-1.40
 23611667,4.3133242221\C,0.2755750349,-0.9646796383,2.8855368983\C,-0.0

 Normal termination of Gaussian 16 at Wed Dec  9 17:59:27 2020.

 ----------------------------------------------------------------------
 # B3LYP/6-311++G(d,p) empiricaldispersion=gd3bj scf=xqc pop=npa geom=c
 heck
 ----------------------------------------------------------------------

 ---------------------------------------
 CID_137701402_JID_2689_Energie_neutraal
 ---------------------------------------
 Structure from the checkpoint file:  "JID_2689.chk"
 Charge =  0 Multiplicity = 1

 SCF Done:  E(RB3LYP) =  -577.303112001     A.U. after   15 cycles
 Normal termination of Gaussian 16 at Wed Dec  9 18:02:17 2020.

 ----------------------------------------------------------------------
 # B3LYP/6-311++G(d,p) empiricaldispersion=gd3bj scf=xqc pop=npa geom=c
 heck
 ----------------------------------------------------------------------

 -------------------------------------
 CID_137701402_JID_2689_Energie_kation
 -------------------------------------
 Structure from the checkpoint file:  "JID_2689.chk"
 Charge =  1 Multiplicity = 2

 SCF Done:  E(UB3LYP) =  -576.965168511     A.U. after   22 cycles
 Normal termination of Gaussian 16 at Wed Dec  9 18:07:26 2020.
 Gaussian 16:  ES64L-G16RevA.03 25-Dec-2016

 ------------------------------------
 CID_137701402_JID_2689_Energie_anion
 ------------------------------------
 Structure from the checkpoint file:  "JID_2689.chk"
 Charge = -1 Multiplicity = 2

                         Standard orientation:
 ---------------------------------------------------------------------
 Center     Atomic      Atomic             Coordinates (Angstroms)
 Number     Number       Type             X           Y           Z
 ---------------------------------------------------------------------
      1          6           0        3.461043   -1.625827   -0.200333
      2          6           0        2.998738   -0.272733    0.347390
      3          6           0        1.671952    0.235416   -0.239494
      4          6           0        1.376585    1.665408    0.238259
      5          6           0        0.063047    2.217470   -0.345169
      6          6           0       -1.099332    1.279234   -0.080810
      7          8           0       -2.148011    1.639316    0.412865
      8          6           0       -0.837614   -0.176546   -0.493392
      9          6           0        0.491918   -0.683298    0.112398
     10          6           0       -2.033124   -1.041527   -0.152262
     11          8           0       -2.863914   -1.422323   -0.944183
     12          8           0       -2.072805   -1.353737    1.164195
     13          1           0        2.773217   -2.434240    0.069239
     14          1           0        4.447384   -1.890108    0.195688
     15          1           0        3.536416   -1.602854   -1.294377
     16          1           0        2.905245   -0.328394    1.441310
     17          1           0        3.773752    0.478821    0.145634
     18          1           0        1.772855    0.257017   -1.337042
     19          1           0        2.204433    2.332491   -0.029942
     20          1           0        1.313071    1.669126    1.335422
     21          1           0        0.169005    2.320117   -1.435434
     22          1           0       -0.188062    3.200557    0.061963
     23          1           0       -0.755123   -0.185538   -1.587841
     24          1           0        0.672618   -1.702557   -0.243858
     25          1           0        0.387362   -0.741519    1.202521
     26          1           0       -2.893608   -1.864550    1.294186
 ---------------------------------------------------------------------

 SCF Done:  E(UB3LYP) =  -577.297101586     A.U. after   31 cycles

 The electronic state is 2-A.
 Alpha  occ. eigenvalues --  -19.07270 -19.01422 -18.98183 -10.20422 -10.12599
 Alpha  occ. eigenvalues --  -10.08149 -10.06620 -10.06562 -10.06053 -10.05992
 Alpha  occ. eigenvalues --  -10.05952 -10.05328  -1.01177  -0.92167  -0.91969
 Alpha  occ. eigenvalues --   -0.73397  -0.67428  -0.65508  -0.60298  -0.55259
 Alpha  occ. eigenvalues --   -0.51641  -0.50152  -0.46074  -0.43548  -0.38967
 Alpha  occ. eigenvalues --   -0.37935  -0.36411  -0.35263  -0.34687  -0.33608
 Alpha  occ. eigenvalues --   -0.31837  -0.31592  -0.31162  -0.29583  -0.28692
 Alpha  occ. eigenvalues --   -0.27144  -0.26339  -0.24921  -0.24557  -0.23668
 Alpha  occ. eigenvalues --   -0.22606  -0.22072  -0.21572  -0.20581  -0.17832
 Alpha  occ. eigenvalues --   -0.12731   0.04516
 Alpha virt. eigenvalues --    0.07257   0.07360   0.08350   0.09043   0.09833
 Alpha virt. eigenvalues --    0.10119   0.10609   0.10909   0.11550   0.11908
 Alpha virt. eigenvalues --    0.13320   0.13927   0.14431   0.14657   0.14852

  Beta  occ. eigenvalues --  -19.07263 -19.01415 -18.97934 -10.20421 -10.12371
  Beta  occ. eigenvalues --  -10.08163 -10.06581 -10.06540 -10.06021 -10.05972
  Beta  occ. eigenvalues --  -10.05960 -10.05291  -1.01163  -0.92148  -0.91505
  Beta  occ. eigenvalues --   -0.73300  -0.67344  -0.65429  -0.60167  -0.55184
  Beta  occ. eigenvalues --   -0.51480  -0.50079  -0.45947  -0.43286  -0.38950
  Beta  occ. eigenvalues --   -0.37870  -0.36300  -0.35112  -0.34571  -0.33426
  Beta  occ. eigenvalues --   -0.31649  -0.31452  -0.31068  -0.29427  -0.28649
  Beta  occ. eigenvalues --   -0.27013  -0.26174  -0.24781  -0.24294  -0.23331
  Beta  occ. eigenvalues --   -0.22481  -0.21950  -0.21348  -0.20428  -0.17800
  Beta  occ. eigenvalues --   -0.12539
  Beta virt. eigenvalues --    0.07031   0.07669   0.08529   0.08882   0.09996
  Beta virt. eigenvalues --    0.10173   0.10542   0.11251   0.11623   0.12023
  Beta virt. eigenvalues --    0.12191   0.13598   0.14053   0.14706   0.14905

 Mulliken charges and spin densities:
               1          2
     1  C    1.145588  -1.830988
     2  C   -1.297256   1.164359
     3  C    0.091924   0.306412
     4  C   -0.085233  -0.109513
     5  C   -0.182821  -0.193417
     6  C   -0.008118  -0.119292
     7  O   -0.331781   0.088670
     8  C    0.092938   0.503652
     9  C    1.106963  -2.107614
    10  C    0.436751  -0.637818
    11  O   -0.285761   0.014572
    12  O   -0.153439   0.013402
    13  H   -0.136628   0.277966
    14  H   -0.346852   0.483533
    15  H   -0.240704   0.384407
    16  H    0.056451   0.047606
    17  H   -0.326138   0.481697
    18  H   -0.134588   0.302407
    19  H   -0.433821   0.613790
    20  H    0.078346   0.048643
    21  H   -0.289565   0.458415
    22  H    0.136964   0.043005
    23  H   -0.213737   0.478024
    24  H    0.139448   0.008056
    25  H   -0.015132   0.207848
    26  H    0.196200   0.072176
 Sum of Mulliken charges =  -1.00000   1.00000

 Dipole moment (field-independent basis, Debye):
    X=             -2.8589    Y=             -1.7312    Z=              3.8101  Tot=              5.0683
 Quadrupole moment (field-independent basis, Debye-Ang):
   XX=           -137.7514   YY=           -107.5264   ZZ=            -99.5564
   XY=              4.9527   XZ=              2.1024   YZ=             -1.3257

 Summary of Natural Population Analysis:

                                       Natural Population
                Natural  -----------------------------------------------
    Atom  No    Charge         Core      Valence    Rydberg      Total
 -----------------------------------------------------------------------
      C    1   -0.28312      0.99967     2.27916    0.00430     3.28312
      C    2   -0.18527      0.99962     2.17638    0.00927     3.18527
      C    3   -0.11218      0.99958     2.10142    0.01118     3.11218
      C    4   -0.18262      0.99961     2.17344    0.00957     3.18262
      C    5   -0.23507      0.99959     2.22611    0.00937     3.23507
      C    6    0.32582      0.99965     1.65242    0.02212     2.67418
      O    7   -0.27024      0.99987     3.26405    0.00632     4.27024
      C    8   -0.19882      0.99950     2.18771    0.01162     3.19882
      C    9   -0.18409      0.99960     2.17394    0.01055     3.18409
      C   10    0.42206      0.99969     1.55115    0.02709     2.57794
      O   11   -0.30776      0.99987     3.30173    0.00617     4.30776
      O   12   -0.34364      0.99987     3.33753    0.00623     4.34364
      H   13    0.09507      0.00000     0.40369    0.00124     0.40493
      H   14    0.09753      0.00000     0.40137    0.00110     0.40247
      H   15    0.09859      0.00000     0.39991    0.00150     0.40141
      H   16    0.09101      0.00000     0.40785    0.00113     0.40899
      H   17    0.09888      0.00000     0.39965    0.00147     0.40112
      H   18    0.09760      0.00000     0.39861    0.00379     0.40240
      H   19    0.10367      0.00000     0.39456    0.00177     0.39633
      H   20    0.09269      0.00000     0.40601    0.00130     0.40731
      H   21    0.11061      0.00000     0.38697    0.00242     0.38939
      H   22    0.10632      0.00000     0.39269    0.00099     0.39368
      H   23    0.12198      0.00000     0.37614    0.00188     0.37802
      H   24    0.10363      0.00000     0.39505    0.00131     0.39637
      H   25    0.10143      0.00000     0.39687    0.00170     0.39857
      H   26    0.23592      0.00000     0.26035    0.00373     0.26408
 =======================================================================
   * Total *   -0.00000     11.99612    33.84477    0.15911    46.00000

 Normal termination of Gaussian 16 at Wed Dec  9 18:13:59 2020.
