 Gaussian 16, Revision A.03,

 -----------------------------------------------------------
 # opt freq B3LYP/6-31G(d) empiricaldispersion=gd3bj scf=xqc
 -----------------------------------------------------------

 ------------------------------
 CID_22220590_JID_5585_neutraal
 ------------------------------
 Symbolic Z-matrix:
 Charge =  0 Multiplicity = 1

 SCF Done:  E(RB3LYP) =  -1084.72580193     A.U. after   14 cycles
 SCF Done:  E(RB3LYP) =  -1084.73004347     A.U. after   12 cycles
 SCF Done:  E(RB3LYP) =  -1084.73117467     A.U. after   12 cycles
 SCF Done:  E(RB3LYP) =  -1084.73130139     A.U. after   12 cycles
 SCF Done:  E(RB3LYP) =  -1084.73174412     A.U. after   12 cycles
 SCF Done:  E(RB3LYP) =  -1084.73184383     A.U. after   10 cycles
 SCF Done:  E(RB3LYP) =  -1084.73185814     A.U. after   10 cycles
 SCF Done:  E(RB3LYP) =  -1084.73186275     A.U. after   10 cycles
 SCF Done:  E(RB3LYP) =  -1084.73186432     A.U. after    9 cycles
 SCF Done:  E(RB3LYP) =  -1084.73186483     A.U. after    8 cycles
 SCF Done:  E(RB3LYP) =  -1084.73186507     A.U. after    8 cycles
 SCF Done:  E(RB3LYP) =  -1084.73186508     A.U. after    8 cycles
 SCF Done:  E(RB3LYP) =  -1084.73186506     A.U. after    7 cycles
 Optimization completed.
    -- Stationary point found.
 Normal termination of Gaussian 16 at Thu Dec 10 16:28:57 2020.

 --------------------------------------------------------------------
 #N Geom=AllCheck Guess=TCheck SCRF=Check GenChk RB3LYP/6-31G(d) Freq
 --------------------------------------------------------------------

 Structure from the checkpoint file:  "JID_5585.chk"
 ------------------------------
 CID_22220590_JID_5585_neutraal
 ------------------------------
 Charge =  0 Multiplicity = 1

 SCF Done:  E(RB3LYP) =  -1084.73186506     A.U. after    1 cycles

  Exact polarizability: 184.588  -2.382 119.320  -8.468  10.950  94.382
 Approx polarizability: 243.281   1.458 211.362 -26.667  28.574 146.945

                      1                      2                      3
                      A                      A                      A
 Frequencies --     23.9371                42.0373                48.3745
 Red. masses --      4.6909                 4.8192                 4.2323
 Frc consts  --      0.0016                 0.0050                 0.0058
 IR Inten    --      6.3021                 4.0737                 1.0257

                      4                      5                      6
                      A                      A                      A
 Frequencies --     77.1093                98.5850               146.1303
 Red. masses --      4.2235                 6.2974                 3.3363
 Frc consts  --      0.0148                 0.0361                 0.0420
 IR Inten    --      0.2446                 7.1192                 4.8255

                      7                      8                      9
                      A                      A                      A
 Frequencies --    190.8866               209.9890               229.9253
 Red. masses --      3.5256                 1.2091                 3.2969
 Frc consts  --      0.0757                 0.0314                 0.1027
 IR Inten    --      3.2308                 0.1490                 2.0753

                     10                     11                     12
                      A                      A                      A
 Frequencies --    264.1595               284.0851               300.6719
 Red. masses --      5.3420                 3.6319                 1.8182
 Frc consts  --      0.2196                 0.1727                 0.0968
 IR Inten    --      2.3648                 2.1431                21.3069

                     13                     14                     15
                      A                      A                      A
 Frequencies --    325.5634               337.6795               347.6311
 Red. masses --      2.2117                 4.1401                 3.8679
 Frc consts  --      0.1381                 0.2781                 0.2754
 IR Inten    --      8.8369                 0.9259                 0.9700

                     16                     17                     18
                      A                      A                      A
 Frequencies --    399.4095               420.9301               460.3412
 Red. masses --      4.8602                 3.1542                 4.5660
 Frc consts  --      0.4568                 0.3293                 0.5701
 IR Inten    --     25.0591                 1.9480                 3.5321

                     19                     20                     21
                      A                      A                      A
 Frequencies --    489.4948               500.5310               531.1506
 Red. masses --      5.7849                 2.9931                 2.9971
 Frc consts  --      0.8167                 0.4418                 0.4982
 IR Inten    --     18.3696                20.9948                37.2204

                     22                     23                     24
                      A                      A                      A
 Frequencies --    556.3346               586.6326               649.5899
 Red. masses --      2.1882                 3.1614                 3.3082
 Frc consts  --      0.3990                 0.6410                 0.8225
 IR Inten    --     32.6652                73.7243                23.3915

                     25                     26                     27
                      A                      A                      A
 Frequencies --    662.0837               683.2075               734.2233
 Red. masses --      1.3287                 3.6195                 4.9696
 Frc consts  --      0.3432                 0.9954                 1.5784
 IR Inten    --    168.4785                 8.0926                93.8012

                     28                     29                     30
                      A                      A                      A
 Frequencies --    740.7954               780.7175               840.1193
 Red. masses --      4.4458                 2.8139                 2.8287
 Frc consts  --      1.4375                 1.0105                 1.1763
 IR Inten    --      2.6702                13.3564                47.7666

                     31                     32                     33
                      A                      A                      A
 Frequencies --    843.6574               858.0259               882.8268
 Red. masses --      1.4047                 1.7768                 2.8149
 Frc consts  --      0.5891                 0.7707                 1.2926
 IR Inten    --     13.0650                17.9495                61.9184

                     34                     35                     36
                      A                      A                      A
 Frequencies --    892.9886               917.4802               970.7898
 Red. masses --      1.5401                 2.9629                 1.2942
 Frc consts  --      0.7236                 1.4695                 0.7186
 IR Inten    --     58.9092                36.9896                 2.1466

                     37                     38                     39
                      A                      A                      A
 Frequencies --    975.3827               992.1722               997.7939
 Red. masses --      1.3041                 1.6919                 1.3886
 Frc consts  --      0.7310                 0.9813                 0.8145
 IR Inten    --      1.8737                34.7381                42.4630

                     40                     41                     42
                      A                      A                      A
 Frequencies --   1000.7093              1040.6153              1073.5785
 Red. masses --      1.4063                 2.7945                 2.9307
 Frc consts  --      0.8297                 1.7829                 1.9902
 IR Inten    --     44.0941                 9.5273                24.9010

                     43                     44                     45
                      A                      A                      A
 Frequencies --   1116.9579              1138.9107              1147.2043
 Red. masses --      2.1783                 5.2419                 1.4976
 Frc consts  --      1.6012                 4.0061                 1.1612
 IR Inten    --     66.6749               209.2001                67.2329

                     46                     47                     48
                      A                      A                      A
 Frequencies --   1169.4260              1212.1826              1234.4112
 Red. masses --      1.6775                 1.1736                 1.9096
 Frc consts  --      1.3516                 1.0160                 1.7144
 IR Inten    --      1.6701                 8.8849                14.9635

                     49                     50                     51
                      A                      A                      A
 Frequencies --   1259.4348              1269.1304              1304.8332
 Red. masses --      2.3235                 1.3215                 2.9876
 Frc consts  --      2.1714                 1.2541                 2.9969
 IR Inten    --     42.1117                38.4949                52.5709

                     52                     53                     54
                      A                      A                      A
 Frequencies --   1334.5410              1351.9044              1359.5327
 Red. masses --      2.0163                 1.3986                 3.3173
 Frc consts  --      2.1158                 1.5060                 3.6126
 IR Inten    --      5.4026                 2.9006               101.3633

                     55                     56                     57
                      A                      A                      A
 Frequencies --   1377.0751              1382.6763              1421.2348
 Red. masses --      1.2088                 1.6294                 2.0867
 Frc consts  --      1.3506                 1.8353                 2.4834
 IR Inten    --     11.0631                41.7718                80.4511

                     58                     59                     60
                      A                      A                      A
 Frequencies --   1425.0914              1469.4990              1484.1945
 Red. masses --      1.3733                 1.2290                 1.0533
 Frc consts  --      1.6432                 1.5637                 1.3670
 IR Inten    --     25.0470               100.5926                 2.1726

                     61                     62                     63
                      A                      A                      A
 Frequencies --   1485.7746              1491.6688              1528.8925
 Red. masses --      1.2916                 1.5518                 1.0886
 Frc consts  --      1.6798                 2.0343                 1.4992
 IR Inten    --     19.7115                23.0443                 8.0964

                     64                     65                     66
                      A                      A                      A
 Frequencies --   1558.9007              1640.0898              1672.9260
 Red. masses --      2.4683                 6.0699                 5.2216
 Frc consts  --      3.5341                 9.6198                 8.6101
 IR Inten    --     78.6254                 5.5999                22.0760

                     67                     68                     69
                      A                      A                      A
 Frequencies --   1687.7356              3017.9808              3052.0053
 Red. masses --      1.1117                 1.0683                 1.0857
 Frc consts  --      1.8657                 5.7331                 5.9587
 IR Inten    --     39.8046                40.6392                37.4284

                     70                     71                     72
                      A                      A                      A
 Frequencies --   3088.0131              3101.0750              3175.5975
 Red. masses --      1.0290                 1.0956                 1.0896
 Frc consts  --      5.7812                 6.2076                 6.4739
 IR Inten    --      0.4221                46.3372                26.6607

                     73                     74                     75
                      A                      A                      A
 Frequencies --   3178.4241              3189.9890              3192.7076
 Red. masses --      1.0894                 1.1068                 1.1078
 Frc consts  --      6.4844                 6.6357                 6.6535
 IR Inten    --      4.9156                 0.2939                 0.8481

                     76                     77                     78
                      A                      A                      A
 Frequencies --   3228.9687              3240.6121              3490.1953
 Red. masses --      1.0910                 1.0926                 1.0506
 Frc consts  --      6.7020                 6.7601                 7.5404
 IR Inten    --      2.7689                 0.2988                 0.7004

                     79                     80                     81
                      A                      A                      A
 Frequencies --   3560.0765              3560.2863              3581.1853
 Red. masses --      1.0727                 1.0677                 1.0927
 Frc consts  --      8.0101                 7.9738                 8.2566
 IR Inten    --     39.1078               102.8755                 2.3219

 - Thermochemistry -
 -------------------
 Temperature   298.150 Kelvin.  Pressure   1.00000 Atm.
 Atom     1 has atomic number  6 and mass  12.00000

 Molecular mass:   230.07251 amu.
 Principal axes and moments of inertia in atomic units:
                           1         2         3
     Eigenvalues --  1133.648378224.463928400.96276
           X            0.99988  -0.01177   0.00990
           Y            0.01158   0.99974   0.01946
           Z           -0.01012  -0.01934   0.99976
 This molecule is an asymmetric top.
 Rotational symmetry number  1.
 Warning -- assumption of classical behavior for rotation
           may cause significant error
 Rotational temperatures (Kelvin)      0.07640     0.01053     0.01031
 Rotational constants (GHZ):           1.59198     0.21944     0.21483
 Zero-point vibrational energy     619604.0 (Joules/Mol)
                                  148.08890 (Kcal/Mol)
 Warning -- explicit consideration of  23 degrees of freedom as
           vibrations may cause significant error
 Vibrational temperatures:     34.44    60.48    69.60   110.94   141.84
          (Kelvin)            210.25   274.64   302.13   330.81   380.07
                              408.74   432.60   468.41   485.85   500.16
                              574.66   605.62   662.33   704.27   720.15
                              764.21   800.44   844.03   934.61   952.59
                              982.98  1056.38  1065.84  1123.28  1208.74
                             1213.83  1234.51  1270.19  1284.81  1320.05
                             1396.75  1403.36  1427.51  1435.60  1439.80
                             1497.21  1544.64  1607.05  1638.64  1650.57
                             1682.54  1744.06  1776.04  1812.05  1826.00
                             1877.36  1920.11  1945.09  1956.06  1981.30
                             1989.36  2044.84  2050.39  2114.28  2135.42
                             2137.70  2146.18  2199.74  2242.91  2359.72
                             2406.97  2428.28  4342.20  4391.15  4442.96
                             4461.76  4568.98  4573.04  4589.68  4593.59
                             4645.77  4662.52  5021.61  5122.16  5122.46
                             5152.53

 Zero-point correction=                           0.235995 (Hartree/Particle)
 Thermal correction to Energy=                    0.251054
 Thermal correction to Enthalpy=                  0.251999
 Thermal correction to Gibbs Free Energy=         0.192448
 Sum of electronic and zero-point Energies=          -1084.495870
 Sum of electronic and thermal Energies=             -1084.480811
 Sum of electronic and thermal Enthalpies=           -1084.479866
 Sum of electronic and thermal Free Energies=        -1084.539417

                     E (Thermal)             CV                S
                      KCal/Mol        Cal/Mol-Kelvin    Cal/Mol-Kelvin
 Total                  157.539             57.185            125.335
 Electronic               0.000              0.000              0.000
 Translational            0.889              2.981             42.202
 Rotational               0.889              2.981             32.727
 Vibrational            155.762             51.223             50.407
 Vibration     1          0.593              1.985              6.277
 Vibration     2          0.595              1.980              5.161
 Vibration     3          0.595              1.978              4.883
 Vibration     4          0.599              1.964              3.963
 Vibration     5          0.604              1.950              3.482
 Vibration     6          0.617              1.907              2.722
 Vibration     7          0.634              1.852              2.219
 Vibration     8          0.642              1.826              2.044
 Vibration     9          0.652              1.795              1.880
 Vibration    10          0.671              1.739              1.634
 Vibration    11          0.682              1.703              1.509
 Vibration    12          0.693              1.672              1.413
 Vibration    13          0.710              1.624              1.282
 Vibration    14          0.718              1.600              1.223
 Vibration    15          0.725              1.580              1.177
 Vibration    16          0.765              1.471              0.965
 Vibration    17          0.783              1.425              0.889
 Vibration    18          0.818              1.338              0.765
 Vibration    19          0.845              1.273              0.685
 Vibration    20          0.856              1.249              0.657
 Vibration    21          0.886              1.181              0.585
 Vibration    22          0.912              1.126              0.531
 Vibration    23          0.944              1.060              0.473

 Optimization completed.
    -- Stationary point found.
 Normal termination of Gaussian 16 at Thu Dec 10 16:37:02 2020.

 ----------------------------------------------------------------------
 # B3LYP/6-311++G(d,p) empiricaldispersion=gd3bj scf=xqc pop=npa geom=c
 heck
 ----------------------------------------------------------------------

 --------------------------------------
 CID_22220590_JID_5585_Energie_neutraal
 --------------------------------------
 Structure from the checkpoint file:  "JID_5585.chk"
 Charge =  0 Multiplicity = 1

 SCF Done:  E(RB3LYP) =  -1084.97272729     A.U. after   15 cycles
 Normal termination of Gaussian 16 at Thu Dec 10 16:40:42 2020.

 ----------------------------------------------------------------------
 # B3LYP/6-311++G(d,p) empiricaldispersion=gd3bj scf=xqc pop=npa geom=c
 heck
 ----------------------------------------------------------------------

 ------------------------------------
 CID_22220590_JID_5585_Energie_kation
 ------------------------------------
 Structure from the checkpoint file:  "JID_5585.chk"
 Charge =  1 Multiplicity = 2

 SCF Done:  E(UB3LYP) =  -1084.66533235     A.U. after   27 cycles
 Normal termination of Gaussian 16 at Thu Dec 10 16:49:54 2020.
 Gaussian 16:  ES64L-G16RevA.03 25-Dec-2016

 ----------------------------------------------------------------------
 # B3LYP/6-311++G(d,p) empiricaldispersion=gd3bj scf=xqc pop=npa geom=c
 heck
 ----------------------------------------------------------------------

 -----------------------------------
 CID_22220590_JID_5585_Energie_anion
 -----------------------------------
 Structure from the checkpoint file:  "JID_5585.chk"
 Charge = -1 Multiplicity = 2

                         Standard orientation:
 ---------------------------------------------------------------------
 Center     Atomic      Atomic             Coordinates (Angstroms)
 Number     Number       Type             X           Y           Z
 ---------------------------------------------------------------------
      1          6           0        3.126421   -0.685901    1.528074
      2         16           0        3.354576    0.158264   -0.050889
      3          8           0        3.248654    1.592727    0.207187
      4          8           0        4.508636   -0.420985   -0.737204
      5          7           0        2.023293   -0.312421   -0.989440
      6          6           0        0.690593   -0.215616   -0.504593
      7          6           0       -0.155083   -1.326958   -0.581034
      8          6           0       -1.475318   -1.237249   -0.144173
      9          6           0       -1.969425   -0.050394    0.400080
     10          6           0       -1.106663    1.049713    0.488704
     11          6           0        0.205939    0.985714    0.031078
     12          6           0       -3.420175    0.060194    0.859686
     13          6           0       -4.207407    1.038120   -0.038661
     14          7           0       -4.410566    0.377122   -1.333545
     15          8           0       -4.087340   -1.186645    0.855254
     16          1           0        3.929905   -0.352301    2.187673
     17          1           0        3.185850   -1.763270    1.365120
     18          1           0        2.155038   -0.404080    1.937977
     19          1           0        2.243349   -1.176631   -1.476032
     20          1           0        0.222200   -2.264605   -0.983291
     21          1           0       -2.129358   -2.100516   -0.191081
     22          1           0       -1.466637    1.983996    0.913872
     23          1           0        0.858288    1.849031    0.083453
     24          1           0       -3.437495    0.437230    1.890181
     25          1           0       -5.191828    1.203029    0.411439
     26          1           0       -3.692186    2.008327   -0.098135
     27          1           0       -5.120711    0.854780   -1.881336
     28          1           0       -3.546865    0.393391   -1.873184
     29          1           0       -4.464746   -1.240026   -0.048398
 ---------------------------------------------------------------------

 SCF Done:  E(UB3LYP) =  -1084.96785180     A.U. after   33 cycles
 SCF Done:  E(UB3LYP) =  -1084.96785180     a.u. after    1 cycles

 The electronic state is 2-A.
 Alpha  occ. eigenvalues --  -88.97941 -19.03355 -19.03313 -19.01831 -14.26499
 Alpha  occ. eigenvalues --  -14.21131 -10.13045 -10.12845 -10.11867 -10.10486
 Alpha  occ. eigenvalues --  -10.08539 -10.08412 -10.08353 -10.08288 -10.08125
 Alpha  occ. eigenvalues --   -8.04134  -6.00430  -6.00366  -6.00207  -1.03738
 Alpha  occ. eigenvalues --   -0.92991  -0.92842  -0.85603  -0.79657  -0.76150
 Alpha  occ. eigenvalues --   -0.68841  -0.66959  -0.65998  -0.61642  -0.55682
 Alpha  occ. eigenvalues --   -0.53740  -0.51547  -0.49116  -0.45072  -0.44430
 Alpha  occ. eigenvalues --   -0.42927  -0.40544  -0.39207  -0.38856  -0.37992
 Alpha  occ. eigenvalues --   -0.37842  -0.35994  -0.34971  -0.34685  -0.34355
 Alpha  occ. eigenvalues --   -0.33306  -0.31713  -0.30685  -0.29459  -0.27280
 Alpha  occ. eigenvalues --   -0.26216  -0.25817  -0.24503  -0.24049  -0.22901
 Alpha  occ. eigenvalues --   -0.22534  -0.21825  -0.18677  -0.16854  -0.16700
 Alpha  occ. eigenvalues --   -0.13860   0.03669
 Alpha virt. eigenvalues --    0.05314   0.06354   0.07079   0.07623   0.07678
 Alpha virt. eigenvalues --    0.08728   0.09182   0.09743   0.10197   0.10920
 Alpha virt. eigenvalues --    0.11305   0.11623   0.12495   0.12610   0.13343

  Beta  occ. eigenvalues --  -88.97928 -19.03343 -19.03306 -19.01823 -14.26475
  Beta  occ. eigenvalues --  -14.21077 -10.13045 -10.12782 -10.11801 -10.10458
  Beta  occ. eigenvalues --  -10.08496 -10.08398 -10.08338 -10.08252 -10.08126
  Beta  occ. eigenvalues --   -8.04117  -6.00413  -6.00355  -6.00192  -1.03703
  Beta  occ. eigenvalues --   -0.92971  -0.92814  -0.85536  -0.79570  -0.76082
  Beta  occ. eigenvalues --   -0.68741  -0.66865  -0.65940  -0.61550  -0.55603
  Beta  occ. eigenvalues --   -0.53651  -0.51490  -0.49061  -0.45018  -0.44401
  Beta  occ. eigenvalues --   -0.42855  -0.40506  -0.39155  -0.38799  -0.37944
  Beta  occ. eigenvalues --   -0.37805  -0.35935  -0.34914  -0.34632  -0.34307
  Beta  occ. eigenvalues --   -0.33272  -0.31629  -0.30634  -0.29313  -0.27230
  Beta  occ. eigenvalues --   -0.26171  -0.25773  -0.24469  -0.24015  -0.22870
  Beta  occ. eigenvalues --   -0.22493  -0.21765  -0.18646  -0.16721  -0.16643
  Beta  occ. eigenvalues --   -0.13650
  Beta virt. eigenvalues --    0.06039   0.06631   0.06773   0.07258   0.07997
  Beta virt. eigenvalues --    0.08221   0.09207   0.09350   0.10268   0.10439
  Beta virt. eigenvalues --    0.11057   0.11772   0.11983   0.12633   0.12674

 Mulliken charges and spin densities:
               1          2
     1  C    0.293773  -0.900025
     2  S    0.227938   0.049383
     3  O   -0.199782   0.018420
     4  O   -0.215784   0.001481
     5  N   -0.307473   0.062385
     6  C    0.992859  -0.854505
     7  C   -0.588575   0.188909
     8  C   -0.620080   0.277855
     9  C    0.978800  -0.449476
    10  C   -0.609551   0.308732
    11  C   -0.443884   0.148028
    12  C    0.041641  -0.231458
    13  C    0.974840  -1.435399
    14  N   -0.491402   0.022852
    15  O   -0.219552  -0.011430
    16  H   -0.058733   0.272452
    17  H   -0.375631   0.602638
    18  H    0.025502   0.197015
    19  H    0.275802   0.009454
    20  H   -0.473377   0.638789
    21  H   -0.007931   0.184503
    22  H   -0.133425   0.282916
    23  H    0.180303   0.068930
    24  H    0.009869   0.208712
    25  H   -0.269674   0.466475
    26  H   -0.129914   0.249182
    27  H   -0.271744   0.545708
    28  H    0.151429   0.076193
    29  H    0.263756   0.001283
 Sum of Mulliken charges =  -1.00000   1.00000

 Dipole moment (field-independent basis, Debye):
    X=              2.5117    Y=              0.1677    Z=             -0.0648  Tot=              2.5181
 Quadrupole moment (field-independent basis, Debye-Ang):
   XX=           -207.2190   YY=           -132.6131   ZZ=           -126.9139
   XY=              5.2660   XZ=             -4.0115   YZ=              6.8173

 Summary of Natural Population Analysis:

                                       Natural Population
                Natural  -----------------------------------------------
    Atom  No    Charge         Core      Valence    Rydberg      Total
 -----------------------------------------------------------------------
      C    1   -0.39250      0.99961     2.38540    0.00750     3.39250
      S    2    1.09892      4.99934     1.80062    0.10112     6.90108
      O    3   -0.46102      0.99990     3.45534    0.00578     4.46102
      O    4   -0.46454      0.99991     3.45880    0.00583     4.46454
      N    5   -0.42145      0.99969     2.90838    0.01339     3.92145
      C    6    0.06713      0.99947     1.91964    0.01376     2.93287
      C    7   -0.10712      0.99951     2.09746    0.01014     3.10712
      C    8   -0.09569      0.99951     2.08536    0.01082     3.09569
      C    9   -0.02948      0.99948     2.01874    0.01127     3.02948
      C   10   -0.08724      0.99951     2.07947    0.00826     3.08724
      C   11   -0.11677      0.99951     2.10822    0.00904     3.11677
      C   12    0.05665      0.99953     1.92944    0.01439     2.94335
      C   13   -0.09629      0.99962     2.08521    0.01146     3.09629
      N   14   -0.43848      0.99977     2.92751    0.01120     3.93848
      O   15   -0.37765      0.99990     3.37142    0.00634     4.37765
      H   16    0.11819      0.00000     0.38071    0.00109     0.38181
      H   17    0.11790      0.00000     0.38009    0.00200     0.38210
      H   18    0.12115      0.00000     0.37752    0.00132     0.37885
      H   19    0.20093      0.00000     0.29659    0.00248     0.29907
      H   20    0.10087      0.00000     0.39778    0.00135     0.39913
      H   21    0.11056      0.00000     0.38820    0.00124     0.38944
      H   22    0.09994      0.00000     0.39885    0.00121     0.40006
      H   23    0.11585      0.00000     0.38290    0.00125     0.38415
      H   24    0.09159      0.00000     0.40656    0.00184     0.40841
      H   25    0.09596      0.00000     0.40234    0.00170     0.40404
      H   26    0.08614      0.00000     0.41207    0.00179     0.41386
      H   27    0.18639      0.00000     0.30904    0.00457     0.31361
      H   28    0.18100      0.00000     0.31717    0.00183     0.31900
      H   29    0.23905      0.00000     0.25721    0.00374     0.26095
 =======================================================================
   * Total *    0.00000     18.99425    41.73802    0.26773    61.00000

 Normal termination of Gaussian 16 at Thu Dec 10 17:01:39 2020.
