 Gaussian 16, Revision A.03,

 -----------------------------------------------------------
 # opt freq B3LYP/6-31G(d) empiricaldispersion=gd3bj scf=xqc
 -----------------------------------------------------------

 -------------------------------
 CID_154182657_JID_2046_neutraal
 -------------------------------
 Symbolic Z-matrix:
 Charge =  0 Multiplicity = 1

 SCF Done:  E(RB3LYP) =  -558.455823890     A.U. after   14 cycles
 SCF Done:  E(RB3LYP) =  -558.457897395     A.U. after   12 cycles
 SCF Done:  E(RB3LYP) =  -558.458335986     A.U. after   12 cycles
 SCF Done:  E(RB3LYP) =  -558.458605854     A.U. after   11 cycles
 SCF Done:  E(RB3LYP) =  -558.458730762     A.U. after   12 cycles
 SCF Done:  E(RB3LYP) =  -558.458830946     A.U. after   12 cycles
 SCF Done:  E(RB3LYP) =  -558.458901857     A.U. after   12 cycles
 SCF Done:  E(RB3LYP) =  -558.458940939     A.U. after   11 cycles
 SCF Done:  E(RB3LYP) =  -558.458949736     A.U. after    9 cycles
 SCF Done:  E(RB3LYP) =  -558.458954954     A.U. after   10 cycles
 SCF Done:  E(RB3LYP) =  -558.458959247     A.U. after    8 cycles
 SCF Done:  E(RB3LYP) =  -558.458960172     A.U. after    8 cycles
 SCF Done:  E(RB3LYP) =  -558.458960635     A.U. after    8 cycles
 SCF Done:  E(RB3LYP) =  -558.458960710     A.U. after    7 cycles
 SCF Done:  E(RB3LYP) =  -558.458960712     A.U. after    6 cycles
 Optimization completed.
    -- Stationary point found.
 Normal termination of Gaussian 16 at Wed Dec  9 16:50:36 2020.

 --------------------------------------------------------------------
 #N Geom=AllCheck Guess=TCheck SCRF=Check GenChk RB3LYP/6-31G(d) Freq
 --------------------------------------------------------------------

 Structure from the checkpoint file:  "JID_2046.chk"
 -------------------------------
 CID_154182657_JID_2046_neutraal
 -------------------------------
 Charge =  0 Multiplicity = 1

 SCF Done:  E(RB3LYP) =  -558.458960712     A.U. after    1 cycles

  Exact polarizability: 113.437  -2.329 110.603   2.256   0.386  86.839
 Approx polarizability: 138.722  -3.989 161.101   6.393  -0.919 132.325

                      1                      2                      3
                      A                      A                      A
 Frequencies --     32.2532                71.1730                78.9538
 Red. masses --      5.1844                 4.0244                 2.7508
 Frc consts  --      0.0032                 0.0120                 0.0101
 IR Inten    --      7.4049                 1.6845                 3.4052

                      4                      5                      6
                      A                      A                      A
 Frequencies --    113.5389               140.5063               183.0749
 Red. masses --      3.1468                 4.5284                 1.7282
 Frc consts  --      0.0239                 0.0527                 0.0341
 IR Inten    --      5.5019                 4.7782               119.0210

                      7                      8                      9
                      A                      A                      A
 Frequencies --    185.0416               195.6682               247.8602
 Red. masses --      1.6840                 1.2256                 2.6168
 Frc consts  --      0.0340                 0.0276                 0.0947
 IR Inten    --     90.8855                 2.5617                 6.4685

                     10                     11                     12
                      A                      A                      A
 Frequencies --    280.9120               304.0833               350.0776
 Red. masses --      3.3308                 2.1069                 2.6467
 Frc consts  --      0.1549                 0.1148                 0.1911
 IR Inten    --      1.7736                 3.1495                 4.1960

                     13                     14                     15
                      A                      A                      A
 Frequencies --    385.9221               411.0700               458.8327
 Red. masses --      3.0393                 2.3531                 2.0914
 Frc consts  --      0.2667                 0.2343                 0.2594
 IR Inten    --      1.4053                 1.3048                 3.4246

                     16                     17                     18
                      A                      A                      A
 Frequencies --    487.7285               537.7659               578.6566
 Red. masses --      2.0806                 2.3222                 2.4543
 Frc consts  --      0.2916                 0.3957                 0.4842
 IR Inten    --      0.9497                11.5088                 6.4944

                     19                     20                     21
                      A                      A                      A
 Frequencies --    606.7467               644.3090               740.5431
 Red. masses --      1.4839                 2.4196                 3.3542
 Frc consts  --      0.3219                 0.5918                 1.0838
 IR Inten    --     17.3255                 2.8779                 3.3105

                     22                     23                     24
                      A                      A                      A
 Frequencies --    810.0843               821.6493               859.7307
 Red. masses --      2.4376                 1.8671                 2.7369
 Frc consts  --      0.9425                 0.7426                 1.1919
 IR Inten    --      0.9040                 2.7883                 2.4418

                     25                     26                     27
                      A                      A                      A
 Frequencies --    880.9856               896.7155               921.7013
 Red. masses --      3.0298                 1.6316                 2.2087
 Frc consts  --      1.3855                 0.7730                 1.1055
 IR Inten    --      2.5347                 6.8229                 6.2344

                     28                     29                     30
                      A                      A                      A
 Frequencies --    948.3932               982.7768               991.1851
 Red. masses --      2.0164                 1.8611                 2.4301
 Frc consts  --      1.0686                 1.0591                 1.4067
 IR Inten    --      3.6747                 5.9470                 1.5442

                     31                     32                     33
                      A                      A                      A
 Frequencies --   1052.5074              1066.7999              1087.4151
 Red. masses --      1.6260                 1.6928                 2.3685
 Frc consts  --      1.0612                 1.1351                 1.6501
 IR Inten    --      2.3854                 5.3993                 5.7559

                     34                     35                     36
                      A                      A                      A
 Frequencies --   1095.7988              1102.6327              1137.6278
 Red. masses --      1.7311                 2.0191                 5.0259
 Frc consts  --      1.2247                 1.4464                 3.8324
 IR Inten    --      4.6931                 2.5849               138.8049

                     37                     38                     39
                      A                      A                      A
 Frequencies --   1149.1798              1176.8372              1199.7097
 Red. masses --      1.9233                 1.5842                 1.3069
 Frc consts  --      1.4965                 1.2927                 1.1082
 IR Inten    --     12.5211                 5.6968                 7.1808

                     40                     41                     42
                      A                      A                      A
 Frequencies --   1211.0061              1221.2465              1239.8009
 Red. masses --      1.3114                 1.3914                 1.5564
 Frc consts  --      1.1331                 1.2227                 1.4095
 IR Inten    --     35.0520                14.4073                11.4270

                     43                     44                     45
                      A                      A                      A
 Frequencies --   1282.2371              1303.1059              1310.1413
 Red. masses --      1.3174                 1.2415                 1.3468
 Frc consts  --      1.2762                 1.2421                 1.3621
 IR Inten    --      5.9820                 0.7459                10.6589

                     46                     47                     48
                      A                      A                      A
 Frequencies --   1353.5640              1363.7742              1376.7524
 Red. masses --      1.2758                 1.4375                 1.7859
 Frc consts  --      1.3772                 1.5752                 1.9944
 IR Inten    --      0.6928                20.0003                70.8716

                     49                     50                     51
                      A                      A                      A
 Frequencies --   1386.2200              1395.5006              1402.7501
 Red. masses --      1.4339                 1.4755                 1.5591
 Frc consts  --      1.6234                 1.6930                 1.8075
 IR Inten    --      3.2706                 2.5886                 8.9094

                     52                     53                     54
                      A                      A                      A
 Frequencies --   1408.5358              1420.3984              1437.5062
 Red. masses --      1.6355                 1.4783                 1.3593
 Frc consts  --      1.9117                 1.7573                 1.6549
 IR Inten    --     40.9425                22.3379                12.3642

                     55                     56                     57
                      A                      A                      A
 Frequencies --   1503.0530              1509.7660              1512.1188
 Red. masses --      1.1501                 1.1057                 1.1101
 Frc consts  --      1.5309                 1.4850                 1.4955
 IR Inten    --      1.9907                 0.9886                 2.5118

                     58                     59                     60
                      A                      A                      A
 Frequencies --   1516.4701              1520.3206              1521.4881
 Red. masses --      1.1040                 1.0670                 1.0799
 Frc consts  --      1.4958                 1.4531                 1.4729
 IR Inten    --      2.3244                 3.5874                 9.8879

                     61                     62                     63
                      A                      A                      A
 Frequencies --   1533.2833              1546.2312              1644.5664
 Red. masses --      1.1016                 1.0533                 1.2552
 Frc consts  --      1.5259                 1.4837                 2.0002
 IR Inten    --      4.4888                 4.5953               111.5740

                     64                     65                     66
                      A                      A                      A
 Frequencies --   1786.8324              3001.7920              3013.2114
 Red. masses --      8.2099                 1.0437                 1.0813
 Frc consts  --     15.4438                 5.5410                 5.7842
 IR Inten    --    286.7813                70.9025                 5.8968

                     67                     68                     69
                      A                      A                      A
 Frequencies --   3017.9326              3029.9285              3037.6298
 Red. masses --      1.0679                 1.0653                 1.0626
 Frc consts  --      5.7308                 5.7621                 5.7766
 IR Inten    --     33.5444                35.2470                21.8478

                     70                     71                     72
                      A                      A                      A
 Frequencies --   3048.4997              3052.8090              3070.4334
 Red. masses --      1.0636                 1.0675                 1.0924
 Frc consts  --      5.8235                 5.8614                 6.0678
 IR Inten    --     23.1784                46.8414                85.7851

                     73                     74                     75
                      A                      A                      A
 Frequencies --   3071.7040              3075.4938              3078.5600
 Red. masses --      1.0904                 1.0912                 1.0942
 Frc consts  --      6.0620                 6.0809                 6.1102
 IR Inten    --     16.3552                19.5574                46.6318

                     76                     77                     78
                      A                      A                      A
 Frequencies --   3083.3394              3093.8261              3131.1943
 Red. masses --      1.1025                 1.1037                 1.1026
 Frc consts  --      6.1755                 6.2241                 6.3692
 IR Inten    --     23.7193                67.1078                35.8349

                     79                     80                     81
                      A                      A                      A
 Frequencies --   3133.8591              3592.6607              3721.4665
 Red. masses --      1.0954                 1.0453                 1.1046
 Frc consts  --      6.3382                 7.9491                 9.0129
 IR Inten    --      5.6505                35.0751                26.6779

 - Thermochemistry -
 -------------------
 Temperature   298.150 Kelvin.  Pressure   1.00000 Atm.
 Atom     1 has atomic number  6 and mass  12.00000

 Molecular mass:   171.12593 amu.
 Principal axes and moments of inertia in atomic units:
                           1         2         3
     Eigenvalues --  1332.767282690.544973457.94930
           X            0.99995  -0.00796  -0.00600
           Y            0.00801   0.99994   0.00792
           Z            0.00594  -0.00797   0.99995
 This molecule is an asymmetric top.
 Rotational symmetry number  1.
 Warning -- assumption of classical behavior for rotation
           may cause significant error
 Rotational temperatures (Kelvin)      0.06499     0.03219     0.02505
 Rotational constants (GHZ):           1.35413     0.67077     0.52191
 Zero-point vibrational energy     682932.9 (Joules/Mol)
                                  163.22487 (Kcal/Mol)
 Warning -- explicit consideration of  19 degrees of freedom as
           vibrations may cause significant error
 Vibrational temperatures:     46.41   102.40   113.60   163.36   202.16
          (Kelvin)            263.40   266.23   281.52   356.62   404.17
                              437.51   503.68   555.26   591.44   660.16
                              701.73   773.73   832.56   872.97   927.02
                             1065.48  1165.53  1182.17  1236.96  1267.54
                             1290.17  1326.12  1364.53  1414.00  1426.09
                             1514.32  1534.89  1564.55  1576.61  1586.44
                             1636.79  1653.41  1693.21  1726.11  1742.37
                             1757.10  1783.80  1844.85  1874.88  1885.00
                             1947.48  1962.17  1980.84  1994.46  2007.81
                             2018.24  2026.57  2043.64  2068.25  2162.56
                             2172.22  2175.60  2181.86  2187.40  2189.08
                             2206.05  2224.68  2366.16  2570.85  4318.91
                             4335.34  4342.13  4359.39  4370.47  4386.11
                             4392.31  4417.67  4419.50  4424.95  4429.36
                             4436.24  4451.33  4505.09  4508.92  5169.04
                             5354.36

 Zero-point correction=                           0.260115 (Hartree/Particle)
 Thermal correction to Energy=                    0.272975
 Thermal correction to Enthalpy=                  0.273920
 Thermal correction to Gibbs Free Energy=         0.220547
 Sum of electronic and zero-point Energies=           -558.198845
 Sum of electronic and thermal Energies=              -558.185985
 Sum of electronic and thermal Enthalpies=            -558.185041
 Sum of electronic and thermal Free Energies=         -558.238413

                     E (Thermal)             CV                S
                      KCal/Mol        Cal/Mol-Kelvin    Cal/Mol-Kelvin
 Total                  171.295             48.087            112.331
 Electronic               0.000              0.000              0.000
 Translational            0.889              2.981             41.319
 Rotational               0.889              2.981             30.895
 Vibrational            169.517             42.125             40.117
 Vibration     1          0.594              1.983              5.686
 Vibration     2          0.598              1.968              4.121
 Vibration     3          0.600              1.963              3.917
 Vibration     4          0.607              1.938              3.207
 Vibration     5          0.615              1.913              2.797
 Vibration     6          0.631              1.863              2.297
 Vibration     7          0.631              1.860              2.277
 Vibration     8          0.636              1.846              2.173
 Vibration     9          0.661              1.766              1.746
 Vibration    10          0.681              1.709              1.528
 Vibration    11          0.695              1.666              1.394
 Vibration    12          0.727              1.575              1.166
 Vibration    13          0.755              1.500              1.016
 Vibration    14          0.775              1.446              0.923
 Vibration    15          0.817              1.341              0.770
 Vibration    16          0.844              1.277              0.690
 Vibration    17          0.893              1.167              0.570
 Vibration    18          0.935              1.077              0.488
 Vibration    19          0.965              1.018              0.438

 Optimization completed.
    -- Stationary point found.
 Normal termination of Gaussian 16 at Wed Dec  9 16:58:08 2020.

 ----------------------------------------------------------------------
 # B3LYP/6-311++G(d,p) empiricaldispersion=gd3bj scf=xqc pop=npa geom=c
 heck
 ----------------------------------------------------------------------

 ---------------------------------------
 CID_154182657_JID_2046_Energie_neutraal
 ---------------------------------------
 Structure from the checkpoint file:  "JID_2046.chk"
 Charge =  0 Multiplicity = 1

 SCF Done:  E(RB3LYP) =  -558.627515145     A.U. after   14 cycles
 Normal termination of Gaussian 16 at Wed Dec  9 17:00:56 2020.

 ----------------------------------------------------------------------
 # B3LYP/6-311++G(d,p) empiricaldispersion=gd3bj scf=xqc pop=npa geom=c
 heck
 ----------------------------------------------------------------------

 -------------------------------------
 CID_154182657_JID_2046_Energie_kation
 -------------------------------------
 Structure from the checkpoint file:  "JID_2046.chk"
 Charge =  1 Multiplicity = 2

 SCF Done:  E(UB3LYP) =  -558.311671556     A.U. after   23 cycles
 Normal termination of Gaussian 16 at Wed Dec  9 17:06:52 2020.
 Gaussian 16:  ES64L-G16RevA.03 25-Dec-2016

 ----------------------------------------------------------------------
 # B3LYP/6-311++G(d,p) empiricaldispersion=gd3bj scf=xqc pop=npa geom=c
 heck
 ----------------------------------------------------------------------

 ------------------------------------
 CID_154182657_JID_2046_Energie_anion
 ------------------------------------
 Structure from the checkpoint file:  "JID_2046.chk"
 Charge = -1 Multiplicity = 2

                         Standard orientation:
 ---------------------------------------------------------------------
 Center     Atomic      Atomic             Coordinates (Angstroms)
 Number     Number       Type             X           Y           Z
 ---------------------------------------------------------------------
      1          6           0       -0.244529    2.721924   -0.523597
      2          8           0       -0.652171    1.378575   -0.711048
      3          6           0       -0.485166    0.566308    0.455171
      4          6           0       -1.811275    0.467510    1.220457
      5          6           0       -2.890998   -0.230934    0.385901
      6          6           0       -2.416647   -1.613206   -0.080508
      7          6           0       -1.090341   -1.515967   -0.846096
      8          6           0       -0.003016   -0.819086   -0.011167
      9          6           0        1.317866   -0.722124   -0.804801
     10          6           0        2.471102   -0.217008    0.046386
     11          8           0        2.619017    0.963763    0.343159
     12          7           0        3.313083   -1.184748    0.524112
     13          1           0       -0.426015    3.242809   -1.468126
     14          1           0        0.822483    2.772768   -0.272648
     15          1           0       -0.826269    3.220962    0.267185
     16          1           0        0.284257    1.011227    1.095835
     17          1           0       -1.638432   -0.088221    2.153438
     18          1           0       -2.136864    1.474752    1.508331
     19          1           0       -3.111886    0.390670   -0.490244
     20          1           0       -3.819627   -0.318979    0.962830
     21          1           0       -3.179565   -2.086869   -0.710707
     22          1           0       -2.282590   -2.266294    0.794945
     23          1           0       -1.241280   -0.942926   -1.769601
     24          1           0       -0.745915   -2.515912   -1.141014
     25          1           0        0.174318   -1.419292    0.894238
     26          1           0        1.552273   -1.703306   -1.236250
     27          1           0        1.173453   -0.013446   -1.623997
     28          1           0        3.278754   -2.136885    0.194818
     29          1           0        4.114583   -0.891041    1.064828
 ---------------------------------------------------------------------

 SCF Done:  E(UB3LYP) =  -558.616041256     A.U. after   33 cycles
 SCF Done:  E(UB3LYP) =  -558.616041256     a.u. after    1 cycles

 The electronic state is 2-A.
 Alpha  occ. eigenvalues --  -19.01997 -18.97843 -14.21666 -10.16375 -10.11164
 Alpha  occ. eigenvalues --  -10.11129 -10.07231 -10.06573 -10.06352 -10.06338
 Alpha  occ. eigenvalues --  -10.06221 -10.05794  -0.93341  -0.92691  -0.79001
 Alpha  occ. eigenvalues --   -0.73251  -0.67232  -0.64248  -0.60270  -0.57198
 Alpha  occ. eigenvalues --   -0.50717  -0.50288  -0.46864  -0.44649  -0.42101
 Alpha  occ. eigenvalues --   -0.39730  -0.38015  -0.36770  -0.35870  -0.35114
 Alpha  occ. eigenvalues --   -0.33097  -0.32448  -0.31361  -0.30108  -0.29961
 Alpha  occ. eigenvalues --   -0.27559  -0.27164  -0.26117  -0.25532  -0.23813
 Alpha  occ. eigenvalues --   -0.23505  -0.21514  -0.21045  -0.19825  -0.16410
 Alpha  occ. eigenvalues --   -0.15524  -0.14555   0.04610
 Alpha virt. eigenvalues --    0.06580   0.07598   0.08118   0.09001   0.09703
 Alpha virt. eigenvalues --    0.10105   0.10616   0.10872   0.12000   0.12159
 Alpha virt. eigenvalues --    0.12766   0.12910   0.13455   0.13876   0.14445

  Beta  occ. eigenvalues --  -19.01992 -18.97833 -14.21573 -10.16369 -10.11161
  Beta  occ. eigenvalues --  -10.11124 -10.07220 -10.06564 -10.06329 -10.06325
  Beta  occ. eigenvalues --  -10.06205 -10.05779  -0.93333  -0.92668  -0.78877
  Beta  occ. eigenvalues --   -0.73225  -0.67197  -0.64225  -0.60226  -0.57167
  Beta  occ. eigenvalues --   -0.50680  -0.50234  -0.46726  -0.44617  -0.42007
  Beta  occ. eigenvalues --   -0.39699  -0.37989  -0.36747  -0.35830  -0.35088
  Beta  occ. eigenvalues --   -0.33075  -0.32419  -0.31331  -0.30083  -0.29925
  Beta  occ. eigenvalues --   -0.27532  -0.27132  -0.26090  -0.25494  -0.23791
  Beta  occ. eigenvalues --   -0.23476  -0.21491  -0.21018  -0.19801  -0.16338
  Beta  occ. eigenvalues --   -0.15502  -0.14525
  Beta virt. eigenvalues --    0.06720   0.07766   0.08279   0.08358   0.09648
  Beta virt. eigenvalues --    0.10266   0.10411   0.10904   0.11170   0.12207
  Beta virt. eigenvalues --    0.12725   0.12987   0.13307   0.13532   0.14356

 Mulliken charges and spin densities:
               1          2
     1  C   -0.187632  -0.029257
     2  O   -0.055837   0.030953
     3  C   -0.051113  -0.460862
     4  C   -0.341872  -0.261767
     5  C    0.230861  -0.439322
     6  C    0.158428  -0.613521
     7  C    0.073447  -0.483056
     8  C   -1.421289   2.202679
     9  C    2.334764  -2.864994
    10  C    0.201420  -0.426162
    11  O   -0.332786  -0.002924
    12  N   -0.348162   0.086279
    13  H    0.047414   0.067709
    14  H    0.198466  -0.013230
    15  H    0.084930   0.025093
    16  H    0.188023   0.062983
    17  H   -0.056929   0.184768
    18  H    0.045393   0.091801
    19  H    0.183595  -0.057407
    20  H   -0.228529   0.394859
    21  H   -0.230774   0.394758
    22  H    0.004608   0.120327
    23  H    0.118422   0.053839
    24  H   -0.336161   0.497583
    25  H   -0.164527   0.388974
    26  H   -0.463403   0.665621
    27  H    0.255531  -0.089849
    28  H   -0.560125   0.838032
    29  H   -0.346164   0.636093
 Sum of Mulliken charges =  -1.00000   1.00000

 Dipole moment (field-independent basis, Debye):
    X=             -5.9550    Y=              7.1307    Z=             -0.9656  Tot=              9.3403
 Quadrupole moment (field-independent basis, Debye-Ang):
   XX=           -145.3913   YY=           -123.4255   ZZ=           -100.4873
   XY=             10.3660   XZ=             -2.1838   YZ=             -0.8839

 Summary of Natural Population Analysis:

                                       Natural Population
                Natural  -----------------------------------------------
    Atom  No    Charge         Core      Valence    Rydberg      Total
 -----------------------------------------------------------------------
      C    1   -0.09895      0.99961     2.09129    0.00804     3.09895
      O    2   -0.31199      0.99988     3.30304    0.00907     4.31199
      C    3    0.06577      0.99951     1.92034    0.01439     2.93423
      C    4   -0.19891      0.99960     2.19033    0.00898     3.19891
      C    5   -0.19238      0.99963     2.18384    0.00891     3.19238
      C    6   -0.18759      0.99963     2.17999    0.00797     3.18759
      C    7   -0.18957      0.99961     2.18005    0.00992     3.18957
      C    8   -0.11261      0.99956     2.10040    0.01265     3.11261
      C    9   -0.23089      0.99956     2.22029    0.01104     3.23089
      C   10    0.34122      0.99969     1.63518    0.02391     2.65878
      O   11   -0.33564      0.99987     3.32960    0.00616     4.33564
      N   12   -0.39639      0.99971     2.88825    0.00844     3.89639
      H   13    0.08457      0.00000     0.41463    0.00080     0.41543
      H   14    0.09437      0.00000     0.40447    0.00116     0.40563
      H   15    0.07279      0.00000     0.42596    0.00125     0.42721
      H   16    0.09692      0.00000     0.40113    0.00195     0.40308
      H   17    0.09809      0.00000     0.40082    0.00109     0.40191
      H   18    0.09667      0.00000     0.40238    0.00095     0.40333
      H   19    0.09725      0.00000     0.40136    0.00140     0.40275
      H   20    0.09629      0.00000     0.40275    0.00096     0.40371
      H   21    0.09703      0.00000     0.40204    0.00093     0.40297
      H   22    0.09335      0.00000     0.40524    0.00141     0.40665
      H   23    0.09765      0.00000     0.40070    0.00165     0.40235
      H   24    0.10266      0.00000     0.39600    0.00134     0.39734
      H   25    0.10107      0.00000     0.39672    0.00221     0.39893
      H   26    0.10677      0.00000     0.39137    0.00186     0.39323
      H   27    0.11328      0.00000     0.38529    0.00143     0.38672
      H   28    0.20352      0.00000     0.26789    0.02858     0.29648
      H   29    0.19565      0.00000     0.30058    0.00377     0.30435
 =======================================================================
   * Total *   -0.00000     11.99585    34.82191    0.18223    47.00000

 Normal termination of Gaussian 16 at Wed Dec  9 17:16:26 2020.
