 Gaussian 16, Revision A.03,

 -----------------------------------------------------------
 # opt freq B3LYP/6-31G(d) empiricaldispersion=gd3bj scf=xqc
 -----------------------------------------------------------

 ------------------------------
 CID_89929099_JID_6198_neutraal
 ------------------------------
 Symbolic Z-matrix:
 Charge =  0 Multiplicity = 1

 SCF Done:  E(RB3LYP) =  -837.269184137     A.U. after   15 cycles
 SCF Done:  E(RB3LYP) =  -837.274253319     A.U. after   13 cycles
 SCF Done:  E(RB3LYP) =  -837.272461353     A.U. after   13 cycles
 SCF Done:  E(RB3LYP) =  -837.275144518     A.U. after   12 cycles
 SCF Done:  E(RB3LYP) =  -837.275235948     A.U. after   11 cycles
 SCF Done:  E(RB3LYP) =  -837.275274403     A.U. after   11 cycles
 SCF Done:  E(RB3LYP) =  -837.275281760     A.U. after   10 cycles
 SCF Done:  E(RB3LYP) =  -837.275284484     A.U. after    9 cycles
 SCF Done:  E(RB3LYP) =  -837.275285721     A.U. after    8 cycles
 SCF Done:  E(RB3LYP) =  -837.275285951     A.U. after    8 cycles
 Optimization completed.
    -- Stationary point found.

 1\1\GINC-NODE122\FOpt\RB3LYP\6-31G(d)\C10H8O6\VSC10255\10-Dec-2020\0\\
 # opt freq B3LYP/6-31G(d) empiricaldispersion=gd3bj scf=xqc\\CID_89929
 099_JID_6198_neutraal\\0,1\C,2.5339616014,0.0105726298,-0.1170873866\C
 ,1.0354580898,0.0646191873,-0.2971163364\C,0.2264750343,-1.091534796,-
 0.3365350381\C,-1.1598057406,-0.9597562773,-0.4842609048\C,-1.75632766
 57,0.2935499027,-0.5948568388\C,-0.9703277194,1.4385403378,-0.55211760
 16\C,0.4076556642,1.3101197969,-0.4011462677\O,-3.1301291233,0.3109559
 036,-0.7986048396\C,-3.9130291416,1.0981500112,-0.0053472035\O,-3.5362

 Normal termination of Gaussian 16 at Thu Dec 10 21:11:05 2020.

 --------------------------------------------------------------------
 #N Geom=AllCheck Guess=TCheck SCRF=Check GenChk RB3LYP/6-31G(d) Freq
 --------------------------------------------------------------------

 Structure from the checkpoint file:  "JID_6198.chk"
 ------------------------------
 CID_89929099_JID_6198_neutraal
 ------------------------------
 Charge =  0 Multiplicity = 1

 SCF Done:  E(RB3LYP) =  -837.275285951     A.U. after    1 cycles

  Exact polarizability: 152.987   3.264 133.366   1.491   5.673  67.192
 Approx polarizability: 216.825  -0.823 214.259  -2.872  14.116 121.794

                      1                      2                      3
                      A                      A                      A
 Frequencies --     35.5871                50.8003                68.7923
 Red. masses --     11.5306                11.4845                 7.3398
 Frc consts  --      0.0086                 0.0175                 0.0205
 IR Inten    --      0.2043                 0.8853                 0.2785

                      4                      5                      6
                      A                      A                      A
 Frequencies --     76.9718                99.5770               136.7556
 Red. masses --      9.8776                 4.8349                 6.0769
 Frc consts  --      0.0345                 0.0282                 0.0670
 IR Inten    --      0.3449                 1.2985                 9.2244

                      7                      8                      9
                      A                      A                      A
 Frequencies --    163.3038               176.8645               187.7059
 Red. masses --      1.7200                 1.7237                 3.5375
 Frc consts  --      0.0270                 0.0318                 0.0734
 IR Inten    --      1.9718                 2.1142                 8.9008

                     10                     11                     12
                      A                      A                      A
 Frequencies --    201.6447               241.5472               247.9252
 Red. masses --      4.1577                 4.3285                 4.6628
 Frc consts  --      0.0996                 0.1488                 0.1689
 IR Inten    --      4.6082                 6.8147                 2.5987

                     13                     14                     15
                      A                      A                      A
 Frequencies --    314.7007               351.4218               370.1609
 Red. masses --      4.9538                 5.1531                 4.6330
 Frc consts  --      0.2891                 0.3750                 0.3740
 IR Inten    --      1.1129                 1.8971                 1.6092

                     16                     17                     18
                      A                      A                      A
 Frequencies --    396.3616               431.3083               456.3969
 Red. masses --      5.1907                 7.3012                 6.8524
 Frc consts  --      0.4805                 0.8002                 0.8410
 IR Inten    --     10.1706                13.8062                 3.5850

                     19                     20                     21
                      A                      A                      A
 Frequencies --    487.9997               573.4999               576.2257
 Red. masses --      3.9374                 4.6597                 4.5675
 Frc consts  --      0.5525                 0.9030                 0.8935
 IR Inten    --      0.2831                 6.2227                16.3069

                     22                     23                     24
                      A                      A                      A
 Frequencies --    607.9272               633.8084               683.4369
 Red. masses --      3.0495                 1.8673                 4.1825
 Frc consts  --      0.6640                 0.4419                 1.1510
 IR Inten    --     24.3361                55.4711                47.4742

                     25                     26                     27
                      A                      A                      A
 Frequencies --    705.1128               740.5603               787.9194
 Red. masses --      3.9888                 6.3450                 6.6872
 Frc consts  --      1.1684                 2.0502                 2.4460
 IR Inten    --     33.4642                 3.8927                14.3635

                     28                     29                     30
                      A                      A                      A
 Frequencies --    808.7183               843.9542               859.9358
 Red. masses --      2.1235                 4.1921                 4.5293
 Frc consts  --      0.8183                 1.7592                 1.9734
 IR Inten    --     12.0016                42.3792                 7.9760

                     31                     32                     33
                      A                      A                      A
 Frequencies --    905.6754               951.4000               970.3042
 Red. masses --      7.0864                 1.3204                 3.0907
 Frc consts  --      3.4247                 0.7042                 1.7144
 IR Inten    --      1.3481                 1.0872                 1.2102

                     34                     35                     36
                      A                      A                      A
 Frequencies --   1023.2814              1024.6565              1063.4015
 Red. masses --      1.6231                 1.6239                 1.7357
 Frc consts  --      1.0013                 1.0045                 1.1565
 IR Inten    --      0.2734                 2.0704                 6.6985

                     37                     38                     39
                      A                      A                      A
 Frequencies --   1077.4351              1134.2953              1154.1029
 Red. masses --      1.5058                 8.1259                 4.7977
 Frc consts  --      1.0299                 6.1599                 3.7650
 IR Inten    --      2.7797               464.6674               423.9625

                     40                     41                     42
                      A                      A                      A
 Frequencies --   1176.4849              1207.6230              1228.4427
 Red. masses --      3.6016                 1.8475                 2.3629
 Frc consts  --      2.9371                 1.5874                 2.1009
 IR Inten    --     31.0030                25.7060               206.0619

                     43                     44                     45
                      A                      A                      A
 Frequencies --   1281.7132              1302.0433              1343.2056
 Red. masses --      1.8065                 5.0652                 8.0048
 Frc consts  --      1.7485                 5.0594                 8.5092
 IR Inten    --     54.0615               220.3940                 9.7364

                     46                     47                     48
                      A                      A                      A
 Frequencies --   1377.3729              1416.1155              1423.1193
 Red. masses --      2.5514                 1.1722                 1.1574
 Frc consts  --      2.8518                 1.3850                 1.3810
 IR Inten    --     50.8435                 3.2301                 5.3090

                     49                     50                     51
                      A                      A                      A
 Frequencies --   1448.5127              1478.3605              1515.0056
 Red. masses --      1.2228                 4.2159                 1.0780
 Frc consts  --      1.5116                 5.4288                 1.4578
 IR Inten    --      2.6903                98.4089                16.8557

                     52                     53                     54
                      A                      A                      A
 Frequencies --   1523.8570              1530.6173              1630.6213
 Red. masses --      1.1530                 2.9496                 6.8328
 Frc consts  --      1.5775                 4.0715                10.7042
 IR Inten    --     27.1284                90.6485                 6.2797

                     55                     56                     57
                      A                      A                      A
 Frequencies --   1667.8771              1827.5697              1846.3968
 Red. masses --      7.5617                10.0392                 9.5116
 Frc consts  --     12.3936                19.7559                19.1053
 IR Inten    --      7.8754               308.3334                33.4840

                     58                     59                     60
                      A                      A                      A
 Frequencies --   1852.6157              3066.9576              3095.4732
 Red. masses --      9.5376                 1.0357                 1.0940
 Frc consts  --     19.2868                 5.7397                 6.1762
 IR Inten    --    457.7326                20.0649                60.4281

                     61                     62                     63
                      A                      A                      A
 Frequencies --   3103.9304              3130.0586              3141.1141
 Red. masses --      1.0944                 1.1009                 1.1036
 Frc consts  --      6.2124                 6.3548                 6.4153
 IR Inten    --     64.4790                10.5319                15.2801

                     64                     65                     66
                      A                      A                      A
 Frequencies --   3203.0925              3252.6616              3679.8792
 Red. masses --      1.0901                 1.0934                 1.0638
 Frc consts  --      6.5896                 6.8159                 8.4878
 IR Inten    --     11.0872                 0.8646                68.5968

 - Thermochemistry -
 -------------------
 Temperature   298.150 Kelvin.  Pressure   1.00000 Atm.
 Atom     1 has atomic number  6 and mass  12.00000

 Molecular mass:   224.03209 amu.
 Principal axes and moments of inertia in atomic units:
                           1         2         3
     Eigenvalues --  2119.773154002.743915599.59282
           X            0.99946   0.03213   0.00747
           Y           -0.03222   0.99940   0.01265
           Z           -0.00706  -0.01288   0.99989
 This molecule is an asymmetric top.
 Rotational symmetry number  1.
 Warning -- assumption of classical behavior for rotation
           may cause significant error
 Rotational temperatures (Kelvin)      0.04086     0.02164     0.01547
 Rotational constants (GHZ):           0.85138     0.45088     0.32230
 Zero-point vibrational energy     450825.9 (Joules/Mol)
                                  107.74997 (Kcal/Mol)
 Warning -- explicit consideration of  22 degrees of freedom as
           vibrations may cause significant error
 Vibrational temperatures:     51.20    73.09    98.98   110.75   143.27
          (Kelvin)            196.76   234.96   254.47   270.07   290.12
                              347.53   356.71   452.78   505.62   532.58
                              570.28   620.56   656.65   702.12   825.14
                              829.06   874.67   911.91   983.31  1014.50
                             1065.50  1133.64  1163.57  1214.26  1237.26
                             1303.06  1368.85  1396.05  1472.27  1474.25
                             1530.00  1550.19  1632.00  1660.50  1692.70
                             1737.50  1767.46  1844.10  1873.35  1932.57
                             1981.73  2037.47  2047.55  2084.09  2127.03
                             2179.76  2192.49  2202.22  2346.10  2399.70
                             2629.47  2656.55  2665.50  4412.67  4453.70
                             4465.86  4503.46  4519.36  4608.54  4679.85
                             5294.53

 Zero-point correction=                           0.171711 (Hartree/Particle)
 Thermal correction to Energy=                    0.186453
 Thermal correction to Enthalpy=                  0.187397
 Thermal correction to Gibbs Free Energy=         0.128806
 Sum of electronic and zero-point Energies=           -837.103575
 Sum of electronic and thermal Energies=              -837.088833
 Sum of electronic and thermal Enthalpies=            -837.087889
 Sum of electronic and thermal Free Energies=         -837.146480

                     E (Thermal)             CV                S
                      KCal/Mol        Cal/Mol-Kelvin    Cal/Mol-Kelvin
 Total                  117.001             53.024            123.315
 Electronic               0.000              0.000              0.000
 Translational            0.889              2.981             42.122
 Rotational               0.889              2.981             32.230
 Vibrational            115.223             47.062             48.962
 Vibration     1          0.594              1.982              5.491
 Vibration     2          0.595              1.977              4.786
 Vibration     3          0.598              1.969              4.188
 Vibration     4          0.599              1.965              3.967
 Vibration     5          0.604              1.949              3.463
 Vibration     6          0.614              1.917              2.849
 Vibration     7          0.623              1.887              2.511
 Vibration     8          0.628              1.871              2.361
 Vibration     9          0.632              1.857              2.250
 Vibration    10          0.639              1.838              2.118
 Vibration    11          0.658              1.777              1.791
 Vibration    12          0.662              1.766              1.745
 Vibration    13          0.702              1.646              1.337
 Vibration    14          0.728              1.572              1.160
 Vibration    15          0.742              1.534              1.079
 Vibration    16          0.763              1.478              0.976
 Vibration    17          0.792              1.402              0.854
 Vibration    18          0.815              1.347              0.777
 Vibration    19          0.844              1.277              0.689
 Vibration    20          0.930              1.089              0.498
 Vibration    21          0.933              1.083              0.492
 Vibration    22          0.967              1.015              0.436

                           ! Non-Optimized Parameters !

 1\1\GINC-NODE122\Freq\RB3LYP\6-31G(d)\C10H8O6\VSC10255\10-Dec-2020\0\\
 #N Geom=AllCheck Guess=TCheck SCRF=Check GenChk RB3LYP/6-31G(d) Freq\\
 CID_89929099_JID_6198_neutraal\\0,1\C,2.5339616014,0.0105726298,-0.117
 0873866\C,1.0354580898,0.0646191873,-0.2971163364\C,0.2264750343,-1.09
 1534796,-0.3365350381\C,-1.1598057406,-0.9597562773,-0.4842609048\C,-1
 .7563276657,0.2935499027,-0.5948568388\C,-0.9703277194,1.4385403378,-0
 .5521176016\C,0.4076556642,1.3101197969,-0.4011462677\O,-3.1301291233,
 0.3109559036,-0.7986048396\C,-3.9130291416,1.0981500112,-0.0053472035\

 Normal termination of Gaussian 16 at Thu Dec 10 21:19:26 2020.

 ----------------------------------------------------------------------
 # B3LYP/6-311++G(d,p) empiricaldispersion=gd3bj scf=xqc pop=npa geom=c
 heck
 ----------------------------------------------------------------------

 --------------------------------------
 CID_89929099_JID_6198_Energie_neutraal
 --------------------------------------
 Structure from the checkpoint file:  "JID_6198.chk"
 Charge =  0 Multiplicity = 1

 SCF Done:  E(RB3LYP) =  -837.524700106     A.U. after   16 cycles
 Normal termination of Gaussian 16 at Thu Dec 10 21:22:58 2020.

 ----------------------------------------------------------------------
 # B3LYP/6-311++G(d,p) empiricaldispersion=gd3bj scf=xqc pop=npa geom=c
 heck
 ----------------------------------------------------------------------

 ------------------------------------
 CID_89929099_JID_6198_Energie_kation
 ------------------------------------
 Structure from the checkpoint file:  "JID_6198.chk"
 Charge =  1 Multiplicity = 2

 SCF Done:  E(UB3LYP) =  -837.193084418     A.U. after   27 cycles
 Normal termination of Gaussian 16 at Thu Dec 10 21:31:28 2020.
 Gaussian 16:  ES64L-G16RevA.03 25-Dec-2016

 -----------------------------------
 CID_89929099_JID_6198_Energie_anion
 -----------------------------------
 Structure from the checkpoint file:  "JID_6198.chk"
 Charge = -1 Multiplicity = 2

                         Standard orientation:
 ---------------------------------------------------------------------
 Center     Atomic      Atomic             Coordinates (Angstroms)
 Number     Number       Type             X           Y           Z
 ---------------------------------------------------------------------
      1          6           0        2.798296    2.075571    0.507631
      2          6           0        1.443697    1.517724    0.140597
      3          6           0        1.221807    0.145879   -0.107401
      4          6           0       -0.068275   -0.299448   -0.420987
      5          6           0       -1.138533    0.588244   -0.494449
      6          6           0       -0.932695    1.939948   -0.247156
      7          6           0        0.348228    2.384346    0.068863
      8          8           0       -2.363443    0.053308   -0.872053
      9          6           0       -3.469591    0.320660   -0.119175
     10          8           0       -3.537847    1.075148    0.809666
     11          8           0       -0.258166   -1.632835   -0.755768
     12          6           0       -0.959286   -2.411381    0.114759
     13          8           0       -1.502400   -2.036617    1.115847
     14          6           0        2.293117   -0.887571    0.020734
     15          8           0        2.154633   -1.975659    0.536142
     16          8           0        3.474882   -0.488962   -0.511303
     17          1           0        3.272703    1.500544    1.308778
     18          1           0        3.482465    2.054827   -0.345716
     19          1           0        2.698012    3.110506    0.845976
     20          1           0       -1.765360    2.629854   -0.290497
     21          1           0        0.501496    3.439658    0.272483
     22          1           0       -4.298710   -0.270421   -0.530606
     23          1           0       -0.948241   -3.438942   -0.270811
     24          1           0        4.095781   -1.224918   -0.350353
 ---------------------------------------------------------------------

 SCF Done:  E(UB3LYP) =  -837.534902820     A.U. after   27 cycles

 The electronic state is 2-A.
 Alpha  occ. eigenvalues --  -19.06038 -19.04962 -19.02434 -19.00537 -18.99809
 Alpha  occ. eigenvalues --  -18.95010 -10.18740 -10.18025 -10.13658 -10.09513
 Alpha  occ. eigenvalues --  -10.09410 -10.04094 -10.04026 -10.03215 -10.03095
 Alpha  occ. eigenvalues --  -10.02192  -0.99985  -0.98616  -0.96137  -0.92080
 Alpha  occ. eigenvalues --   -0.91091  -0.86625  -0.72502  -0.65016  -0.62945
 Alpha  occ. eigenvalues --   -0.58394  -0.55435  -0.51276  -0.50729  -0.45650
 Alpha  occ. eigenvalues --   -0.43429  -0.40880  -0.40108  -0.37843  -0.36586
 Alpha  occ. eigenvalues --   -0.36038  -0.34405  -0.33766  -0.32577  -0.32145
 Alpha  occ. eigenvalues --   -0.31484  -0.29668  -0.28787  -0.28289  -0.27951
 Alpha  occ. eigenvalues --   -0.26544  -0.26077  -0.24069  -0.22696  -0.22151
 Alpha  occ. eigenvalues --   -0.20102  -0.19519  -0.18102  -0.17668  -0.17010
 Alpha  occ. eigenvalues --   -0.13470  -0.11670  -0.10676   0.04893
 Alpha virt. eigenvalues --    0.08682   0.08832   0.09406   0.09782   0.10626
 Alpha virt. eigenvalues --    0.10884   0.11190   0.12303   0.12792   0.13864
 Alpha virt. eigenvalues --    0.14829   0.14987   0.15904   0.16266   0.16507

  Beta  occ. eigenvalues --  -19.06053 -19.04972 -19.02353 -19.00481 -18.99764
  Beta  occ. eigenvalues --  -18.94697 -10.18677 -10.17966 -10.13399 -10.09552
  Beta  occ. eigenvalues --  -10.09272 -10.04046 -10.03894 -10.03269 -10.02881
  Beta  occ. eigenvalues --  -10.01800  -0.99933  -0.98554  -0.95822  -0.92008
  Beta  occ. eigenvalues --   -0.91026  -0.86155  -0.72120  -0.64713  -0.62435
  Beta  occ. eigenvalues --   -0.58245  -0.55102  -0.50956  -0.50350  -0.45398
  Beta  occ. eigenvalues --   -0.43279  -0.40759  -0.39940  -0.37702  -0.36383
  Beta  occ. eigenvalues --   -0.35904  -0.34023  -0.33586  -0.32322  -0.31901
  Beta  occ. eigenvalues --   -0.30951  -0.29253  -0.28437  -0.28033  -0.27628
  Beta  occ. eigenvalues --   -0.26355  -0.25867  -0.23844  -0.22468  -0.21759
  Beta  occ. eigenvalues --   -0.19573  -0.19334  -0.17596  -0.17058  -0.16776
  Beta  occ. eigenvalues --   -0.13067  -0.10283  -0.09553
  Beta virt. eigenvalues --    0.08571   0.08789   0.09568   0.09853   0.10472
  Beta virt. eigenvalues --    0.10906   0.10950   0.12012   0.12428   0.12791
  Beta virt. eigenvalues --    0.14070   0.14782   0.14955   0.15910   0.16442

 Mulliken charges and spin densities:
               1          2
     1  C   -0.625437  -0.049011
     2  C    0.436798   0.228244
     3  C    0.315568   0.265008
     4  C   -0.430393  -0.014393
     5  C    0.100875  -0.116896
     6  C    0.286017   0.398079
     7  C   -0.996022  -0.190285
     8  O   -0.064542  -0.006759
     9  C    0.007634   0.017791
    10  O   -0.256908   0.015183
    11  O    0.029136  -0.004975
    12  C    0.027269   0.038043
    13  O   -0.267121   0.013437
    14  C   -0.016361   0.199635
    15  O   -0.388868   0.100599
    16  O   -0.156151   0.007840
    17  H    0.149206   0.004947
    18  H    0.146848   0.029457
    19  H    0.118002  -0.000605
    20  H    0.156587  -0.002752
    21  H    0.063872   0.003827
    22  H    0.044395   0.043984
    23  H    0.085395   0.004418
    24  H    0.234201   0.015184
 Sum of Mulliken charges =  -1.00000   1.00000

 Dipole moment (field-independent basis, Debye):
    X=              0.3269    Y=              0.0430    Z=             -2.3694  Tot=              2.3922
 Quadrupole moment (field-independent basis, Debye-Ang):
   XX=           -115.3870   YY=           -107.3763   ZZ=           -105.9503
   XY=              6.2875   XZ=              6.7902   YZ=              4.6789

 Summary of Natural Population Analysis:

                                       Natural Population
                Natural  -----------------------------------------------
    Atom  No    Charge         Core      Valence    Rydberg      Total
 -----------------------------------------------------------------------
      C    1   -0.29138      0.99965     2.28723    0.00451     3.29138
      C    2    0.03338      0.99951     1.95985    0.00726     2.96662
      C    3   -0.05214      0.99938     2.04308    0.00968     3.05214
      C    4    0.17399      0.99927     1.81402    0.01272     2.82601
      C    5    0.11012      0.99928     1.87694    0.01366     2.88988
      C    6   -0.03561      0.99953     2.02755    0.00853     3.03561
      C    7   -0.12011      0.99954     2.11238    0.00819     3.12011
      O    8   -0.27533      0.99985     3.26544    0.01004     4.27533
      C    9    0.34484      0.99977     1.63076    0.02464     2.65516
      O   10   -0.28214      0.99987     3.27624    0.00602     4.28214
      O   11   -0.26990      0.99985     3.25992    0.01013     4.26990
      C   12    0.35073      0.99977     1.62524    0.02426     2.64927
      O   13   -0.28680      0.99987     3.28078    0.00615     4.28680
      C   14    0.43226      0.99968     1.54272    0.02534     2.56774
      O   15   -0.29346      0.99987     3.28720    0.00639     4.29346
      O   16   -0.35068      0.99988     3.34338    0.00742     4.35068
      H   17    0.10219      0.00000     0.39685    0.00097     0.39781
      H   18    0.10643      0.00000     0.39248    0.00109     0.39357
      H   19    0.09139      0.00000     0.40768    0.00092     0.40861
      H   20    0.09804      0.00000     0.40056    0.00139     0.40196
      H   21    0.08968      0.00000     0.40883    0.00149     0.41032
      H   22    0.04780      0.00000     0.45035    0.00185     0.45220
      H   23    0.04928      0.00000     0.44922    0.00149     0.45072
      H   24    0.22741      0.00000     0.26743    0.00516     0.27259
 =======================================================================
   * Total *   -0.00000     15.99456    41.80614    0.19930    58.00000

 Normal termination of Gaussian 16 at Thu Dec 10 21:39:53 2020.
