 Gaussian 16, Revision A.03,

 -----------------------------------------------------------
 # opt freq B3LYP/6-31G(d) empiricaldispersion=gd3bj scf=xqc
 -----------------------------------------------------------

 -----------------------------
 CID_2845702_JID_8970_neutraal
 -----------------------------
 Symbolic Z-matrix:
 Charge =  0 Multiplicity = 1

 SCF Done:  E(RB3LYP) =  -769.640652085     A.U. after   15 cycles
 SCF Done:  E(RB3LYP) =  -769.645237272     A.U. after   12 cycles
 SCF Done:  E(RB3LYP) =  -769.646025272     A.U. after   12 cycles
 SCF Done:  E(RB3LYP) =  -769.646443143     A.U. after   12 cycles
 SCF Done:  E(RB3LYP) =  -769.646941816     A.U. after   12 cycles
 SCF Done:  E(RB3LYP) =  -769.647259806     A.U. after   11 cycles
 SCF Done:  E(RB3LYP) =  -769.647431267     A.U. after   11 cycles
 SCF Done:  E(RB3LYP) =  -769.647606520     A.U. after   12 cycles
 SCF Done:  E(RB3LYP) =  -769.647663806     A.U. after   11 cycles
 SCF Done:  E(RB3LYP) =  -769.647677533     A.U. after   10 cycles
 SCF Done:  E(RB3LYP) =  -769.647684125     A.U. after   10 cycles
 SCF Done:  E(RB3LYP) =  -769.647685412     A.U. after    9 cycles
 SCF Done:  E(RB3LYP) =  -769.647685568     A.U. after    7 cycles
 SCF Done:  E(RB3LYP) =  -769.647685578     A.U. after    7 cycles
 SCF Done:  E(RB3LYP) =  -769.647685587     A.U. after    7 cycles
 Optimization completed.
    -- Stationary point found.
 Normal termination of Gaussian 16 at Fri Dec 11 23:15:48 2020.

 --------------------------------------------------------------------
 #N Geom=AllCheck Guess=TCheck SCRF=Check GenChk RB3LYP/6-31G(d) Freq
 --------------------------------------------------------------------

 Structure from the checkpoint file:  "JID_8970.chk"
 -----------------------------
 CID_2845702_JID_8970_neutraal
 -----------------------------
 Charge =  0 Multiplicity = 1

 SCF Done:  E(RB3LYP) =  -769.647685587     A.U. after    1 cycles

  Exact polarizability: 190.767  10.122 176.270  20.999  -2.509 131.724
 Approx polarizability: 242.849  10.312 278.071  39.070  -9.982 217.082

                      1                      2                      3
                      A                      A                      A
 Frequencies --     11.3932                25.3588                36.9293
 Red. masses --      4.9914                 3.9236                 5.7176
 Frc consts  --      0.0004                 0.0015                 0.0046
 IR Inten    --      0.2456                 0.5277                 1.2818

                      4                      5                      6
                      A                      A                      A
 Frequencies --     44.9684                74.0877                96.9997
 Red. masses --      3.7690                 3.5940                 5.0550
 Frc consts  --      0.0045                 0.0116                 0.0280
 IR Inten    --      0.4853                 1.1558                 0.6522

                      7                      8                      9
                      A                      A                      A
 Frequencies --    142.3569               173.4982               182.9580
 Red. masses --      2.6265                 2.6830                 3.2847
 Frc consts  --      0.0314                 0.0476                 0.0648
 IR Inten    --      0.6831                 3.7379                 0.0424

                     10                     11                     12
                      A                      A                      A
 Frequencies --    218.4187               235.5310               274.3408
 Red. masses --      3.0536                 3.3806                 1.0758
 Frc consts  --      0.0858                 0.1105                 0.0477
 IR Inten    --      0.8272                 0.0351                 0.1219

                     13                     14                     15
                      A                      A                      A
 Frequencies --    294.0322               313.7984               329.2264
 Red. masses --      2.5711                 2.4674                 3.0451
 Frc consts  --      0.1310                 0.1432                 0.1945
 IR Inten    --      6.7668                 0.6025                 6.3010

                     16                     17                     18
                      A                      A                      A
 Frequencies --    354.9886               384.3014               414.9093
 Red. masses --      2.5811                 2.6028                 4.4112
 Frc consts  --      0.1916                 0.2265                 0.4474
 IR Inten    --     15.1600                 1.4299                 0.2810

                     19                     20                     21
                      A                      A                      A
 Frequencies --    415.7174               428.4781               461.2467
 Red. masses --      2.9989                 1.9500                 2.7425
 Frc consts  --      0.3054                 0.2109                 0.3438
 IR Inten    --      0.0452                 0.3936                 2.6296

                     22                     23                     24
                      A                      A                      A
 Frequencies --    481.7644               504.4330               542.4744
 Red. masses --      2.7883                 3.0207                 3.0742
 Frc consts  --      0.3813                 0.4529                 0.5330
 IR Inten    --      0.4522                 5.1858                 2.4130

                     25                     26                     27
                      A                      A                      A
 Frequencies --    594.8839               616.5857               638.6229
 Red. masses --      2.7975                 2.9916                 6.0320
 Frc consts  --      0.5833                 0.6701                 1.4494
 IR Inten    --     20.0913                 2.4061                 0.1338

                     28                     29                     30
                      A                      A                      A
 Frequencies --    664.5701               716.1072               752.5076
 Red. masses --      3.0723                 1.7506                 2.8889
 Frc consts  --      0.7994                 0.5289                 0.9638
 IR Inten    --      4.8961                27.1658                 3.1005

                     31                     32                     33
                      A                      A                      A
 Frequencies --    766.7309               791.7645               797.2833
 Red. masses --      1.5988                 1.7715                 2.7268
 Frc consts  --      0.5538                 0.6543                 1.0213
 IR Inten    --     12.1838                 4.1502                 7.9198

                     34                     35                     36
                      A                      A                      A
 Frequencies --    829.1581               852.1706               860.1033
 Red. masses --      2.9739                 1.6417                 1.2493
 Frc consts  --      1.2046                 0.7024                 0.5445
 IR Inten    --     13.9927                 0.7262                 0.0710

                     37                     38                     39
                      A                      A                      A
 Frequencies --    912.8040               924.4004               928.6371
 Red. masses --      2.7497                 1.4298                 2.4312
 Frc consts  --      1.3499                 0.7198                 1.2353
 IR Inten    --      2.3344                 3.4852                 0.3881

                     40                     41                     42
                      A                      A                      A
 Frequencies --    966.6837               966.8257               993.1442
 Red. masses --      1.9757                 1.3702                 2.0999
 Frc consts  --      1.0878                 0.7546                 1.2203
 IR Inten    --      0.7719                 0.1831                 2.3484

                     43                     44                     45
                      A                      A                      A
 Frequencies --    994.3122              1001.9999              1016.4681
 Red. masses --      1.4021                 1.7143                 1.6156
 Frc consts  --      0.8167                 1.0141                 0.9835
 IR Inten    --      1.4322                 2.1409                 2.1561

                     46                     47                     48
                      A                      A                      A
 Frequencies --   1022.4152              1035.8920              1059.4369
 Red. masses --      6.1160                 2.4706                 2.3650
 Frc consts  --      3.7668                 1.5620                 1.5640
 IR Inten    --      0.8130                85.1092                 3.7258

                     49                     50                     51
                      A                      A                      A
 Frequencies --   1071.6465              1085.4179              1086.2742
 Red. masses --      1.8130                 2.2482                 1.7984
 Frc consts  --      1.2267                 1.5605                 1.2503
 IR Inten    --      2.1755                 7.7914                 5.0810

                     52                     53                     54
                      A                      A                      A
 Frequencies --   1104.6993              1123.2608              1141.3927
 Red. masses --      2.0571                 1.9114                 1.7530
 Frc consts  --      1.4791                 1.4209                 1.3456
 IR Inten    --      3.9594                 5.8365                 7.5042

                     55                     56                     57
                      A                      A                      A
 Frequencies --   1178.8558              1181.8730              1194.2959
 Red. masses --      2.0490                 2.1192                 1.0948
 Frc consts  --      1.6777                 1.7441                 0.9201
 IR Inten    --     77.4669                48.7856                 0.0837

                     58                     59                     60
                      A                      A                      A
 Frequencies --   1217.3904              1220.3160              1236.8356
 Red. masses --      2.1334                 1.1402                 1.7894
 Frc consts  --      1.8628                 1.0004                 1.6128
 IR Inten    --      4.3206                 0.1398                16.8703

                     61                     62                     63
                      A                      A                      A
 Frequencies --   1245.0692              1255.1255              1289.8521
 Red. masses --      1.3908                 1.2948                 1.6862
 Frc consts  --      1.2703                 1.2018                 1.6529
 IR Inten    --     19.5576                16.0233                 0.5578

                     64                     65                     66
                      A                      A                      A
 Frequencies --   1304.3825              1319.5868              1344.1291
 Red. masses --      1.7133                 1.3362                 2.3597
 Frc consts  --      1.7175                 1.3709                 2.5118
 IR Inten    --     45.9684                12.4780                 1.6797

                     67                     68                     69
                      A                      A                      A
 Frequencies --   1370.0918              1371.5171              1373.5969
 Red. masses --      1.9810                 1.2896                 1.2946
 Frc consts  --      2.1909                 1.4293                 1.4392
 IR Inten    --      1.2766                 0.4056                 3.4272

                     70                     71                     72
                      A                      A                      A
 Frequencies --   1396.5062              1399.1220              1403.2781
 Red. masses --      1.3819                 1.4999                 1.2855
 Frc consts  --      1.5878                 1.7299                 1.4914
 IR Inten    --      8.3789                 2.3554                20.1588

                     73                     74                     75
                      A                      A                      A
 Frequencies --   1410.1981              1419.6108              1427.7979
 Red. masses --      1.2862                 1.5274                 1.3380
 Frc consts  --      1.5071                 1.8136                 1.6071
 IR Inten    --     11.2043                25.3565                11.6220

                     76                     77                     78
                      A                      A                      A
 Frequencies --   1435.8605              1442.5487              1446.0059
 Red. masses --      1.2888                 1.2616                 1.2277
 Frc consts  --      1.5656                 1.5468                 1.5124
 IR Inten    --      8.6953                 2.6426                34.4126

                     79                     80                     81
                      A                      A                      A
 Frequencies --   1475.2329              1497.2150              1498.5181
 Red. masses --      2.8158                 1.0884                 1.0958
 Frc consts  --      3.6105                 1.4375                 1.4498
 IR Inten    --    119.6261                 4.0143                 3.7981

                     82                     83                     84
                      A                      A                      A
 Frequencies --   1501.6805              1509.0422              1513.5818
 Red. masses --      2.1828                 1.0961                 1.0919
 Frc consts  --      2.9001                 1.4706                 1.4738
 IR Inten    --      7.8259                 3.0589                 6.7583

                     85                     86                     87
                      A                      A                      A
 Frequencies --   1519.9097              1525.2672              1528.2001
 Red. masses --      1.1046                 1.0916                 1.0702
 Frc consts  --      1.5035                 1.4963                 1.4726
 IR Inten    --     22.6090                 1.4929                 3.3369

                     88                     89                     90
                      A                      A                      A
 Frequencies --   1541.8603              1550.1633              1645.4605
 Red. masses --      1.0650                 2.0825                 5.4192
 Frc consts  --      1.4917                 2.9484                 8.6449
 IR Inten    --      5.1051                 9.6331                 1.5004

                     91                     92                     93
                      A                      A                      A
 Frequencies --   1667.9920              1796.1041              2958.6004
 Red. masses --      5.5441                 8.3670                 1.0846
 Frc consts  --      9.0881                15.9031                 5.5935
 IR Inten    --      6.1699               469.0176                94.3408

                     94                     95                     96
                      A                      A                      A
 Frequencies --   3005.9418              3015.4724              3021.1279
 Red. masses --      1.0691                 1.0696                 1.0815
 Frc consts  --      5.6916                 5.7303                 5.8156
 IR Inten    --     46.5457                43.2177                29.3361

                     97                     98                     99
                      A                      A                      A
 Frequencies --   3035.4449              3041.3057              3044.2886
 Red. masses --      1.0652                 1.0608                 1.0654
 Frc consts  --      5.7826                 5.7808                 5.8176
 IR Inten    --     25.9784                 6.4657                65.5303

                    100                    101                    102
                      A                      A                      A
 Frequencies --   3050.0022              3055.8392              3083.4551
 Red. masses --      1.0689                 1.0375                 1.0952
 Frc consts  --      5.8585                 5.7079                 6.1351
 IR Inten    --     62.0813                25.3873                 6.2025

                    103                    104                    105
                      A                      A                      A
 Frequencies --   3092.8808              3097.3768              3100.8855
 Red. masses --      1.0939                 1.1014                 1.1000
 Frc consts  --      6.1651                 6.2259                 6.2321
 IR Inten    --     20.3895                38.7277                50.8923

                    106                    107                    108
                      A                      A                      A
 Frequencies --   3105.9366              3119.2572              3126.2588
 Red. masses --      1.0994                 1.1018                 1.1021
 Frc consts  --      6.2485                 6.3165                 6.3465
 IR Inten    --     65.6300                33.4073                31.9474

                    109                    110                    111
                      A                      A                      A
 Frequencies --   3147.3593              3169.8296              3183.9948
 Red. masses --      1.0950                 1.0871                 1.0861
 Frc consts  --      6.3908                 6.4354                 6.4876
 IR Inten    --      3.9956                11.4101                 0.0528

                    112                    113                    114
                      A                      A                      A
 Frequencies --   3193.9704              3206.2665              3213.9089
 Red. masses --      1.0911                 1.0936                 1.0957
 Frc consts  --      6.5583                 6.6237                 6.6680
 IR Inten    --     22.5420                35.2916                13.2597

 - Thermochemistry -
 -------------------
 Temperature   298.150 Kelvin.  Pressure   1.00000 Atm.
 Atom     1 has atomic number  6 and mass  12.00000

 Molecular mass:   246.17321 amu.
 Principal axes and moments of inertia in atomic units:
                           1         2         3
     Eigenvalues --  2295.408339111.59792**********
           X            0.99999   0.00524  -0.00007
           Y           -0.00524   0.99992   0.01170
           Z            0.00013  -0.01170   0.99993
 This molecule is an asymmetric top.
 Rotational symmetry number  1.
 Warning -- assumption of classical behavior for rotation
           may cause significant error
 Rotational temperatures (Kelvin)      0.03773     0.00951     0.00852
 Rotational constants (GHZ):           0.78624     0.19807     0.17753
 Zero-point vibrational energy     929988.2 (Joules/Mol)
                                  222.27252 (Kcal/Mol)
 Warning -- explicit consideration of  26 degrees of freedom as
           vibrations may cause significant error
 Vibrational temperatures:     16.39    36.49    53.13    64.70   106.60
          (Kelvin)            139.56   204.82   249.63   263.24   314.26
                              338.88   394.72   423.05   451.49   473.68
                              510.75   552.92   596.96   598.12   616.48
                              663.63   693.15   725.77   780.50   855.91
                              887.13   918.84   956.17  1030.32  1082.69
                             1103.15  1139.17  1147.11  1192.97  1226.08
                             1237.50  1313.32  1330.01  1336.10  1390.84
                             1391.05  1428.91  1430.59  1441.65  1462.47
                             1471.03  1490.42  1524.29  1541.86  1561.67
                             1562.91  1589.42  1616.12  1642.21  1696.11
                             1700.45  1718.33  1751.55  1755.76  1779.53
                             1791.38  1805.85  1855.81  1876.72  1898.59
                             1933.90  1971.26  1973.31  1976.30  2009.26
                             2013.02  2019.00  2028.96  2042.50  2054.28
                             2065.88  2075.51  2080.48  2122.53  2154.16
                             2156.03  2160.58  2171.18  2177.71  2186.81
                             2194.52  2198.74  2218.39  2230.34  2367.45
                             2399.87  2584.19  4256.77  4324.88  4338.59
                             4346.73  4367.33  4375.76  4380.05  4388.27
                             4396.67  4436.40  4449.97  4456.43  4461.48
                             4468.75  4487.92  4497.99  4528.35  4560.68
                             4581.06  4595.41  4613.10  4624.10

 Zero-point correction=                           0.354214 (Hartree/Particle)
 Thermal correction to Energy=                    0.371268
 Thermal correction to Enthalpy=                  0.372212
 Thermal correction to Gibbs Free Energy=         0.306579
 Sum of electronic and zero-point Energies=           -769.293472
 Sum of electronic and thermal Energies=              -769.276418
 Sum of electronic and thermal Enthalpies=            -769.275474
 Sum of electronic and thermal Free Energies=         -769.341107

                     E (Thermal)             CV                S
                      KCal/Mol        Cal/Mol-Kelvin    Cal/Mol-Kelvin
 Total                  232.974             65.974            138.137
 Electronic               0.000              0.000              0.000
 Translational            0.889              2.981             42.403
 Rotational               0.889              2.981             33.719
 Vibrational            231.196             60.012             62.015
 Vibration     1          0.593              1.987              7.752
 Vibration     2          0.593              1.985              6.163
 Vibration     3          0.594              1.982              5.417
 Vibration     4          0.595              1.979              5.027
 Vibration     5          0.599              1.966              4.042
 Vibration     6          0.603              1.951              3.514
 Vibration     7          0.616              1.911              2.772
 Vibration     8          0.627              1.875              2.397
 Vibration     9          0.630              1.863              2.298
 Vibration    10          0.646              1.813              1.972
 Vibration    11          0.655              1.786              1.836
 Vibration    12          0.677              1.721              1.569
 Vibration    13          0.689              1.685              1.451
 Vibration    14          0.702              1.647              1.342
 Vibration    15          0.712              1.617              1.264
 Vibration    16          0.731              1.565              1.144
 Vibration    17          0.753              1.504              1.022
 Vibration    18          0.778              1.438              0.909
 Vibration    19          0.779              1.436              0.907
 Vibration    20          0.790              1.408              0.864
 Vibration    21          0.819              1.336              0.762
 Vibration    22          0.838              1.290              0.705
 Vibration    23          0.860              1.240              0.647
 Vibration    24          0.898              1.156              0.560
 Vibration    25          0.953              1.043              0.459
 Vibration    26          0.976              0.997              0.422

 Optimization completed.
    -- Stationary point found.
 Normal termination of Gaussian 16 at Fri Dec 11 23:34:16 2020.

 ----------------------------------------------------------------------
 # B3LYP/6-311++G(d,p) empiricaldispersion=gd3bj scf=xqc pop=npa geom=c
 heck
 ----------------------------------------------------------------------

 -------------------------------------
 CID_2845702_JID_8970_Energie_neutraal
 -------------------------------------
 Structure from the checkpoint file:  "JID_8970.chk"
 Charge =  0 Multiplicity = 1

 SCF Done:  E(RB3LYP) =  -769.856623304     A.U. after   16 cycles
 Normal termination of Gaussian 16 at Fri Dec 11 23:43:38 2020.

 ----------------------------------------------------------------------
 # B3LYP/6-311++G(d,p) empiricaldispersion=gd3bj scf=xqc pop=npa geom=c
 heck
 ----------------------------------------------------------------------

 -----------------------------------
 CID_2845702_JID_8970_Energie_kation
 -----------------------------------
 Structure from the checkpoint file:  "JID_8970.chk"
 Charge =  1 Multiplicity = 2

 SCF Done:  E(UB3LYP) =  -769.585472196     A.U. after   25 cycles
 Normal termination of Gaussian 16 at Sat Dec 12 00:03:58 2020.
 Gaussian 16:  ES64L-G16RevA.03 25-Dec-2016

 ----------------------------------------------------------------------
 # B3LYP/6-311++G(d,p) empiricaldispersion=gd3bj scf=xqc pop=npa geom=c
 heck
 ----------------------------------------------------------------------

 ----------------------------------
 CID_2845702_JID_8970_Energie_anion
 ----------------------------------
 Structure from the checkpoint file:  "JID_8970.chk"
 Charge = -1 Multiplicity = 2

                         Standard orientation:
 ---------------------------------------------------------------------
 Center     Atomic      Atomic             Coordinates (Angstroms)
 Number     Number       Type             X           Y           Z
 ---------------------------------------------------------------------
      1          6           0        2.284612   -2.695221   -0.648482
      2          6           0        1.854076   -1.279042   -1.051573
      3          6           0        0.370523   -0.997173   -0.697681
      4          6           0        0.073496   -0.992003    0.814716
      5          7           0       -1.257746   -0.599199    1.253990
      6          6           0       -1.624817    0.807908    1.164331
      7          6           0       -2.363277    1.191133   -0.131001
      8          7           0       -3.461226    0.258176   -0.360043
      9          6           0       -3.108689   -1.153537   -0.347898
     10          6           0       -2.367541   -1.489690    0.960878
     11          6           0       -4.748438    0.698572   -0.440597
     12          8           0       -5.106400    1.864443   -0.387753
     13          6           0        2.751007   -0.173892   -0.510447
     14          6           0        2.750706    1.073212   -1.151986
     15          6           0        3.516399    2.133673   -0.673029
     16          6           0        4.306345    1.966555    0.466349
     17          6           0        4.321048    0.731874    1.112697
     18          6           0        3.550536   -0.327488    0.627865
     19          1           0        2.215348   -2.864612    0.430628
     20          1           0        3.319107   -2.891377   -0.949135
     21          1           0        1.641945   -3.436151   -1.136833
     22          1           0        1.918160   -1.226287   -2.147280
     23          1           0        0.098024   -0.023796   -1.119924
     24          1           0       -0.255873   -1.747223   -1.198423
     25          1           0        0.261755   -1.993134    1.222256
     26          1           0        0.785638   -0.320321    1.307727
     27          1           0       -2.291858    1.044689    2.006745
     28          1           0       -0.721568    1.416933    1.274783
     29          1           0       -1.683728    1.163288   -0.992518
     30          1           0       -2.797360    2.190435   -0.061784
     31          1           0       -2.476549   -1.379956   -1.216877
     32          1           0       -4.026594   -1.745538   -0.434389
     33          1           0       -2.000440   -2.521544    0.931053
     34          1           0       -3.099230   -1.418643    1.780555
     35          1           0       -5.461770   -0.139807   -0.568815
     36          1           0        2.142261    1.209605   -2.043697
     37          1           0        3.501263    3.088641   -1.191272
     38          1           0        4.906728    2.789923    0.842596
     39          1           0        4.934297    0.587745    1.998110
     40          1           0        3.578541   -1.280545    1.146027
 ---------------------------------------------------------------------

 SCF Done:  E(UB3LYP) =  -769.847869138     A.U. after   33 cycles
 SCF Done:  E(UB3LYP) =  -769.847869138     a.u. after    1 cycles

 The electronic state is 2-A.
 Alpha  occ. eigenvalues --  -19.00521 -14.26095 -14.21636 -10.18072 -10.12087
 Alpha  occ. eigenvalues --  -10.11665 -10.11470 -10.11236 -10.10301 -10.09272
 Alpha  occ. eigenvalues --  -10.09070 -10.08914 -10.08862 -10.08682 -10.08500
 Alpha  occ. eigenvalues --  -10.08447 -10.07444 -10.06871  -0.95312  -0.87209
 Alpha  occ. eigenvalues --   -0.82758  -0.77442  -0.72017  -0.69076  -0.66348
 Alpha  occ. eigenvalues --   -0.66045  -0.64048  -0.61502  -0.57769  -0.56641
 Alpha  occ. eigenvalues --   -0.53151  -0.51862  -0.50958  -0.47277  -0.46603
 Alpha  occ. eigenvalues --   -0.43460  -0.42608  -0.40065  -0.39098  -0.38560
 Alpha  occ. eigenvalues --   -0.38052  -0.37339  -0.36681  -0.35604  -0.35132
 Alpha  occ. eigenvalues --   -0.33920  -0.33561  -0.33130  -0.32710  -0.31315
 Alpha  occ. eigenvalues --   -0.30561  -0.29652  -0.28770  -0.28443  -0.27989
 Alpha  occ. eigenvalues --   -0.27622  -0.27313  -0.26538  -0.25535  -0.24962
 Alpha  occ. eigenvalues --   -0.23498  -0.23426  -0.17861  -0.17172  -0.16939
 Alpha  occ. eigenvalues --   -0.16096  -0.11534   0.03772
 Alpha virt. eigenvalues --    0.05463   0.06281   0.06575   0.06952   0.07237
 Alpha virt. eigenvalues --    0.07620   0.07892   0.08326   0.08625   0.09062
 Alpha virt. eigenvalues --    0.09909   0.10128   0.10463   0.10864   0.10929

  Beta  occ. eigenvalues --  -19.00509 -14.26100 -14.21632 -10.18056 -10.12058
  Beta  occ. eigenvalues --  -10.11655 -10.11464 -10.11216 -10.10292 -10.09259
  Beta  occ. eigenvalues --  -10.09061 -10.08906 -10.08852 -10.08663 -10.08490
  Beta  occ. eigenvalues --  -10.08434 -10.07422 -10.06841  -0.95292  -0.87199
  Beta  occ. eigenvalues --   -0.82748  -0.77410  -0.71982  -0.69049  -0.66320
  Beta  occ. eigenvalues --   -0.66014  -0.64011  -0.61465  -0.57731  -0.56590
  Beta  occ. eigenvalues --   -0.53110  -0.51822  -0.50922  -0.47234  -0.46566
  Beta  occ. eigenvalues --   -0.43422  -0.42565  -0.40044  -0.39063  -0.38539
  Beta  occ. eigenvalues --   -0.38017  -0.37309  -0.36646  -0.35570  -0.35111
  Beta  occ. eigenvalues --   -0.33889  -0.33530  -0.33109  -0.32683  -0.31283
  Beta  occ. eigenvalues --   -0.30517  -0.29596  -0.28731  -0.28410  -0.27952
  Beta  occ. eigenvalues --   -0.27598  -0.27288  -0.26507  -0.25508  -0.24929
  Beta  occ. eigenvalues --   -0.23468  -0.23393  -0.17846  -0.17147  -0.16908
  Beta  occ. eigenvalues --   -0.16033  -0.11504
  Beta virt. eigenvalues --    0.05742   0.06463   0.06771   0.06938   0.07119
  Beta virt. eigenvalues --    0.07428   0.07872   0.08284   0.08636   0.09031
  Beta virt. eigenvalues --    0.09358   0.10011   0.10396   0.10770   0.11006

 Mulliken charges and spin densities:
               1          2
     1  C   -0.041381  -0.614519
     2  C    1.993789  -1.894869
     3  C    0.018513  -0.068282
     4  C   -0.740873  -0.391311
     5  N    0.217491   0.049451
     6  C    0.082685  -0.247987
     7  C   -0.425867  -0.025343
     8  N   -0.036877   0.120612
     9  C    0.714860  -1.077548
    10  C   -0.028286  -0.181275
    11  C    0.297830  -0.128272
    12  O   -0.386018   0.000956
    13  C   -0.732536   1.376496
    14  C   -0.955958   0.778003
    15  C   -0.156228  -0.296605
    16  C    0.736666  -1.116587
    17  C    0.473580  -0.854117
    18  C   -0.734328   0.652218
    19  H   -0.092599   0.227935
    20  H    0.015713   0.140364
    21  H   -0.527872   0.695880
    22  H   -0.405792   0.647086
    23  H    0.241182  -0.150876
    24  H    0.603158  -0.458260
    25  H    0.232787  -0.057134
    26  H    0.248921  -0.015461
    27  H    0.110151   0.061774
    28  H    0.154534  -0.032685
    29  H   -0.010340   0.198939
    30  H    0.206626  -0.001543
    31  H   -0.510568   0.698760
    32  H   -0.389761   0.573033
    33  H   -0.384640   0.535122
    34  H    0.093807   0.067098
    35  H   -0.045402   0.132038
    36  H   -0.210274   0.381096
    37  H   -0.291618   0.469038
    38  H   -0.111639   0.260266
    39  H   -0.271563   0.451892
    40  H    0.048127   0.094619
 Sum of Mulliken charges =  -1.00000   1.00000

 Dipole moment (field-independent basis, Debye):
    X=              0.5762    Y=              1.8059    Z=              3.3238  Tot=              3.8264
 Quadrupole moment (field-independent basis, Debye-Ang):
   XX=           -210.9670   YY=           -171.3046   ZZ=           -147.5449
   XY=              0.7931   XZ=             -2.4001   YZ=             -4.9534

 Summary of Natural Population Analysis:

                                       Natural Population
                Natural  -----------------------------------------------
    Atom  No    Charge         Core      Valence    Rydberg      Total
 -----------------------------------------------------------------------
      C    1   -0.28633      0.99965     2.28000    0.00668     3.28633
      C    2   -0.11855      0.99957     2.10678    0.01220     3.11855
      C    3   -0.19477      0.99960     2.18600    0.00916     3.19477
      C    4   -0.08205      0.99959     2.07125    0.01121     3.08205
      N    5   -0.27810      0.99973     2.76644    0.01193     3.77810
      C    6   -0.08679      0.99961     2.07779    0.00938     3.08679
      C    7   -0.09746      0.99961     2.08871    0.00915     3.09746
      N    8   -0.25247      0.99967     2.74216    0.01065     3.75247
      C    9   -0.09248      0.99961     2.08110    0.01177     3.09248
      C   10   -0.08748      0.99961     2.07559    0.01228     3.08748
      C   11    0.27297      0.99969     1.70468    0.02265     2.72703
      O   12   -0.32185      0.99988     3.31590    0.00607     4.32185
      C   13   -0.00781      0.99950     1.99662    0.01169     3.00781
      C   14   -0.09922      0.99951     2.09028    0.00943     3.09922
      C   15   -0.09934      0.99956     2.08953    0.01025     3.09934
      C   16   -0.10596      0.99956     2.09674    0.00966     3.10596
      C   17   -0.09866      0.99956     2.08950    0.00960     3.09866
      C   18   -0.10664      0.99950     2.09784    0.00930     3.10664
      H   19    0.09540      0.00000     0.40345    0.00115     0.40460
      H   20    0.10154      0.00000     0.39750    0.00096     0.39846
      H   21    0.10570      0.00000     0.39300    0.00130     0.39430
      H   22    0.10392      0.00000     0.39396    0.00212     0.39608
      H   23    0.09538      0.00000     0.40261    0.00201     0.40462
      H   24    0.09958      0.00000     0.39804    0.00238     0.40042
      H   25    0.09390      0.00000     0.40460    0.00151     0.40610
      H   26    0.09737      0.00000     0.40109    0.00154     0.40263
      H   27    0.09142      0.00000     0.40742    0.00116     0.40858
      H   28    0.10131      0.00000     0.39780    0.00089     0.39869
      H   29    0.09445      0.00000     0.40401    0.00154     0.40555
      H   30    0.11386      0.00000     0.38490    0.00124     0.38614
      H   31    0.09699      0.00000     0.40075    0.00227     0.40301
      H   32    0.10126      0.00000     0.39663    0.00211     0.39874
      H   33    0.10385      0.00000     0.39486    0.00129     0.39615
      H   34    0.08959      0.00000     0.40915    0.00126     0.41041
      H   35    0.05212      0.00000     0.44599    0.00188     0.44788
      H   36    0.10146      0.00000     0.39689    0.00165     0.39854
      H   37    0.10107      0.00000     0.39792    0.00101     0.39893
      H   38    0.10021      0.00000     0.39884    0.00095     0.39979
      H   39    0.09973      0.00000     0.39934    0.00093     0.40027
      H   40    0.10290      0.00000     0.39593    0.00117     0.39710
 =======================================================================
   * Total *    0.00000     17.99301    48.78160    0.22540    67.00000

 Normal termination of Gaussian 16 at Sat Dec 12 00:30:53 2020.
