 Gaussian 16, Revision A.03,

 -----------------------------------------------------------
 # opt freq B3LYP/6-31G(d) empiricaldispersion=gd3bj scf=xqc
 -----------------------------------------------------------

 ------------------------------
 CID_63042726_JID_9103_neutraal
 ------------------------------
 Symbolic Z-matrix:
 Charge =  0 Multiplicity = 1

 SCF Done:  E(RB3LYP) =  -879.608130732     A.U. after   14 cycles
 SCF Done:  E(RB3LYP) =  -879.609133559     A.U. after   15 cycles
 SCF Done:  E(RB3LYP) =  -879.611539097     A.U. after   13 cycles
 SCF Done:  E(RB3LYP) =  -879.613669990     A.U. after   13 cycles
 SCF Done:  E(RB3LYP) =  -879.613778443     A.U. after   13 cycles
 SCF Done:  E(RB3LYP) =  -879.614670804     A.U. after   12 cycles
 SCF Done:  E(RB3LYP) =  -879.614840352     A.U. after   12 cycles
 SCF Done:  E(RB3LYP) =  -879.614830328     A.U. after   11 cycles
 SCF Done:  E(RB3LYP) =  -879.614947871     A.U. after   12 cycles
 SCF Done:  E(RB3LYP) =  -879.614988361     A.U. after   11 cycles
 SCF Done:  E(RB3LYP) =  -879.615003471     A.U. after   10 cycles
 SCF Done:  E(RB3LYP) =  -879.615007405     A.U. after    9 cycles
 SCF Done:  E(RB3LYP) =  -879.615008485     A.U. after    8 cycles
 SCF Done:  E(RB3LYP) =  -879.615008645     A.U. after    7 cycles
 Optimization completed.
    -- Stationary point found.
 Normal termination of Gaussian 16 at Sun Dec 13 12:37:31 2020.

 --------------------------------------------------------------------
 #N Geom=AllCheck Guess=TCheck SCRF=Check GenChk RB3LYP/6-31G(d) Freq
 --------------------------------------------------------------------

 Structure from the checkpoint file:  "JID_9103.chk"
 ------------------------------
 CID_63042726_JID_9103_neutraal
 ------------------------------
 Charge =  0 Multiplicity = 1

 SCF Done:  E(RB3LYP) =  -879.615008645     A.U. after    1 cycles

  Exact polarizability: 163.186  16.990 153.207   9.214  -9.369 145.737
 Approx polarizability: 212.505  37.863 246.862  20.820 -24.254 252.635

                      1                      2                      3
                      A                      A                      A
 Frequencies --     26.3695                35.0309                42.2833
 Red. masses --      6.4458                 5.2967                 9.1861
 Frc consts  --      0.0026                 0.0038                 0.0097
 IR Inten    --      0.8534                 1.4401                 0.6235

                      4                      5                      6
                      A                      A                      A
 Frequencies --     51.1955                64.0146                92.6267
 Red. masses --      3.9747                 5.2573                 6.0503
 Frc consts  --      0.0061                 0.0127                 0.0306
 IR Inten    --      0.1049                 0.5428                 0.8383

                      7                      8                      9
                      A                      A                      A
 Frequencies --    111.5796               142.1195               170.5594
 Red. masses --      6.8502                 4.3875                 5.4780
 Frc consts  --      0.0502                 0.0522                 0.0939
 IR Inten    --      1.8807                 0.0372                 2.4345

                     10                     11                     12
                      A                      A                      A
 Frequencies --    208.6854               254.6881               275.5729
 Red. masses --      4.6964                 3.4062                 4.5989
 Frc consts  --      0.1205                 0.1302                 0.2058
 IR Inten    --      0.9399                 0.9871                 0.4608

                     13                     14                     15
                      A                      A                      A
 Frequencies --    290.3151               316.3226               365.6505
 Red. masses --      2.3426                 3.4469                 4.2797
 Frc consts  --      0.1163                 0.2032                 0.3371
 IR Inten    --      0.7887                 2.1759                 0.9470

                     16                     17                     18
                      A                      A                      A
 Frequencies --    372.9822               390.3949               437.6763
 Red. masses --      2.2242                 2.6293                 2.3598
 Frc consts  --      0.1823                 0.2361                 0.2663
 IR Inten    --      1.4960                 0.0441                 1.1303

                     19                     20                     21
                      A                      A                      A
 Frequencies --    462.1667               482.9988               509.4748
 Red. masses --      2.7406                 3.9484                 2.9844
 Frc consts  --      0.3449                 0.5427                 0.4564
 IR Inten    --      3.0875                 0.1470                 1.9051

                     22                     23                     24
                      A                      A                      A
 Frequencies --    527.6920               547.6515               556.8048
 Red. masses --      3.6564                 3.6431                 4.2544
 Frc consts  --      0.5999                 0.6438                 0.7771
 IR Inten    --     14.1989                24.3931                30.1832

                     25                     26                     27
                      A                      A                      A
 Frequencies --    621.8116               632.4653               675.1013
 Red. masses --      3.2176                 1.6535                 2.3298
 Frc consts  --      0.7330                 0.3897                 0.6256
 IR Inten    --     53.0774                14.2472                45.0221

                     28                     29                     30
                      A                      A                      A
 Frequencies --    688.3320               716.6741               735.2136
 Red. masses --      5.3003                 2.0084                 2.6621
 Frc consts  --      1.4796                 0.6078                 0.8478
 IR Inten    --     13.8743                49.5055               105.8711

                     31                     32                     33
                      A                      A                      A
 Frequencies --    754.5956               764.1407               803.8582
 Red. masses --      3.0302                 2.7357                 2.2579
 Frc consts  --      1.0166                 0.9412                 0.8597
 IR Inten    --     17.0879                12.1229                16.1023

                     34                     35                     36
                      A                      A                      A
 Frequencies --    814.3041               834.5974               842.5138
 Red. masses --      1.4928                 2.9358                 2.6364
 Frc consts  --      0.5832                 1.2049                 1.1026
 IR Inten    --     20.2183                 4.5404                 2.4074

                     37                     38                     39
                      A                      A                      A
 Frequencies --    869.8610               888.5354               897.6481
 Red. masses --      2.6032                 2.4942                 1.7601
 Frc consts  --      1.1605                 1.1602                 0.8356
 IR Inten    --     10.8826                 1.2441                11.9200

                     40                     41                     42
                      A                      A                      A
 Frequencies --    903.3867               909.9308               942.8972
 Red. masses --      1.4099                 2.6045                 2.4280
 Frc consts  --      0.6779                 1.2705                 1.2718
 IR Inten    --      4.5801                 7.3751                 3.6221

                     43                     44                     45
                      A                      A                      A
 Frequencies --    974.5923               986.1278              1000.2201
 Red. masses --      1.5676                 1.5556                 1.4296
 Frc consts  --      0.8773                 0.8913                 0.8427
 IR Inten    --      0.7877                 0.5376                 0.1951

                     46                     47                     48
                      A                      A                      A
 Frequencies --   1014.5005              1020.1534              1052.5640
 Red. masses --      5.5777                 2.1832                 2.0522
 Frc consts  --      3.3823                 1.3387                 1.3396
 IR Inten    --      2.3096                 8.5155                 1.9743

                     49                     50                     51
                      A                      A                      A
 Frequencies --   1065.4808              1104.5783              1105.8644
 Red. masses --      2.1935                 1.8909                 2.0100
 Frc consts  --      1.4672                 1.3593                 1.4483
 IR Inten    --      8.5957                18.5497                 0.9467

                     52                     53                     54
                      A                      A                      A
 Frequencies --   1110.2427              1120.5696              1125.2171
 Red. masses --      2.1113                 1.6075                 2.0302
 Frc consts  --      1.5333                 1.1893                 1.5145
 IR Inten    --      6.4533                11.3212               112.3561

                     55                     56                     57
                      A                      A                      A
 Frequencies --   1150.6178              1181.0340              1198.8007
 Red. masses --      1.0367                 1.2092                 2.4225
 Frc consts  --      0.8087                 0.9937                 2.0512
 IR Inten    --      1.9171                33.6284                32.8183

                     58                     59                     60
                      A                      A                      A
 Frequencies --   1220.7779              1235.0786              1258.1649
 Red. masses --      1.5058                 2.5290                 1.2837
 Frc consts  --      1.3222                 2.2729                 1.1973
 IR Inten    --     41.6082                 0.7933                 3.8745

                     61                     62                     63
                      A                      A                      A
 Frequencies --   1284.7645              1299.6261              1308.6672
 Red. masses --      1.2927                 3.1979                 1.2895
 Frc consts  --      1.2572                 3.1824                 1.3011
 IR Inten    --     12.8921                 7.5850                13.9314

                     64                     65                     66
                      A                      A                      A
 Frequencies --   1316.1680              1327.6796              1340.1060
 Red. masses --      1.4288                 2.1255                 1.6307
 Frc consts  --      1.4583                 2.2075                 1.7255
 IR Inten    --      2.3712                 1.2859                 5.7082

                     67                     68                     69
                      A                      A                      A
 Frequencies --   1354.3542              1375.3184              1378.2092
 Red. masses --      1.4540                 1.4058                 1.4534
 Frc consts  --      1.5713                 1.5667                 1.6265
 IR Inten    --     11.3486                 3.1749                24.8678

                     70                     71                     72
                      A                      A                      A
 Frequencies --   1385.7645              1389.6061              1402.7427
 Red. masses --      1.4439                 1.5763                 1.6800
 Frc consts  --      1.6336                 1.7934                 1.9477
 IR Inten    --      2.9439                11.0816                95.7958

                     73                     74                     75
                      A                      A                      A
 Frequencies --   1407.9523              1416.4829              1421.8210
 Red. masses --      1.4592                 1.5819                 1.9378
 Frc consts  --      1.7043                 1.8701                 2.3080
 IR Inten    --      2.2166                40.0149                56.6996

                     76                     77                     78
                      A                      A                      A
 Frequencies --   1463.6422              1504.9833              1509.4093
 Red. masses --      2.1009                 1.0875                 1.1225
 Frc consts  --      2.6517                 1.4513                 1.5068
 IR Inten    --     25.8092                 7.3425                 6.4958

                     79                     80                     81
                      A                      A                      A
 Frequencies --   1510.1115              1521.8090              1531.0329
 Red. masses --      1.0942                 1.1221                 1.3129
 Frc consts  --      1.4702                 1.5310                 1.8132
 IR Inten    --      4.3649                14.8757                60.4893

                     82                     83                     84
                      A                      A                      A
 Frequencies --   1540.1897              1544.5992              1621.2037
 Red. masses --      1.1660                 2.1246                 6.7775
 Frc consts  --      1.6297                 2.9865                10.4954
 IR Inten    --     14.3283                 3.6911                19.4639

                     85                     86                     87
                      A                      A                      A
 Frequencies --   1655.7477              1779.9325              1850.2249
 Red. masses --      5.3088                 7.4134                 9.6198
 Frc consts  --      8.5750                13.8380                19.4029
 IR Inten    --     65.7669               381.0310               281.3629

                     88                     89                     90
                      A                      A                      A
 Frequencies --   3037.1829              3038.6847              3055.7429
 Red. masses --      1.0682                 1.0685                 1.0655
 Frc consts  --      5.8055                 5.8132                 5.8619
 IR Inten    --      6.5302                29.7159                21.5887

                     91                     92                     93
                      A                      A                      A
 Frequencies --   3067.0071              3076.5810              3079.1268
 Red. masses --      1.0645                 1.0609                 1.0832
 Frc consts  --      5.8999                 5.9163                 6.0506
 IR Inten    --     24.5341                11.5686                20.7077

                     94                     95                     96
                      A                      A                      A
 Frequencies --   3093.2688              3107.3656              3111.9666
 Red. masses --      1.0963                 1.0967                 1.1005
 Frc consts  --      6.1803                 6.2391                 6.2795
 IR Inten    --     30.7503                17.5477                12.1043

                     97                     98                     99
                      A                      A                      A
 Frequencies --   3115.5224              3123.5364              3129.1042
 Red. masses --      1.0991                 1.0957                 1.0918
 Frc consts  --      6.2857                 6.2986                 6.2983
 IR Inten    --     34.2516                15.7914                16.9606

                    100                    101                    102
                      A                      A                      A
 Frequencies --   3168.5751              3175.4509              3192.9015
 Red. masses --      1.0875                 1.0897                 1.0944
 Frc consts  --      6.4331                 6.4740                 6.5735
 IR Inten    --     22.3720                26.9891                17.8961

                    103                    104                    105
                      A                      A                      A
 Frequencies --   3211.6042              3567.1348              3670.3410
 Red. masses --      1.0938                 1.0755                 1.0640
 Frc consts  --      6.6473                 8.0631                 8.4453
 IR Inten    --      3.4473               102.9011                60.6349

 - Thermochemistry -
 -------------------
 Temperature   298.150 Kelvin.  Pressure   1.00000 Atm.
 Atom     1 has atomic number  6 and mass  12.00000

 Molecular mass:   262.13174 amu.
 Principal axes and moments of inertia in atomic units:
                           1         2         3
     Eigenvalues --  2510.416747843.485378786.19238
           X            0.99992  -0.01244  -0.00304
           Y            0.01246   0.99990   0.00614
           Z            0.00297  -0.00618   0.99998
 This molecule is an asymmetric top.
 Rotational symmetry number  1.
 Warning -- assumption of classical behavior for rotation
           may cause significant error
 Rotational temperatures (Kelvin)      0.03450     0.01104     0.00986
 Rotational constants (GHZ):           0.71890     0.23009     0.20541
 Zero-point vibrational energy     821945.5 (Joules/Mol)
                                  196.44968 (Kcal/Mol)
 Warning -- explicit consideration of  24 degrees of freedom as
           vibrations may cause significant error
 Vibrational temperatures:     37.94    50.40    60.84    73.66    92.10
          (Kelvin)            133.27   160.54   204.48   245.40   300.25
                              366.44   396.49   417.70   455.12   526.09
                              536.64   561.69   629.72   664.95   694.93
                              733.02   759.23   787.95   801.12   894.65
                              909.98   971.32   990.36  1031.13  1057.81
                             1085.69  1099.43  1156.57  1171.60  1200.80
                             1212.19  1251.54  1278.40  1291.52  1299.77
                             1309.19  1356.62  1402.22  1418.82  1439.09
                             1459.64  1467.77  1514.40  1532.99  1589.24
                             1591.09  1597.39  1612.25  1618.94  1655.48
                             1699.24  1724.81  1756.43  1777.00  1810.22
                             1848.49  1869.87  1882.88  1893.67  1910.23
                             1928.11  1948.61  1978.78  1982.94  1993.81
                             1999.33  2018.23  2025.73  2038.00  2045.68
                             2105.85  2165.34  2171.70  2172.71  2189.54
                             2202.81  2215.99  2222.33  2332.55  2382.25
                             2560.93  2662.06  4369.83  4371.99  4396.53
                             4412.74  4426.51  4430.18  4450.52  4470.81
                             4477.43  4482.54  4494.07  4502.08  4558.87
                             4568.77  4593.87  4620.78  5132.31  5280.80

 Zero-point correction=                           0.313062 (Hartree/Particle)
 Thermal correction to Energy=                    0.329906
 Thermal correction to Enthalpy=                  0.330850
 Thermal correction to Gibbs Free Energy=         0.266433
 Sum of electronic and zero-point Energies=           -879.301946
 Sum of electronic and thermal Energies=              -879.285103
 Sum of electronic and thermal Enthalpies=            -879.284158
 Sum of electronic and thermal Free Energies=         -879.348576

                     E (Thermal)             CV                S
                      KCal/Mol        Cal/Mol-Kelvin    Cal/Mol-Kelvin
 Total                  207.019             65.175            135.578
 Electronic               0.000              0.000              0.000
 Translational            0.889              2.981             42.591
 Rotational               0.889              2.981             33.514
 Vibrational            205.242             59.213             59.474
 Vibration     1          0.593              1.985              6.085
 Vibration     2          0.594              1.982              5.522
 Vibration     3          0.595              1.980              5.149
 Vibration     4          0.595              1.977              4.771
 Vibration     5          0.597              1.971              4.329
 Vibration     6          0.602              1.954              3.604
 Vibration     7          0.607              1.940              3.241
 Vibration     8          0.616              1.911              2.775
 Vibration     9          0.626              1.879              2.429
 Vibration    10          0.642              1.827              2.055
 Vibration    11          0.665              1.755              1.698
 Vibration    12          0.677              1.719              1.561
 Vibration    13          0.686              1.692              1.472
 Vibration    14          0.703              1.642              1.329
 Vibration    15          0.739              1.543              1.098
 Vibration    16          0.744              1.528              1.068
 Vibration    17          0.758              1.491              0.999
 Vibration    18          0.798              1.388              0.834
 Vibration    19          0.820              1.334              0.760
 Vibration    20          0.839              1.288              0.702
 Vibration    21          0.865              1.229              0.635
 Vibration    22          0.883              1.189              0.592
 Vibration    23          0.903              1.145              0.549
 Vibration    24          0.912              1.125              0.530

                           ! Non-Optimized Parameters !
 Normal termination of Gaussian 16 at Sun Dec 13 12:58:06 2020.

 ----------------------------------------------------------------------
 # B3LYP/6-311++G(d,p) empiricaldispersion=gd3bj scf=xqc pop=npa geom=c
 heck
 ----------------------------------------------------------------------

 --------------------------------------
 CID_63042726_JID_9103_Energie_neutraal
 --------------------------------------
 Structure from the checkpoint file:  "JID_9103.chk"
 Charge =  0 Multiplicity = 1

 SCF Done:  E(RB3LYP) =  -879.868873046     A.U. after   15 cycles
 Normal termination of Gaussian 16 at Sun Dec 13 13:06:57 2020.

 ----------------------------------------------------------------------
 # B3LYP/6-311++G(d,p) empiricaldispersion=gd3bj scf=xqc pop=npa geom=c
 heck
 ----------------------------------------------------------------------

 ------------------------------------
 CID_63042726_JID_9103_Energie_kation
 ------------------------------------
 Structure from the checkpoint file:  "JID_9103.chk"
 Charge =  1 Multiplicity = 2

 SCF Done:  E(UB3LYP) =  -879.543274439     A.U. after   33 cycles
 SCF Done:  E(UB3LYP) =  -879.543274483     a.u. after    2 cycles
 Normal termination of Gaussian 16 at Sun Dec 13 14:02:10 2020.
 Gaussian 16:  ES64L-G16RevA.03 25-Dec-2016

 ----------------------------------------------------------------------
 # B3LYP/6-311++G(d,p) empiricaldispersion=gd3bj scf=xqc pop=npa geom=c
 heck
 ----------------------------------------------------------------------

 -----------------------------------
 CID_63042726_JID_9103_Energie_anion
 -----------------------------------
 Structure from the checkpoint file:  "JID_9103.chk"
 Charge = -1 Multiplicity = 2

                         Standard orientation:
 ---------------------------------------------------------------------
 Center     Atomic      Atomic             Coordinates (Angstroms)
 Number     Number       Type             X           Y           Z
 ---------------------------------------------------------------------
      1          6           0        1.258950   -1.768586   -1.195622
      2          6           0        2.607030   -2.035409   -0.509191
      3          6           0        3.013921   -0.971050    0.530854
      4          6           0        1.839584   -0.639817    1.489764
      5          6           0        0.506031   -0.352716    0.777732
      6          6           0        0.145033   -1.508647   -0.174654
      7          7           0        0.544367    0.933270    0.081230
      8          6           0       -0.432608    1.885687    0.004360
      9          8           0       -0.365399    2.804112   -0.805557
     10          6           0       -1.633416    1.755623    0.945613
     11          6           0       -2.599719    0.700198    0.451012
     12          6           0       -3.020599    0.690485   -0.883668
     13          6           0       -3.880728   -0.317771   -1.313127
     14          7           0       -4.341881   -1.297098   -0.522259
     15          6           0       -3.941718   -1.275674    0.753859
     16          6           0       -3.082349   -0.312008    1.282901
     17          6           0        3.621244    0.307661   -0.023114
     18          8           0        4.373994    1.026124    0.592097
     19          8           0        3.227026    0.608270   -1.295637
     20          1           0        0.994901   -2.630810   -1.818490
     21          1           0        1.348869   -0.914453   -1.874481
     22          1           0        2.541168   -2.991733    0.027291
     23          1           0        3.399275   -2.150267   -1.256808
     24          1           0        3.819405   -1.374993    1.153320
     25          1           0        2.113629    0.199996    2.135854
     26          1           0        1.689702   -1.515281    2.133491
     27          1           0       -0.265619   -0.278965    1.545609
     28          1           0       -0.799509   -1.282604   -0.678648
     29          1           0       -0.019738   -2.411817    0.429352
     30          1           0        1.240914    1.037362   -0.649121
     31          1           0       -1.323035    1.535816    1.972104
     32          1           0       -2.112897    2.738352    0.943420
     33          1           0       -2.667699    1.451524   -1.573189
     34          1           0       -4.215228   -0.344348   -2.348619
     35          1           0       -4.323767   -2.073356    1.388871
     36          1           0       -2.792036   -0.355647    2.329437
     37          1           0        3.665360    1.452116   -1.519720
 ---------------------------------------------------------------------

 SCF Done:  E(UB3LYP) =  -879.867607693     A.U. after   33 cycles
 SCF Done:  E(UB3LYP) =  -879.867607693     a.u. after    1 cycles

 The electronic state is 2-A.
 Alpha  occ. eigenvalues --  -19.09281 -19.03111 -18.99027 -14.23361 -14.18820
 Alpha  occ. eigenvalues --  -10.21896 -10.17620 -10.11824 -10.10137 -10.09532
 Alpha  occ. eigenvalues --  -10.09497 -10.08726 -10.08336 -10.08159 -10.07938
 Alpha  occ. eigenvalues --  -10.07127 -10.07079 -10.06815 -10.06707  -1.02959
 Alpha  occ. eigenvalues --   -0.94135  -0.93909  -0.83124  -0.82936  -0.74183
 Alpha  occ. eigenvalues --   -0.71970  -0.67029  -0.65519  -0.65172  -0.63027
 Alpha  occ. eigenvalues --   -0.57210  -0.53566  -0.52399  -0.52047  -0.51164
 Alpha  occ. eigenvalues --   -0.48779  -0.46583  -0.41493  -0.41123  -0.40361
 Alpha  occ. eigenvalues --   -0.39375  -0.39131  -0.38072  -0.36408  -0.36176
 Alpha  occ. eigenvalues --   -0.35861  -0.35147  -0.34311  -0.32452  -0.32347
 Alpha  occ. eigenvalues --   -0.31954  -0.31017  -0.29941  -0.29478  -0.29190
 Alpha  occ. eigenvalues --   -0.28592  -0.27845  -0.27709  -0.26603  -0.25259
 Alpha  occ. eigenvalues --   -0.24808  -0.23799  -0.22506  -0.21798  -0.19586
 Alpha  occ. eigenvalues --   -0.18046  -0.16018  -0.15896  -0.15531  -0.14852
 Alpha  occ. eigenvalues --    0.03872
 Alpha virt. eigenvalues --    0.05621   0.06469   0.07363   0.07485   0.08255
 Alpha virt. eigenvalues --    0.08289   0.09048   0.09121   0.09570   0.10080
 Alpha virt. eigenvalues --    0.10837   0.11119   0.11616   0.11761   0.12382

  Beta  occ. eigenvalues --  -19.09266 -19.03089 -18.99028 -14.23349 -14.18559
  Beta  occ. eigenvalues --  -10.21850 -10.17591 -10.11823 -10.10132 -10.09507
  Beta  occ. eigenvalues --  -10.09471 -10.08742 -10.08300 -10.07916 -10.07900
  Beta  occ. eigenvalues --  -10.07129 -10.07072 -10.06818 -10.06692  -1.02911
  Beta  occ. eigenvalues --   -0.94123  -0.93872  -0.83025  -0.82665  -0.74134
  Beta  occ. eigenvalues --   -0.71625  -0.66984  -0.65475  -0.65037  -0.62918
  Beta  occ. eigenvalues --   -0.57132  -0.53518  -0.52334  -0.51972  -0.50922
  Beta  occ. eigenvalues --   -0.48661  -0.46525  -0.41409  -0.41070  -0.40285
  Beta  occ. eigenvalues --   -0.39317  -0.39075  -0.37960  -0.36284  -0.36107
  Beta  occ. eigenvalues --   -0.35779  -0.35099  -0.34264  -0.32401  -0.32114
  Beta  occ. eigenvalues --   -0.31913  -0.30943  -0.29882  -0.29400  -0.29146
  Beta  occ. eigenvalues --   -0.28360  -0.27725  -0.27399  -0.26506  -0.25165
  Beta  occ. eigenvalues --   -0.24726  -0.23756  -0.22467  -0.21754  -0.19546
  Beta  occ. eigenvalues --   -0.17257  -0.15697  -0.15513  -0.15464  -0.14581
  Beta virt. eigenvalues --    0.06177   0.06955   0.07425   0.07723   0.07998
  Beta virt. eigenvalues --    0.08394   0.08441   0.09122   0.09397   0.09954
  Beta virt. eigenvalues --    0.10339   0.11069   0.11226   0.11800   0.11944

 Mulliken charges and spin densities:
               1          2
     1  C   -0.158979  -0.101388
     2  C    0.603284  -1.464822
     3  C   -0.415963   1.006814
     4  C    1.097048  -1.568942
     5  C   -0.571231   0.993782
     6  C   -0.319898  -0.515053
     7  N   -0.055082  -0.018031
     8  C   -0.075153  -0.089688
     9  O   -0.291436  -0.003548
    10  C   -0.331462  -0.197675
    11  C    0.400613  -0.049120
    12  C   -0.173295   0.371253
    13  C   -0.504746  -0.028490
    14  N   -0.108315   0.097972
    15  C   -0.348430  -0.164679
    16  C   -0.017406   0.190127
    17  C    0.041275  -0.386852
    18  O   -0.254570   0.017099
    19  O   -0.190238   0.016795
    20  H   -0.029220   0.204205
    21  H    0.103228   0.075649
    22  H   -0.196758   0.356074
    23  H   -0.044549   0.228271
    24  H   -0.378795   0.663603
    25  H    0.235958  -0.021547
    26  H   -0.632638   0.816823
    27  H    0.267307  -0.042851
    28  H    0.278965  -0.095749
    29  H   -0.174274   0.334978
    30  H    0.450415  -0.148495
    31  H    0.061696   0.100290
    32  H    0.221188   0.003898
    33  H    0.187322   0.014807
    34  H    0.131372   0.006064
    35  H    0.061336   0.079607
    36  H   -0.064034   0.226836
    37  H    0.195468   0.091983
 Sum of Mulliken charges =  -1.00000   1.00000

 Dipole moment (field-independent basis, Debye):
    X=             -0.1969    Y=              3.1777    Z=             -1.7786  Tot=              3.6469
 Quadrupole moment (field-independent basis, Debye-Ang):
   XX=           -189.9981   YY=           -161.3181   ZZ=           -139.4196
   XY=             -1.0413   XZ=            -14.7197   YZ=              7.8069

 Summary of Natural Population Analysis:

                                       Natural Population
                Natural  -----------------------------------------------
    Atom  No    Charge         Core      Valence    Rydberg      Total
 -----------------------------------------------------------------------
      C    1   -0.19416      0.99962     2.18649    0.00805     3.19416
      C    2   -0.18994      0.99962     2.18044    0.00988     3.18994
      C    3   -0.15907      0.99953     2.14696    0.01258     3.15907
      C    4   -0.18409      0.99959     2.17404    0.01046     3.18409
      C    5   -0.01534      0.99957     2.00218    0.01360     3.01534
      C    6   -0.19453      0.99960     2.18630    0.00863     3.19453
      N    7   -0.32752      0.99964     2.81843    0.00944     3.82752
      C    8    0.35522      0.99967     1.62237    0.02274     2.64478
      O    9   -0.33112      0.99988     3.32572    0.00552     4.33112
      C   10   -0.24451      0.99956     2.23623    0.00872     3.24451
      C   11    0.03658      0.99950     1.95460    0.00932     2.96342
      C   12   -0.12956      0.99950     2.12145    0.00861     3.12956
      C   13    0.02826      0.99960     1.95683    0.01532     2.97174
      N   14   -0.20903      0.99972     2.69812    0.01120     3.70903
      C   15    0.02874      0.99960     1.95530    0.01636     2.97126
      C   16   -0.13023      0.99950     2.12142    0.00932     3.13023
      C   17    0.41644      0.99967     1.55756    0.02633     2.58356
      O   18   -0.30370      0.99987     3.29775    0.00609     4.30370
      O   19   -0.35567      0.99988     3.34929    0.00650     4.35567
      H   20    0.10115      0.00000     0.39800    0.00085     0.39885
      H   21    0.09861      0.00000     0.39969    0.00170     0.40139
      H   22    0.10251      0.00000     0.39593    0.00156     0.39749
      H   23    0.10132      0.00000     0.39745    0.00123     0.39868
      H   24    0.12051      0.00000     0.37764    0.00185     0.37949
      H   25    0.10694      0.00000     0.39193    0.00113     0.39306
      H   26    0.10957      0.00000     0.38767    0.00276     0.39043
      H   27    0.10741      0.00000     0.39026    0.00233     0.39259
      H   28    0.10928      0.00000     0.38895    0.00177     0.39072
      H   29    0.10051      0.00000     0.39794    0.00155     0.39949
      H   30    0.19906      0.00000     0.29754    0.00340     0.30094
      H   31    0.10661      0.00000     0.39243    0.00096     0.39339
      H   32    0.11842      0.00000     0.38061    0.00097     0.38158
      H   33    0.10785      0.00000     0.39125    0.00090     0.39215
      H   34    0.08512      0.00000     0.41389    0.00100     0.41488
      H   35    0.08618      0.00000     0.41262    0.00119     0.41382
      H   36    0.10041      0.00000     0.39859    0.00100     0.39959
      H   37    0.24178      0.00000     0.25504    0.00317     0.25822
 =======================================================================
   * Total *    0.00000     18.99309    50.75892    0.24799    70.00000

 Normal termination of Gaussian 16 at Sun Dec 13 14:27:41 2020.
