 Gaussian 16, Revision A.03,

 -----------------------------------------------------------
 # opt freq B3LYP/6-31G(d) empiricaldispersion=gd3bj scf=xqc
 -----------------------------------------------------------

 ------------------------------
 CID_55216938_JID_8345_neutraal
 ------------------------------
 Symbolic Z-matrix:
 Charge =  0 Multiplicity = 1

 SCF Done:  E(RB3LYP) =  -785.700109496     A.U. after   14 cycles
 SCF Done:  E(RB3LYP) =  -785.704944678     A.U. after   13 cycles
 SCF Done:  E(RB3LYP) =  -785.701046605     A.U. after   13 cycles
 SCF Done:  E(RB3LYP) =  -785.703781618     A.U. after   13 cycles
 SCF Done:  E(RB3LYP) =  -785.706336660     A.U. after   10 cycles
 SCF Done:  E(RB3LYP) =  -785.707121776     A.U. after   12 cycles
 SCF Done:  E(RB3LYP) =  -785.707439444     A.U. after   11 cycles
 SCF Done:  E(RB3LYP) =  -785.707573522     A.U. after   11 cycles
 SCF Done:  E(RB3LYP) =  -785.707606805     A.U. after   10 cycles
 SCF Done:  E(RB3LYP) =  -785.707614090     A.U. after   11 cycles
 SCF Done:  E(RB3LYP) =  -785.707616470     A.U. after    8 cycles
 SCF Done:  E(RB3LYP) =  -785.707617055     A.U. after    8 cycles
 SCF Done:  E(RB3LYP) =  -785.707617178     A.U. after    8 cycles
 SCF Done:  E(RB3LYP) =  -785.707617230     A.U. after    7 cycles
 Optimization completed.
    -- Stationary point found.
 Normal termination of Gaussian 16 at Fri Dec 11 20:12:38 2020.

 --------------------------------------------------------------------
 #N Geom=AllCheck Guess=TCheck SCRF=Check GenChk RB3LYP/6-31G(d) Freq
 --------------------------------------------------------------------

 Structure from the checkpoint file:  "JID_8345.chk"
 ------------------------------
 CID_55216938_JID_8345_neutraal
 ------------------------------
 Charge =  0 Multiplicity = 1

 SCF Done:  E(RB3LYP) =  -785.707617230     A.U. after    1 cycles

  Exact polarizability: 162.032  -6.669 172.451  16.142  11.240 146.103
 Approx polarizability: 212.759 -10.433 294.991  33.220  28.228 239.349

                      1                      2                      3
                      A                      A                      A
 Frequencies --     19.8109                41.0515                70.6690
 Red. masses --      4.2309                 4.4072                 4.2878
 Frc consts  --      0.0010                 0.0044                 0.0126
 IR Inten    --      0.3392                 0.0806                 0.4166

                      4                      5                      6
                      A                      A                      A
 Frequencies --     83.8131               128.5405               152.6579
 Red. masses --      3.7926                 4.3177                 3.0527
 Frc consts  --      0.0157                 0.0420                 0.0419
 IR Inten    --      0.1589                 1.0249                 3.8356

                      7                      8                      9
                      A                      A                      A
 Frequencies --    164.9812               210.8069               217.5985
 Red. masses --      3.6387                 2.5320                 1.2413
 Frc consts  --      0.0584                 0.0663                 0.0346
 IR Inten    --      3.8308                 1.3516                 1.3589

                     10                     11                     12
                      A                      A                      A
 Frequencies --    224.4257               249.2291               276.5562
 Red. masses --      1.2764                 3.8033                 2.5861
 Frc consts  --      0.0379                 0.1392                 0.1165
 IR Inten    --      0.7852                 0.9405                 7.2758

                     13                     14                     15
                      A                      A                      A
 Frequencies --    293.6640               304.8297               372.0519
 Red. masses --      3.6773                 3.0476                 2.3898
 Frc consts  --      0.1868                 0.1668                 0.1949
 IR Inten    --      4.7656                 2.5619                 4.0704

                     16                     17                     18
                      A                      A                      A
 Frequencies --    410.6155               422.6766               427.8832
 Red. masses --      3.6053                 2.1002                 3.3171
 Frc consts  --      0.3581                 0.2211                 0.3578
 IR Inten    --      4.9208                12.1510                 3.2228

                     19                     20                     21
                      A                      A                      A
 Frequencies --    443.7971               447.5960               466.3743
 Red. masses --      1.2408                 2.1177                 3.3216
 Frc consts  --      0.1440                 0.2500                 0.4257
 IR Inten    --     32.1909                 1.0127                 4.6592

                     22                     23                     24
                      A                      A                      A
 Frequencies --    477.5007               490.4903               524.8084
 Red. masses --      2.2645                 2.4196                 4.4860
 Frc consts  --      0.3042                 0.3430                 0.7280
 IR Inten    --      0.9210                 1.5735                16.5217

                     25                     26                     27
                      A                      A                      A
 Frequencies --    541.3990               557.0723               581.4501
 Red. masses --      3.3858                 3.7132                 4.1484
 Frc consts  --      0.5847                 0.6789                 0.8263
 IR Inten    --      9.9513                 2.8218                 3.3121

                     28                     29                     30
                      A                      A                      A
 Frequencies --    619.8305               672.8814               691.4849
 Red. masses --      4.5068                 3.3236                 1.3794
 Frc consts  --      1.0202                 0.8866                 0.3886
 IR Inten    --      7.9113                16.1095               299.0086

                     31                     32                     33
                      A                      A                      A
 Frequencies --    718.7151               729.7739               750.5531
 Red. masses --      3.2859                 2.8048                 3.1575
 Frc consts  --      1.0000                 0.8801                 1.0480
 IR Inten    --     24.2007                 8.4893                 6.7083

                     34                     35                     36
                      A                      A                      A
 Frequencies --    758.2971               770.7614               816.9707
 Red. masses --      1.4816                 2.5702                 3.4875
 Frc consts  --      0.5019                 0.8996                 1.3714
 IR Inten    --     63.5999                 3.5585                 6.4175

                     37                     38                     39
                      A                      A                      A
 Frequencies --    855.9927               863.1387               882.3543
 Red. masses --      1.6410                 2.6737                 3.8459
 Frc consts  --      0.7084                 1.1736                 1.7642
 IR Inten    --      7.4995                 2.0556                 0.8718

                     40                     41                     42
                      A                      A                      A
 Frequencies --    897.4368               922.9517               934.6020
 Red. masses --      1.7312                 2.2113                 1.4320
 Frc consts  --      0.8215                 1.1098                 0.7370
 IR Inten    --      4.6001                 8.3442                 0.8255

                     43                     44                     45
                      A                      A                      A
 Frequencies --    949.9360               962.0536               969.0550
 Red. masses --      2.1968                 1.2298                 2.1473
 Frc consts  --      1.1679                 0.6706                 1.1881
 IR Inten    --      0.4543                 0.0525                14.5338

                     46                     47                     48
                      A                      A                      A
 Frequencies --   1010.0628              1060.3684              1061.6908
 Red. masses --      2.1881                 2.0292                 2.1017
 Frc consts  --      1.3153                 1.3442                 1.3958
 IR Inten    --      9.9491                30.4723                18.6057

                     49                     50                     51
                      A                      A                      A
 Frequencies --   1073.7578              1077.3591              1106.3862
 Red. masses --      2.3098                 1.8346                 1.8207
 Frc consts  --      1.5691                 1.2546                 1.3131
 IR Inten    --      3.3158                17.5334                 9.4759

                     52                     53                     54
                      A                      A                      A
 Frequencies --   1115.2740              1142.2240              1167.1395
 Red. masses --      1.9602                 1.6391                 1.4064
 Frc consts  --      1.4365                 1.2600                 1.1288
 IR Inten    --     11.5366                27.1879                11.6209

                     55                     56                     57
                      A                      A                      A
 Frequencies --   1169.9737              1187.1541              1196.4067
 Red. masses --      1.4834                 1.3887                 1.1435
 Frc consts  --      1.1964                 1.1531                 0.9643
 IR Inten    --     10.2602                 8.9068                 7.1717

                     58                     59                     60
                      A                      A                      A
 Frequencies --   1203.5165              1215.4340              1220.2586
 Red. masses --      1.3951                 2.7674                 2.3534
 Frc consts  --      1.1905                 2.4087                 2.0646
 IR Inten    --     16.2804                14.3000                 3.2726

                     61                     62                     63
                      A                      A                      A
 Frequencies --   1272.6109              1276.8518              1301.6053
 Red. masses --      2.4649                 1.5664                 1.4904
 Frc consts  --      2.3520                 1.5046                 1.4877
 IR Inten    --      6.0197                15.9854                65.2256

                     64                     65                     66
                      A                      A                      A
 Frequencies --   1322.5113              1333.5435              1337.6729
 Red. masses --      1.4512                 1.5748                 2.3364
 Frc consts  --      1.4955                 1.6500                 2.4631
 IR Inten    --      6.6209                 7.5578                43.2951

                     67                     68                     69
                      A                      A                      A
 Frequencies --   1354.8839              1363.4956              1373.7314
 Red. masses --      1.5347                 1.5650                 1.2801
 Frc consts  --      1.6599                 1.7142                 1.4233
 IR Inten    --     22.6117                 7.9021                 2.1466

                     70                     71                     72
                      A                      A                      A
 Frequencies --   1380.6836              1397.7356              1411.6729
 Red. masses --      3.6784                 1.3206                 1.2840
 Frc consts  --      4.1314                 1.5201                 1.5076
 IR Inten    --     10.8966                 2.7642                 4.7941

                     73                     74                     75
                      A                      A                      A
 Frequencies --   1420.5324              1442.1144              1484.6818
 Red. masses --      1.4355                 1.2882                 1.2321
 Frc consts  --      1.7067                 1.5784                 1.6002
 IR Inten    --     16.6396                 4.5280                26.5183

                     76                     77                     78
                      A                      A                      A
 Frequencies --   1490.4733              1504.9684              1508.5212
 Red. masses --      1.9450                 1.0989                 1.2054
 Frc consts  --      2.5457                 1.4664                 1.6162
 IR Inten    --     78.6058                10.7577                13.5707

                     79                     80                     81
                      A                      A                      A
 Frequencies --   1511.5410              1515.1366              1521.5072
 Red. masses --      2.0824                 1.2007                 1.1198
 Frc consts  --      2.8032                 1.6240                 1.5274
 IR Inten    --     11.6641                62.3765                 5.9995

                     82                     83                     84
                      A                      A                      A
 Frequencies --   1524.6006              1532.3658              1539.9804
 Red. masses --      1.0672                 1.1310                 1.0778
 Frc consts  --      1.4615                 1.5648                 1.5060
 IR Inten    --     19.7919                23.0095                 3.9285

                     85                     86                     87
                      A                      A                      A
 Frequencies --   1545.1951              1550.4502              1636.0803
 Red. masses --      1.0556                 2.4086                 5.5225
 Frc consts  --      1.4850                 3.4114                 8.7096
 IR Inten    --      3.2272                33.2363                 2.6814

                     88                     89                     90
                      A                      A                      A
 Frequencies --   1664.0215              1707.8672              1736.1699
 Red. masses --      5.1441                 4.4676                 1.3429
 Frc consts  --      8.3922                 7.6777                 2.3850
 IR Inten    --     12.3381               382.3485                20.7569

                     91                     92                     93
                      A                      A                      A
 Frequencies --   2954.6793              3046.4524              3048.6061
 Red. masses --      1.0607                 1.0739                 1.0804
 Frc consts  --      5.4558                 5.8721                 5.9160
 IR Inten    --     59.7617                25.8486                20.3521

                     94                     95                     96
                      A                      A                      A
 Frequencies --   3061.3456              3066.1791              3070.2155
 Red. masses --      1.0739                 1.0469                 1.0543
 Frc consts  --      5.9298                 5.7992                 5.8553
 IR Inten    --     97.8880                18.4463                 2.1020

                     97                     98                     99
                      A                      A                      A
 Frequencies --   3072.1228              3074.6235              3116.3754
 Red. masses --      1.0596                 1.0690                 1.1036
 Frc consts  --      5.8922                 5.9539                 6.3151
 IR Inten    --     16.5008                58.1173                15.9644

                    100                    101                    102
                      A                      A                      A
 Frequencies --   3118.1264              3119.6782              3137.7564
 Red. masses --      1.1049                 1.1042                 1.1023
 Frc consts  --      6.3291                 6.3317                 6.3943
 IR Inten    --      5.3661                45.1445                15.6142

                    103                    104                    105
                      A                      A                      A
 Frequencies --   3146.6683              3165.7016              3171.8292
 Red. masses --      1.1017                 1.0875                 1.0878
 Frc consts  --      6.4271                 6.4213                 6.4480
 IR Inten    --     22.9252                21.4794                 7.2268

                    106                    107                    108
                      A                      A                      A
 Frequencies --   3173.2926              3191.1995              3192.7845
 Red. masses --      1.0934                 1.0889                 1.0909
 Frc consts  --      6.4873                 6.5336                 6.5521
 IR Inten    --      3.8387                14.3075                25.8409

                    109                    110                    111
                      A                      A                      A
 Frequencies --   3211.5711              3474.9177              3633.3341
 Red. masses --      1.0965                 1.0586                 1.0903
 Frc consts  --      6.6631                 7.5311                 8.4804
 IR Inten    --     23.5018               187.0723                38.1716

 - Thermochemistry -
 -------------------
 Temperature   298.150 Kelvin.  Pressure   1.00000 Atm.
 Atom     1 has atomic number  6 and mass  12.00000

 Molecular mass:   247.16846 amu.
 Principal axes and moments of inertia in atomic units:
                           1         2         3
     Eigenvalues --  2785.068535344.590936125.56005
           X            0.99994   0.01041   0.00212
           Y           -0.01049   0.99916   0.03968
           Z           -0.00171  -0.03970   0.99921
 This molecule is an asymmetric top.
 Rotational symmetry number  1.
 Warning -- assumption of classical behavior for rotation
           may cause significant error
 Rotational temperatures (Kelvin)      0.03110     0.01621     0.01414
 Rotational constants (GHZ):           0.64801     0.33768     0.29462
 Zero-point vibrational energy     900709.1 (Joules/Mol)
                                  215.27465 (Kcal/Mol)
 Warning -- explicit consideration of  28 degrees of freedom as
           vibrations may cause significant error
 Vibrational temperatures:     28.50    59.06   101.68   120.59   184.94
          (Kelvin)            219.64   237.37   303.30   313.08   322.90
                              358.59   397.90   422.52   438.58   535.30
                              590.78   608.14   615.63   638.52   643.99
                              671.01   687.02   705.71   755.08   778.95
                              801.50   836.58   891.80   968.13   994.89
                             1034.07  1049.98  1079.88  1091.02  1108.95
                             1175.44  1231.58  1241.86  1269.51  1291.21
                             1327.92  1344.68  1366.75  1384.18  1394.25
                             1453.26  1525.63  1527.54  1544.90  1550.08
                             1591.84  1604.63  1643.41  1679.25  1683.33
                             1708.05  1721.36  1731.59  1748.74  1755.68
                             1831.00  1837.11  1872.72  1902.80  1918.67
                             1924.61  1949.38  1961.77  1976.49  1986.50
                             2011.03  2031.08  2043.83  2074.88  2136.13
                             2144.46  2165.31  2170.43  2174.77  2179.94
                             2189.11  2193.56  2204.73  2215.69  2223.19
                             2230.75  2353.95  2394.16  2457.24  2497.96
                             4251.12  4383.17  4386.26  4404.59  4411.55
                             4417.36  4420.10  4423.70  4483.77  4486.29
                             4488.52  4514.53  4527.35  4554.74  4563.55
                             4565.66  4591.42  4593.70  4620.73  4999.63
                             5227.56

 Zero-point correction=                           0.343062 (Hartree/Particle)
 Thermal correction to Energy=                    0.359683
 Thermal correction to Enthalpy=                  0.360627
 Thermal correction to Gibbs Free Energy=         0.298862
 Sum of electronic and zero-point Energies=           -785.364555
 Sum of electronic and thermal Energies=              -785.347934
 Sum of electronic and thermal Enthalpies=            -785.346990
 Sum of electronic and thermal Free Energies=         -785.408755

                     E (Thermal)             CV                S
                      KCal/Mol        Cal/Mol-Kelvin    Cal/Mol-Kelvin
 Total                  225.704             66.824            129.995
 Electronic               0.000              0.000              0.000
 Translational            0.889              2.981             42.415
 Rotational               0.889              2.981             32.878
 Vibrational            223.927             60.863             54.702
 Vibration     1          0.593              1.986              6.653
 Vibration     2          0.594              1.981              5.208
 Vibration     3          0.598              1.968              4.135
 Vibration     4          0.601              1.960              3.800
 Vibration     5          0.611              1.925              2.968
 Vibration     6          0.619              1.900              2.639
 Vibration     7          0.623              1.885              2.492
 Vibration     8          0.643              1.824              2.037
 Vibration     9          0.646              1.814              1.979
 Vibration    10          0.649              1.804              1.923
 Vibration    11          0.662              1.764              1.736
 Vibration    12          0.678              1.717              1.555
 Vibration    13          0.688              1.686              1.453
 Vibration    14          0.696              1.665              1.390
 Vibration    15          0.744              1.530              1.071
 Vibration    16          0.775              1.447              0.924
 Vibration    17          0.785              1.421              0.883
 Vibration    18          0.789              1.410              0.866
 Vibration    19          0.803              1.375              0.815
 Vibration    20          0.807              1.366              0.803
 Vibration    21          0.824              1.325              0.748
 Vibration    22          0.834              1.300              0.717
 Vibration    23          0.846              1.271              0.682
 Vibration    24          0.880              1.195              0.599
 Vibration    25          0.896              1.159              0.562
 Vibration    26          0.913              1.124              0.530
 Vibration    27          0.938              1.071              0.483
 Vibration    28          0.980              0.990              0.417

 Optimization completed.
    -- Stationary point found.
 Normal termination of Gaussian 16 at Fri Dec 11 20:33:50 2020.

 ----------------------------------------------------------------------
 # B3LYP/6-311++G(d,p) empiricaldispersion=gd3bj scf=xqc pop=npa geom=c
 heck
 ----------------------------------------------------------------------

 --------------------------------------
 CID_55216938_JID_8345_Energie_neutraal
 --------------------------------------
 Structure from the checkpoint file:  "JID_8345.chk"
 Charge =  0 Multiplicity = 1

 SCF Done:  E(RB3LYP) =  -785.925948645     A.U. after   16 cycles
 Normal termination of Gaussian 16 at Fri Dec 11 20:43:57 2020.

 ----------------------------------------------------------------------
 # B3LYP/6-311++G(d,p) empiricaldispersion=gd3bj scf=xqc pop=npa geom=c
 heck
 ----------------------------------------------------------------------

 ------------------------------------
 CID_55216938_JID_8345_Energie_kation
 ------------------------------------
 Structure from the checkpoint file:  "JID_8345.chk"
 Charge =  1 Multiplicity = 2

 SCF Done:  E(UB3LYP) =  -785.664112942     A.U. after   24 cycles
 Normal termination of Gaussian 16 at Fri Dec 11 21:05:26 2020.
 Gaussian 16:  ES64L-G16RevA.03 25-Dec-2016

 ----------------------------------------------------------------------
 # B3LYP/6-311++G(d,p) empiricaldispersion=gd3bj scf=xqc pop=npa geom=c
 heck
 ----------------------------------------------------------------------

 -----------------------------------
 CID_55216938_JID_8345_Energie_anion
 -----------------------------------
 Structure from the checkpoint file:  "JID_8345.chk"
 Charge = -1 Multiplicity = 2

                         Standard orientation:
 ---------------------------------------------------------------------
 Center     Atomic      Atomic             Coordinates (Angstroms)
 Number     Number       Type             X           Y           Z
 ---------------------------------------------------------------------
      1          6           0       -1.304964    0.379402    2.087404
      2          6           0       -2.460290    0.179533    1.101317
      3          6           0       -2.390897    1.180327   -0.073851
      4          7           0       -1.255300    0.850379   -0.938497
      5          6           0       -1.332875   -0.507320   -1.475631
      6          6           0       -1.425515   -1.513385   -0.313210
      7          7           0       -2.508453   -1.217076    0.627196
      8          6           0       -3.820247   -1.613883    0.133652
      9          6           0       -0.136827    1.626976   -0.880359
     10          8           0       -0.117931    2.682698   -0.233372
     11          6           0        1.138205    1.148907   -1.582217
     12          6           0        1.881677    0.118523   -0.752777
     13          6           0        2.047644   -1.188179   -1.218172
     14          6           0        2.698853   -2.165944   -0.468083
     15          6           0        3.203625   -1.821586    0.786869
     16          6           0        3.068410   -0.524190    1.266406
     17          6           0        2.418963    0.470742    0.511293
     18          7           0        2.369152    1.778241    0.972069
     19          1           0       -1.386942   -0.345553    2.902219
     20          1           0       -1.330676    1.391895    2.502596
     21          1           0       -0.329149    0.246453    1.612221
     22          1           0       -3.400890    0.361126    1.636142
     23          1           0       -3.306279    1.125420   -0.675804
     24          1           0       -2.261846    2.203639    0.275768
     25          1           0       -0.467954   -0.722930   -2.098205
     26          1           0       -2.224297   -0.568769   -2.113525
     27          1           0       -0.471139   -1.507507    0.222004
     28          1           0       -1.571389   -2.525373   -0.707025
     29          1           0       -4.171739   -1.074002   -0.764946
     30          1           0       -3.804462   -2.682248   -0.107914
     31          1           0       -4.563287   -1.458741    0.923235
     32          1           0        0.925577    0.744432   -2.575979
     33          1           0        1.746776    2.049307   -1.715143
     34          1           0        1.659940   -1.441908   -2.202694
     35          1           0        2.812286   -3.172818   -0.857180
     36          1           0        3.708724   -2.565665    1.396775
     37          1           0        3.473761   -0.259110    2.240383
     38          1           0        1.588476    2.349841    0.655054
     39          1           0        2.565605    1.890577    1.957769
 ---------------------------------------------------------------------

 SCF Done:  E(UB3LYP) =  -785.914202610     A.U. after   33 cycles
 SCF Done:  E(UB3LYP) =  -785.914202610     a.u. after    1 cycles

 The electronic state is 2-A.
 Alpha  occ. eigenvalues --  -19.00008 -14.25512 -14.22394 -14.20847 -10.18562
 Alpha  occ. eigenvalues --  -10.12793 -10.11105 -10.10935 -10.10490 -10.09758
 Alpha  occ. eigenvalues --  -10.09708 -10.09422 -10.08835 -10.08597 -10.08456
 Alpha  occ. eigenvalues --  -10.08134 -10.07567 -10.06325  -0.95245  -0.86359
 Alpha  occ. eigenvalues --   -0.83299  -0.81696  -0.75396  -0.70179  -0.68713
 Alpha  occ. eigenvalues --   -0.64978  -0.64186  -0.62316  -0.59147  -0.57766
 Alpha  occ. eigenvalues --   -0.54328  -0.52495  -0.50809  -0.48846  -0.43913
 Alpha  occ. eigenvalues --   -0.43739  -0.42743  -0.40255  -0.39366  -0.38867
 Alpha  occ. eigenvalues --   -0.38489  -0.38099  -0.36055  -0.35569  -0.34893
 Alpha  occ. eigenvalues --   -0.34421  -0.33342  -0.32512  -0.31842  -0.31059
 Alpha  occ. eigenvalues --   -0.30633  -0.29802  -0.29539  -0.28583  -0.28345
 Alpha  occ. eigenvalues --   -0.26772  -0.26539  -0.25915  -0.25003  -0.24855
 Alpha  occ. eigenvalues --   -0.24303  -0.22545  -0.18177  -0.17110  -0.15921
 Alpha  occ. eigenvalues --   -0.11999  -0.11094   0.04078
 Alpha virt. eigenvalues --    0.05834   0.06196   0.06857   0.07341   0.07899
 Alpha virt. eigenvalues --    0.08184   0.08656   0.09097   0.09399   0.09563
 Alpha virt. eigenvalues --    0.10267   0.10584   0.10892   0.11516   0.11621

  Beta  occ. eigenvalues --  -19.00004 -14.25514 -14.22388 -14.20847 -10.18559
  Beta  occ. eigenvalues --  -10.12791 -10.11074 -10.10924 -10.10473 -10.09748
  Beta  occ. eigenvalues --  -10.09692 -10.09422 -10.08794 -10.08590 -10.08441
  Beta  occ. eigenvalues --  -10.08127 -10.07557 -10.06316  -0.95239  -0.86347
  Beta  occ. eigenvalues --   -0.83290  -0.81684  -0.75379  -0.70161  -0.68687
  Beta  occ. eigenvalues --   -0.64947  -0.64159  -0.62295  -0.59122  -0.57703
  Beta  occ. eigenvalues --   -0.54284  -0.52465  -0.50791  -0.48821  -0.43881
  Beta  occ. eigenvalues --   -0.43685  -0.42716  -0.40234  -0.39339  -0.38842
  Beta  occ. eigenvalues --   -0.38452  -0.38077  -0.36015  -0.35539  -0.34870
  Beta  occ. eigenvalues --   -0.34392  -0.33318  -0.32493  -0.31820  -0.31035
  Beta  occ. eigenvalues --   -0.30603  -0.29773  -0.29518  -0.28559  -0.28320
  Beta  occ. eigenvalues --   -0.26744  -0.26515  -0.25888  -0.24977  -0.24828
  Beta  occ. eigenvalues --   -0.24276  -0.22534  -0.18171  -0.17093  -0.15911
  Beta  occ. eigenvalues --   -0.11991  -0.11079
  Beta virt. eigenvalues --    0.06029   0.06591   0.06790   0.07214   0.07904
  Beta virt. eigenvalues --    0.08486   0.08681   0.08780   0.09423   0.09651
  Beta virt. eigenvalues --    0.09954   0.10433   0.10914   0.11166   0.11789

 Mulliken charges and spin densities:
               1          2
     1  C    0.056211  -0.713090
     2  C   -1.409007   1.383484
     3  C    0.982901  -1.348696
     4  N    0.006469   0.084644
     5  C    0.919330  -1.016012
     6  C   -0.893824   0.270527
     7  N    0.173393  -0.047928
     8  C    1.184284  -1.445023
     9  C    0.339832  -0.342168
    10  O   -0.312899   0.010469
    11  C    0.573955  -1.494282
    12  C    0.015462   0.953520
    13  C    0.600628  -0.569041
    14  C    0.128855  -0.557196
    15  C    1.000227  -1.349597
    16  C   -0.656391   0.580117
    17  C   -1.685629   1.091457
    18  N   -0.290110  -0.014201
    19  H   -0.043282   0.206675
    20  H    0.097168   0.047594
    21  H    0.434132  -0.292988
    22  H   -0.267901   0.472828
    23  H   -0.102904   0.298533
    24  H    0.115427   0.095726
    25  H   -0.171158   0.250837
    26  H   -0.569133   0.808298
    27  H    0.332711  -0.051166
    28  H   -0.300123   0.475858
    29  H   -0.231302   0.355540
    30  H   -0.255164   0.402114
    31  H   -0.178509   0.323780
    32  H   -0.130214   0.316462
    33  H    0.226705  -0.002367
    34  H   -0.416574   0.584060
    35  H   -0.427197   0.600499
    36  H   -0.067904   0.221349
    37  H   -0.200095   0.344154
    38  H    0.260031  -0.013500
    39  H    0.161600   0.078731
 Sum of Mulliken charges =  -1.00000   1.00000

 Dipole moment (field-independent basis, Debye):
    X=              3.9198    Y=              3.8082    Z=              2.8888  Tot=              6.1816
 Quadrupole moment (field-independent basis, Debye-Ang):
   XX=           -186.4782   YY=           -162.6753   ZZ=           -153.5058
   XY=             -1.9933   XZ=             -3.3442   YZ=             -5.1381

 Summary of Natural Population Analysis:

                                       Natural Population
                Natural  -----------------------------------------------
    Atom  No    Charge         Core      Valence    Rydberg      Total
 -----------------------------------------------------------------------
      C    1   -0.28989      0.99964     2.28347    0.00678     3.28989
      C    2   -0.00847      0.99958     1.99587    0.01302     3.00847
      C    3   -0.09733      0.99958     2.08643    0.01133     3.09733
      N    4   -0.24983      0.99963     2.73740    0.01279     3.74983
      C    5   -0.09577      0.99959     2.08423    0.01194     3.09577
      C    6   -0.09143      0.99960     2.07964    0.01219     3.09143
      N    7   -0.28059      0.99973     2.76746    0.01341     3.78059
      C    8   -0.17763      0.99963     2.16929    0.00870     3.17763
      C    9    0.35158      0.99962     1.62544    0.02336     2.64842
      O   10   -0.34793      0.99987     3.34282    0.00523     4.34793
      C   11   -0.23923      0.99956     2.23003    0.00964     3.23923
      C   12   -0.04417      0.99946     2.03461    0.01009     3.04417
      C   13   -0.09190      0.99952     2.08236    0.01002     3.09190
      C   14   -0.12139      0.99956     2.11135    0.01048     3.12139
      C   15   -0.09329      0.99956     2.08393    0.00979     3.09329
      C   16   -0.12548      0.99953     2.11609    0.00987     3.12548
      C   17    0.08499      0.99946     1.90401    0.01154     2.91501
      N   18   -0.39842      0.99970     2.89370    0.00501     3.89842
      H   19    0.10340      0.00000     0.39549    0.00111     0.39660
      H   20    0.09998      0.00000     0.39923    0.00079     0.40002
      H   21    0.10068      0.00000     0.39765    0.00167     0.39932
      H   22    0.09858      0.00000     0.40020    0.00122     0.40142
      H   23    0.09987      0.00000     0.39890    0.00122     0.40013
      H   24    0.11681      0.00000     0.38202    0.00117     0.38319
      H   25    0.10598      0.00000     0.39189    0.00212     0.39402
      H   26    0.09983      0.00000     0.39788    0.00229     0.40017
      H   27    0.09980      0.00000     0.39726    0.00295     0.40020
      H   28    0.10188      0.00000     0.39664    0.00148     0.39812
      H   29    0.08187      0.00000     0.41591    0.00223     0.41813
      H   30    0.09727      0.00000     0.40151    0.00122     0.40273
      H   31    0.09534      0.00000     0.40328    0.00138     0.40466
      H   32    0.11218      0.00000     0.38660    0.00122     0.38782
      H   33    0.11513      0.00000     0.38367    0.00120     0.38487
      H   34    0.10103      0.00000     0.39702    0.00195     0.39897
      H   35    0.10318      0.00000     0.39571    0.00111     0.39682
      H   36    0.10026      0.00000     0.39891    0.00083     0.39974
      H   37    0.09652      0.00000     0.40198    0.00149     0.40348
      H   38    0.20470      0.00000     0.29289    0.00240     0.29530
      H   39    0.18198      0.00000     0.31647    0.00155     0.31802
 =======================================================================
   * Total *    0.00012     17.99282    48.77924    0.22783    66.99988

 Normal termination of Gaussian 16 at Fri Dec 11 21:35:42 2020.
