 Gaussian 16, Revision A.03,

 -----------------------------------------------------------
 # opt freq B3LYP/6-31G(d) empiricaldispersion=gd3bj scf=xqc
 -----------------------------------------------------------

 -----------------------------
 CID_18957953_JID_300_neutraal
 -----------------------------
 Symbolic Z-matrix:
 Charge =  0 Multiplicity = 1

 SCF Done:  E(RB3LYP) =  -493.280538348     A.U. after   17 cycles
 SCF Done:  E(RB3LYP) =  -493.284529459     A.U. after   13 cycles
 SCF Done:  E(RB3LYP) =  -493.285198653     A.U. after   12 cycles
 SCF Done:  E(RB3LYP) =  -493.285418001     A.U. after   13 cycles
 SCF Done:  E(RB3LYP) =  -493.285552525     A.U. after   13 cycles
 SCF Done:  E(RB3LYP) =  -493.285660806     A.U. after   12 cycles
 SCF Done:  E(RB3LYP) =  -493.285731174     A.U. after   12 cycles
 SCF Done:  E(RB3LYP) =  -493.285737654     A.U. after    9 cycles
 SCF Done:  E(RB3LYP) =  -493.285739580     A.U. after    9 cycles
 SCF Done:  E(RB3LYP) =  -493.285740150     A.U. after    9 cycles
 SCF Done:  E(RB3LYP) =  -493.285740268     A.U. after    8 cycles
 Optimization completed.
    -- Stationary point found.
 Normal termination of Gaussian 16 at Tue Dec  8 10:21:53 2020.

 --------------------------------------------------------------------
 #N Geom=AllCheck Guess=TCheck SCRF=Check GenChk RB3LYP/6-31G(d) Freq
 --------------------------------------------------------------------

 Structure from the checkpoint file:  "JID_300.chk"
 -----------------------------
 CID_18957953_JID_300_neutraal
 -----------------------------
 Charge =  0 Multiplicity = 1

 SCF Done:  E(RB3LYP) =  -493.285740268     A.U. after    1 cycles

  Exact polarizability:  91.796   5.971  93.552   2.693  -2.258  51.835
 Approx polarizability: 146.791  17.355 177.746   7.464  -9.708  80.439

                      1                      2                      3
                      A                      A                      A
 Frequencies --     99.8833               142.6886               178.3063
 Red. masses --      3.0005                 3.5413                 2.7427
 Frc consts  --      0.0176                 0.0425                 0.0514
 IR Inten    --      0.0757                 1.1708                 0.6072

                      4                      5                      6
                      A                      A                      A
 Frequencies --    216.8350               263.7751               359.8443
 Red. masses --      1.5271                 1.8628                 4.3291
 Frc consts  --      0.0423                 0.0764                 0.3303
 IR Inten    --      0.9261                 0.3186                 2.6341

                      7                      8                      9
                      A                      A                      A
 Frequencies --    366.3105               423.5074               446.8647
 Red. masses --      5.4208                 6.7071                 3.5689
 Frc consts  --      0.4286                 0.7088                 0.4199
 IR Inten    --      1.9179                 6.7691                 0.4340

                     10                     11                     12
                      A                      A                      A
 Frequencies --    547.4480               568.2574               612.7480
 Red. masses --      3.5830                 8.6858                 5.2127
 Frc consts  --      0.6327                 1.6525                 1.1531
 IR Inten    --      4.6122                 1.7535                 9.7283

                     13                     14                     15
                      A                      A                      A
 Frequencies --    654.1033               699.3877               729.0621
 Red. masses --      4.6290                 4.5053                 5.3729
 Frc consts  --      1.1669                 1.2984                 1.6826
 IR Inten    --      7.2548                 2.4914                 8.5421

                     16                     17                     18
                      A                      A                      A
 Frequencies --    815.0198               831.6079               913.2986
 Red. masses --      2.5679                 3.5205                 2.0535
 Frc consts  --      1.0050                 1.4345                 1.0092
 IR Inten    --      5.0379                 1.9109                 1.0504

                     19                     20                     21
                      A                      A                      A
 Frequencies --    957.7832               979.3881              1003.8704
 Red. masses --      2.5321                 1.3625                 5.2887
 Frc consts  --      1.3686                 0.7700                 3.1402
 IR Inten    --      0.2072                 1.4676                47.1529

                     22                     23                     24
                      A                      A                      A
 Frequencies --   1070.6149              1115.3946              1118.4358
 Red. masses --      2.5843                 1.7842                 1.8766
 Frc consts  --      1.7453                 1.3078                 1.3830
 IR Inten    --     13.2954                 0.7808                 6.4089

                     25                     26                     27
                      A                      A                      A
 Frequencies --   1150.9223              1205.9186              1234.4188
 Red. masses --      3.6986                 1.4672                 1.3423
 Frc consts  --      2.8865                 1.2571                 1.2051
 IR Inten    --     11.6514                 0.3158                 0.8925

                     28                     29                     30
                      A                      A                      A
 Frequencies --   1309.0376              1324.8334              1339.8814
 Red. masses --      1.4514                 1.3235                 1.2900
 Frc consts  --      1.4654                 1.3687                 1.3645
 IR Inten    --      5.8523                 0.1813                 6.6529

                     31                     32                     33
                      A                      A                      A
 Frequencies --   1362.2944              1414.2235              1441.7560
 Red. masses --      1.6205                 4.1038                 1.2577
 Frc consts  --      1.7719                 4.8358                 1.5403
 IR Inten    --      4.2075                 6.3794                 5.2829

                     34                     35                     36
                      A                      A                      A
 Frequencies --   1484.7826              1509.9331              1522.6104
 Red. masses --      5.4257                 1.1507                 1.0845
 Frc consts  --      7.0474                 1.5457                 1.4813
 IR Inten    --     72.7984                 3.3090                 1.1344

                     37                     38                     39
                      A                      A                      A
 Frequencies --   1527.2757              1531.4675              1609.9501
 Red. masses --      1.0750                 1.0682                11.4843
 Frc consts  --      1.4774                 1.4761                17.5380
 IR Inten    --     12.9003                 5.4226                25.6548

                     40                     41                     42
                      A                      A                      A
 Frequencies --   1760.9298              3022.2498              3057.3407
 Red. masses --     13.0582                 1.0833                 1.0359
 Frc consts  --     23.8571                 5.8297                 5.7048
 IR Inten    --    375.3133                15.0115                16.5216

                     43                     44                     45
                      A                      A                      A
 Frequencies --   3063.6235              3071.0817              3123.7999
 Red. masses --      1.0686                 1.0637                 1.0968
 Frc consts  --      5.9091                 5.9110                 6.3058
 IR Inten    --     11.7443                27.8921                14.0715

                     46                     47                     48
                      A                      A                      A
 Frequencies --   3126.9954              3133.3297              3138.1198
 Red. masses --      1.1024                 1.1027                 1.1031
 Frc consts  --      6.3508                 6.3784                 6.4001
 IR Inten    --     15.0039                34.1500                11.7010

 - Thermochemistry -
 -------------------
 Temperature   298.150 Kelvin.  Pressure   1.00000 Atm.
 Atom     1 has atomic number  6 and mass  12.00000

 Molecular mass:   140.05858 amu.
 Principal axes and moments of inertia in atomic units:
                           1         2         3
     Eigenvalues --   917.086851240.687402065.24762
           X            0.99943  -0.03344  -0.00419
           Y            0.03348   0.99938   0.01071
           Z            0.00382  -0.01084   0.99993
 This molecule is an asymmetric top.
 Rotational symmetry number  1.
 Warning -- assumption of classical behavior for rotation
           may cause significant error
 Rotational temperatures (Kelvin)      0.09444     0.06981     0.04194
 Rotational constants (GHZ):           1.96791     1.45463     0.87386
 Zero-point vibrational energy     374318.8 (Joules/Mol)
                                   89.46433 (Kcal/Mol)
 Warning -- explicit consideration of  12 degrees of freedom as
           vibrations may cause significant error
 Vibrational temperatures:    143.71   205.30   256.54   311.98   379.51
          (Kelvin)            517.74   527.04   609.33   642.94   787.66
                              817.60   881.61   941.11  1006.26  1048.96
                             1172.63  1196.50  1314.03  1378.04  1409.12
                             1444.35  1540.38  1604.80  1609.18  1655.92
                             1735.05  1776.05  1883.41  1906.14  1927.79
                             1960.04  2034.75  2074.37  2136.27  2172.46
                             2190.70  2197.41  2203.44  2316.36  2533.59
                             4348.34  4398.83  4407.87  4418.60  4494.45
                             4499.05  4508.16  4515.05

 Zero-point correction=                           0.142570 (Hartree/Particle)
 Thermal correction to Energy=                    0.151030
 Thermal correction to Enthalpy=                  0.151974
 Thermal correction to Gibbs Free Energy=         0.109301
 Sum of electronic and zero-point Energies=           -493.143170
 Sum of electronic and thermal Energies=              -493.134710
 Sum of electronic and thermal Enthalpies=            -493.133766
 Sum of electronic and thermal Free Energies=         -493.176439

                     E (Thermal)             CV                S
                      KCal/Mol        Cal/Mol-Kelvin    Cal/Mol-Kelvin
 Total                   94.773             32.431             89.814
 Electronic               0.000              0.000              0.000
 Translational            0.889              2.981             40.722
 Rotational               0.889              2.981             29.242
 Vibrational             92.995             26.470             19.849
 Vibration     1          0.604              1.949              3.457
 Vibration     2          0.616              1.911              2.768
 Vibration     3          0.629              1.869              2.346
 Vibration     4          0.646              1.815              1.985
 Vibration     5          0.670              1.739              1.637
 Vibration     6          0.734              1.555              1.123
 Vibration     7          0.739              1.542              1.095
 Vibration     8          0.786              1.419              0.880
 Vibration     9          0.806              1.368              0.805
 Vibration    10          0.903              1.145              0.549
 Vibration    11          0.924              1.100              0.508
 Vibration    12          0.972              1.005              0.428

 Optimization completed.
    -- Stationary point found.
 Normal termination of Gaussian 16 at Tue Dec  8 10:25:08 2020.

 ----------------------------------------------------------------------
 # B3LYP/6-311++G(d,p) empiricaldispersion=gd3bj scf=xqc pop=npa geom=c
 heck
 ----------------------------------------------------------------------

 -------------------------------------
 CID_18957953_JID_300_Energie_neutraal
 -------------------------------------
 Structure from the checkpoint file:  "JID_300.chk"
 Charge =  0 Multiplicity = 1

 SCF Done:  E(RB3LYP) =  -493.421410668     A.U. after   16 cycles
 Normal termination of Gaussian 16 at Tue Dec  8 10:26:18 2020.

 ----------------------------------------------------------------------
 # B3LYP/6-311++G(d,p) empiricaldispersion=gd3bj scf=xqc pop=npa geom=c
 heck
 ----------------------------------------------------------------------

 -----------------------------------
 CID_18957953_JID_300_Energie_kation
 -----------------------------------
 Structure from the checkpoint file:  "JID_300.chk"
 Charge =  1 Multiplicity = 2

 SCF Done:  E(UB3LYP) =  -493.090845074     A.U. after   24 cycles
 Normal termination of Gaussian 16 at Tue Dec  8 10:29:09 2020.
 Gaussian 16:  ES64L-G16RevA.03 25-Dec-2016

 ----------------------------------------------------------------------
 # B3LYP/6-311++G(d,p) empiricaldispersion=gd3bj scf=xqc pop=npa geom=c
 heck
 ----------------------------------------------------------------------

 ----------------------------------
 CID_18957953_JID_300_Energie_anion
 ----------------------------------
 Structure from the checkpoint file:  "JID_300.chk"
 Charge = -1 Multiplicity = 2

                         Standard orientation:
 ---------------------------------------------------------------------
 Center     Atomic      Atomic             Coordinates (Angstroms)
 Number     Number       Type             X           Y           Z
 ---------------------------------------------------------------------
      1          6           0       -1.695410    1.923257    0.365176
      2          6           0       -1.316812    0.649510   -0.392508
      3          6           0       -2.103303   -0.632492    0.058549
      4          6           0       -1.154581   -1.866191   -0.094336
      5          6           0        0.196112   -1.217257    0.006936
      6          7           0        1.422527   -1.609536    0.211435
      7          8           0        2.193044   -0.472093    0.170806
      8          7           0        1.286309    0.709040   -0.088397
      9          6           0        0.087061    0.175566   -0.174166
     10          8           0        1.782768    1.822733   -0.157402
     11          1           0       -2.740390    2.187609    0.172615
     12          1           0       -1.062780    2.760818    0.056086
     13          1           0       -1.569031    1.782907    1.444275
     14          1           0       -1.473540    0.815472   -1.468354
     15          1           0       -3.036259   -0.753436   -0.498038
     16          1           0       -2.363055   -0.515254    1.116824
     17          1           0       -1.329887   -2.631876    0.665811
     18          1           0       -1.271799   -2.342241   -1.075630
 ---------------------------------------------------------------------

 SCF Done:  E(UB3LYP) =  -493.424818716     A.U. after   28 cycles

 The electronic state is 2-A.
 Alpha  occ. eigenvalues --  -19.05518 -18.98253 -14.32389 -14.20806 -10.07445
 Alpha  occ. eigenvalues --  -10.06703 -10.06654 -10.06639 -10.06033 -10.04699
 Alpha  occ. eigenvalues --   -1.03102  -0.94501  -0.75644  -0.70759  -0.67418
 Alpha  occ. eigenvalues --   -0.62631  -0.53921  -0.51100  -0.47250  -0.43801
 Alpha  occ. eigenvalues --   -0.38179  -0.36478  -0.34631  -0.32097  -0.31451
 Alpha  occ. eigenvalues --   -0.31368  -0.27678  -0.27365  -0.26019  -0.25212
 Alpha  occ. eigenvalues --   -0.23455  -0.22564  -0.22004  -0.20175  -0.14809
 Alpha  occ. eigenvalues --   -0.12813  -0.09506   0.04779
 Alpha virt. eigenvalues --    0.07918   0.08885   0.09991   0.10831   0.11903
 Alpha virt. eigenvalues --    0.12437   0.13213   0.14590   0.15758   0.16742
 Alpha virt. eigenvalues --    0.17566   0.17773   0.18200   0.18774   0.19479

  Beta  occ. eigenvalues --  -19.05285 -18.97960 -14.31760 -14.20453 -10.07444
  Beta  occ. eigenvalues --  -10.06712 -10.06666 -10.06644 -10.06004 -10.04665
  Beta  occ. eigenvalues --   -1.02389  -0.93965  -0.75418  -0.70155  -0.67194
  Beta  occ. eigenvalues --   -0.62502  -0.53815  -0.50766  -0.47040  -0.43548
  Beta  occ. eigenvalues --   -0.37609  -0.35626  -0.33582  -0.31981  -0.31375
  Beta  occ. eigenvalues --   -0.31140  -0.27447  -0.27190  -0.25580  -0.24020
  Beta  occ. eigenvalues --   -0.23151  -0.22454  -0.21808  -0.19927  -0.13919
  Beta  occ. eigenvalues --   -0.12512  -0.07480
  Beta virt. eigenvalues --    0.08119   0.09364   0.09936   0.11171   0.11418
  Beta virt. eigenvalues --    0.12210   0.12834   0.13391   0.14633   0.15807
  Beta virt. eigenvalues --    0.17001   0.17627   0.18186   0.18578   0.18871

 Mulliken charges and spin densities:
               1          2
     1  C    0.240220  -0.943508
     2  C   -0.612646   1.531351
     3  C    0.287776  -0.823231
     4  C    0.047770  -0.247721
     5  C    0.054340  -0.028126
     6  N   -0.457845   0.187031
     7  O    0.270497   0.050951
     8  N   -0.509816   0.236965
     9  C    0.579491  -0.998197
    10  O   -0.160304   0.113689
    11  H   -0.406845   0.553593
    12  H    0.089252   0.070131
    13  H   -0.027422   0.165295
    14  H   -0.067257   0.238780
    15  H   -0.597691   0.764223
    16  H    0.205996  -0.089537
    17  H    0.118098   0.019983
    18  H   -0.053613   0.198329
 Sum of Mulliken charges =  -1.00000   1.00000

 Dipole moment (field-independent basis, Debye):
    X=             -0.6408    Y=             -1.3534    Z=              1.5729  Tot=              2.1717
 Quadrupole moment (field-independent basis, Debye-Ang):
   XX=           -104.9253   YY=            -86.6421   ZZ=            -72.0250
   XY=              2.2435   XZ=             -7.4765   YZ=             -0.9938

 Summary of Natural Population Analysis:

                                       Natural Population
                Natural  -----------------------------------------------
    Atom  No    Charge         Core      Valence    Rydberg      Total
 -----------------------------------------------------------------------
      C    1   -0.28291      0.99965     2.27672    0.00655     3.28291
      C    2   -0.11701      0.99959     2.10643    0.01099     3.11701
      C    3   -0.17670      0.99964     2.16821    0.00884     3.17670
      C    4   -0.20259      0.99961     2.19453    0.00845     3.20259
      C    5    0.06731      0.99951     1.91639    0.01678     2.93269
      N    6   -0.03378      0.99963     2.51941    0.01474     3.53378
      O    7   -0.11498      0.99991     3.10684    0.00822     4.11498
      N    8    0.24621      0.99951     2.23470    0.01958     3.25379
      C    9    0.01261      0.99938     1.97329    0.01472     2.98739
      O   10   -0.20290      0.99989     3.19426    0.00874     4.20290
      H   11    0.09816      0.00000     0.40044    0.00140     0.40184
      H   12    0.10593      0.00000     0.39315    0.00092     0.39407
      H   13    0.09649      0.00000     0.40248    0.00104     0.40351
      H   14    0.10246      0.00000     0.39543    0.00211     0.39754
      H   15    0.10252      0.00000     0.39382    0.00366     0.39748
      H   16    0.09284      0.00000     0.40588    0.00128     0.40716
      H   17    0.10191      0.00000     0.39693    0.00116     0.39809
      H   18    0.10443      0.00000     0.39372    0.00186     0.39557
 =======================================================================
   * Total *    0.00000      9.99634    26.87264    0.13102    37.00000

 Normal termination of Gaussian 16 at Tue Dec  8 10:33:05 2020.
