 Gaussian 16, Revision A.03,

 -----------------------------------------------------------
 # opt freq B3LYP/6-31G(d) empiricaldispersion=gd3bj scf=xqc
 -----------------------------------------------------------

 -------------------------------
 CID_109005530_JID_9272_neutraal
 -------------------------------
 Symbolic Z-matrix:
 Charge =  0 Multiplicity = 1

 SCF Done:  E(RB3LYP) =  -822.606636342     A.U. after   16 cycles
 SCF Done:  E(RB3LYP) =  -822.613116745     A.U. after   13 cycles
 SCF Done:  E(RB3LYP) =  -822.610284439     A.U. after   13 cycles
 SCF Done:  E(RB3LYP) =  -822.613800090     A.U. after   12 cycles
 SCF Done:  E(RB3LYP) =  -822.616004708     A.U. after   13 cycles
 SCF Done:  E(RB3LYP) =  -822.617150526     A.U. after   12 cycles
 SCF Done:  E(RB3LYP) =  -822.617788769     A.U. after   12 cycles
 SCF Done:  E(RB3LYP) =  -822.618564023     A.U. after   12 cycles
 SCF Done:  E(RB3LYP) =  -822.619416815     A.U. after   13 cycles
 SCF Done:  E(RB3LYP) =  -822.620122891     A.U. after   12 cycles
 SCF Done:  E(RB3LYP) =  -822.620706227     A.U. after   11 cycles
 SCF Done:  E(RB3LYP) =  -822.620750312     A.U. after   11 cycles
 SCF Done:  E(RB3LYP) =  -822.620772419     A.U. after   10 cycles
 SCF Done:  E(RB3LYP) =  -822.620789608     A.U. after   10 cycles
 SCF Done:  E(RB3LYP) =  -822.620799167     A.U. after   10 cycles
 SCF Done:  E(RB3LYP) =  -822.620799580     A.U. after    8 cycles
 Optimization completed.
    -- Stationary point found.
 Normal termination of Gaussian 16 at Sat Dec 12 09:35:31 2020.

 --------------------------------------------------------------------
 #N Geom=AllCheck Guess=TCheck SCRF=Check GenChk RB3LYP/6-31G(d) Freq
 --------------------------------------------------------------------

 Structure from the checkpoint file:  "JID_9272.chk"
 -------------------------------
 CID_109005530_JID_9272_neutraal
 -------------------------------
 Charge =  0 Multiplicity = 1

 SCF Done:  E(RB3LYP) =  -822.620799580     A.U. after    1 cycles

  Exact polarizability: 221.816  15.809 192.420  21.945 -22.228 132.132
 Approx polarizability: 317.483  29.547 325.524  51.962 -52.312 217.389

                      1                      2                      3
                      A                      A                      A
 Frequencies --     21.1548                24.4542                53.3706
 Red. masses --      4.8880                 5.1498                 3.2574
 Frc consts  --      0.0013                 0.0018                 0.0055
 IR Inten    --      0.5752                 0.5677                 0.0611

                      4                      5                      6
                      A                      A                      A
 Frequencies --     69.5284                98.4604               110.8293
 Red. masses --      6.1117                 3.4706                 4.6673
 Frc consts  --      0.0174                 0.0198                 0.0338
 IR Inten    --      1.2393                 0.0157                 4.1288

                      7                      8                      9
                      A                      A                      A
 Frequencies --    172.5231               179.4653               185.7130
 Red. masses --      3.3774                 4.2033                 5.4702
 Frc consts  --      0.0592                 0.0798                 0.1112
 IR Inten    --      6.6126                 0.9842                 1.0602

                     10                     11                     12
                      A                      A                      A
 Frequencies --    217.3993               253.5948               270.8705
 Red. masses --      1.9018                 1.3023                 4.2514
 Frc consts  --      0.0530                 0.0493                 0.1838
 IR Inten    --      0.8603                 2.4368                 1.6920

                     13                     14                     15
                      A                      A                      A
 Frequencies --    290.1555               296.4779               315.2614
 Red. masses --      1.3583                 2.1232                 1.3125
 Frc consts  --      0.0674                 0.1100                 0.0769
 IR Inten    --      1.0123                 4.2157                 1.5906

                     16                     17                     18
                      A                      A                      A
 Frequencies --    329.7704               353.2855               383.7926
 Red. masses --      2.4226                 2.4595                 2.6773
 Frc consts  --      0.1552                 0.1809                 0.2324
 IR Inten    --      0.7405                 2.0467                 4.1515

                     19                     20                     21
                      A                      A                      A
 Frequencies --    408.6214               435.8140               457.0836
 Red. masses --      2.4207                 3.9308                 2.9504
 Frc consts  --      0.2381                 0.4399                 0.3632
 IR Inten    --      3.9613                 0.4550                 1.3902

                     22                     23                     24
                      A                      A                      A
 Frequencies --    458.4978               481.1734               504.9825
 Red. masses --      3.9536                 3.3519                 4.9036
 Frc consts  --      0.4897                 0.4572                 0.7367
 IR Inten    --      2.7011                 0.3797                23.6955

                     25                     26                     27
                      A                      A                      A
 Frequencies --    529.9981               558.8028               575.6670
 Red. masses --      4.7832                 3.7155                 1.6729
 Frc consts  --      0.7916                 0.6836                 0.3266
 IR Inten    --     18.5737                36.7776                91.3066

                     28                     29                     30
                      A                      A                      A
 Frequencies --    578.3360               593.3621               607.7376
 Red. masses --      2.1644                 3.9239                 1.4510
 Frc consts  --      0.4265                 0.8140                 0.3158
 IR Inten    --     23.2547                 1.5319                48.0577

                     31                     32                     33
                      A                      A                      A
 Frequencies --    637.4661               657.8898               702.3922
 Red. masses --      4.0179                 3.3309                 3.0573
 Frc consts  --      0.9620                 0.8494                 0.8887
 IR Inten    --     27.1618                 6.8427                29.3690

                     34                     35                     36
                      A                      A                      A
 Frequencies --    749.2152               758.9330               801.2367
 Red. masses --      5.2303                 1.2685                 3.5510
 Frc consts  --      1.7298                 0.4305                 1.3431
 IR Inten    --      8.3092                18.3985                10.5912

                     37                     38                     39
                      A                      A                      A
 Frequencies --    804.1070               822.5005               835.4895
 Red. masses --      1.9698                 5.3370                 2.4954
 Frc consts  --      0.7504                 2.1273                 1.0263
 IR Inten    --     24.3379                 4.9156                31.0021

                     40                     41                     42
                      A                      A                      A
 Frequencies --    856.1848               868.1783               909.0378
 Red. masses --      1.4788                 3.3515                 4.7528
 Frc consts  --      0.6387                 1.4883                 2.3140
 IR Inten    --      0.4366                 7.4480                 3.9720

                     43                     44                     45
                      A                      A                      A
 Frequencies --    930.7445               943.1906               955.8822
 Red. masses --      1.7439                 1.7114                 1.3955
 Frc consts  --      0.8901                 0.8970                 0.7512
 IR Inten    --      1.5357                 1.1879                 0.4049

                     46                     47                     48
                      A                      A                      A
 Frequencies --    963.8632               975.9855               991.4120
 Red. masses --      1.2686                 1.1973                 1.3207
 Frc consts  --      0.6944                 0.6720                 0.7648
 IR Inten    --      0.1436                 0.4064                 0.7963

                     49                     50                     51
                      A                      A                      A
 Frequencies --   1019.0047              1034.4945              1058.8355
 Red. masses --      2.0080                 2.1435                 3.7061
 Frc consts  --      1.2285                 1.3516                 2.4480
 IR Inten    --     23.0317                 3.5621                 1.9724

                     52                     53                     54
                      A                      A                      A
 Frequencies --   1064.1908              1075.7533              1076.2006
 Red. masses --      1.3781                 1.8418                 1.8129
 Frc consts  --      0.9195                 1.2558                 1.2371
 IR Inten    --      0.9897                 4.3622                 0.5199

                     55                     56                     57
                      A                      A                      A
 Frequencies --   1115.0593              1163.5844              1178.9275
 Red. masses --      2.0682                 1.5235                 1.5422
 Frc consts  --      1.5151                 1.2153                 1.2629
 IR Inten    --     10.3649                11.4522                 5.2988

                     58                     59                     60
                      A                      A                      A
 Frequencies --   1225.7494              1237.6293              1249.2722
 Red. masses --      1.4878                 1.9777                 1.9119
 Frc consts  --      1.3170                 1.7848                 1.7581
 IR Inten    --      1.9964                18.0130                28.4894

                     61                     62                     63
                      A                      A                      A
 Frequencies --   1259.3698              1264.0950              1276.0198
 Red. masses --      1.5709                 2.6644                 1.9067
 Frc consts  --      1.4679                 2.5085                 1.8291
 IR Inten    --     58.4156                 8.0993                 3.9618

                     64                     65                     66
                      A                      A                      A
 Frequencies --   1288.2578              1315.6107              1372.3185
 Red. masses --      2.9230                 2.1049                 1.5576
 Frc consts  --      2.8582                 2.1465                 1.7283
 IR Inten    --     21.0756                19.6524                36.2243

                     67                     68                     69
                      A                      A                      A
 Frequencies --   1391.0940              1411.1008              1421.4020
 Red. masses --      2.1828                 3.9632                 2.5694
 Frc consts  --      2.4887                 4.6496                 3.0585
 IR Inten    --     37.6775               127.4767                86.3420

                     70                     71                     72
                      A                      A                      A
 Frequencies --   1425.2493              1427.3241              1435.3889
 Red. masses --      1.2808                 1.3020                 2.9237
 Frc consts  --      1.5328                 1.5628                 3.5492
 IR Inten    --      5.3818                14.0926                75.5152

                     73                     74                     75
                      A                      A                      A
 Frequencies --   1454.1406              1477.8310              1491.3491
 Red. masses --      1.2936                 2.1282                 1.4209
 Frc consts  --      1.6116                 2.7385                 1.8620
 IR Inten    --     44.8212                12.6150                26.5945

                     76                     77                     78
                      A                      A                      A
 Frequencies --   1500.9277              1507.2121              1518.4705
 Red. masses --      2.0652                 1.0530                 1.0546
 Frc consts  --      2.7412                 1.4094                 1.4327
 IR Inten    --     16.3431                 0.1429                 1.7836

                     79                     80                     81
                      A                      A                      A
 Frequencies --   1521.6935              1533.8085              1537.7537
 Red. masses --      1.0665                 1.1551                 1.1774
 Frc consts  --      1.4551                 1.6011                 1.6404
 IR Inten    --      4.0523                36.5981                 3.7396

                     82                     83                     84
                      A                      A                      A
 Frequencies --   1539.7149              1546.7457              1565.0559
 Red. masses --      2.1587                 1.0668                 1.0567
 Frc consts  --      3.0152                 1.5038                 1.5250
 IR Inten    --     19.6678                 4.1827                 6.7786

                     85                     86                     87
                      A                      A                      A
 Frequencies --   1582.6827              1633.5223              1654.3301
 Red. masses --      2.7967                 5.9601                 5.1525
 Frc consts  --      4.1275                 9.3703                 8.3083
 IR Inten    --    240.8161               109.3651                10.7282

                     88                     89                     90
                      A                      A                      A
 Frequencies --   1670.6262              1772.5633              3044.0687
 Red. masses --      6.0217                 7.1088                 1.0614
 Frc consts  --      9.9021                13.1597                 5.7948
 IR Inten    --     40.8992               402.5996                42.1420

                     91                     92                     93
                      A                      A                      A
 Frequencies --   3046.1245              3054.3450              3064.0927
 Red. masses --      1.0372                 1.0390                 1.0405
 Frc consts  --      5.6703                 5.7108                 5.7555
 IR Inten    --     16.2229                32.7689                14.2033

                     94                     95                     96
                      A                      A                      A
 Frequencies --   3088.3186              3111.6394              3116.8682
 Red. masses --      1.1003                 1.1011                 1.1013
 Frc consts  --      6.1828                 6.2815                 6.3035
 IR Inten    --     20.6838                 3.6150                42.8249

                     97                     98                     99
                      A                      A                      A
 Frequencies --   3122.4123              3136.2452              3166.7689
 Red. masses --      1.1023                 1.1023                 1.0983
 Frc consts  --      6.3316                 6.3880                 6.4894
 IR Inten    --     13.4724                39.1925                 3.6169

                    100                    101                    102
                      A                      A                      A
 Frequencies --   3171.0438              3174.5976              3185.7044
 Red. masses --      1.0891                 1.0977                 1.0865
 Frc consts  --      6.4526                 6.5177                 6.4964
 IR Inten    --     21.9852                 8.5345                 8.1080

                    103                    104                    105
                      A                      A                      A
 Frequencies --   3187.7552              3202.7821              3214.3840
 Red. masses --      1.0887                 1.0933                 1.0961
 Frc consts  --      6.5182                 6.6075                 6.6725
 IR Inten    --      4.9115                32.5584                30.2923

                    106                    107                    108
                      A                      A                      A
 Frequencies --   3218.3121              3571.8895              3575.7609
 Red. masses --      1.0925                 1.0749                 1.0759
 Frc consts  --      6.6671                 8.0797                 8.1053
 IR Inten    --     13.5291                16.2391                38.6962

 - Thermochemistry -
 -------------------
 Temperature   298.150 Kelvin.  Pressure   1.00000 Atm.
 Atom     1 has atomic number  6 and mass  12.00000

 Molecular mass:   257.15281 amu.
 Principal axes and moments of inertia in atomic units:
                           1         2         3
     Eigenvalues --  2847.379357988.160608713.70617
           X            0.99982  -0.01237  -0.01455
           Y            0.01217   0.99983  -0.01354
           Z            0.01472   0.01336   0.99980
 This molecule is an asymmetric top.
 Rotational symmetry number  1.
 Warning -- assumption of classical behavior for rotation
           may cause significant error
 Rotational temperatures (Kelvin)      0.03042     0.01084     0.00994
 Rotational constants (GHZ):           0.63383     0.22593     0.20712
 Zero-point vibrational energy     847717.9 (Joules/Mol)
                                  202.60944 (Kcal/Mol)
 Warning -- explicit consideration of  30 degrees of freedom as
           vibrations may cause significant error
 Vibrational temperatures:     30.44    35.18    76.79   100.04   141.66
          (Kelvin)            159.46   248.22   258.21   267.20   312.79
                              364.87   389.72   417.47   426.57   453.59
                              474.47   508.30   552.19   587.92   627.04
                              657.64   659.68   692.30   726.56   762.55
                              803.99   828.26   832.10   853.72   874.40
                              917.17   946.56  1010.59  1077.95  1091.94
                             1152.80  1156.93  1183.39  1202.08  1231.86
                             1249.11  1307.90  1339.13  1357.04  1375.30
                             1386.78  1404.23  1426.42  1466.12  1488.41
                             1523.43  1531.13  1547.77  1548.41  1604.32
                             1674.14  1696.21  1763.58  1780.67  1797.42
                             1811.95  1818.75  1835.91  1853.52  1892.87
                             1974.46  2001.47  2030.26  2045.08  2050.62
                             2053.60  2065.20  2092.18  2126.27  2145.72
                             2159.50  2168.54  2184.74  2189.38  2206.81
                             2212.48  2215.31  2225.42  2251.77  2277.13
                             2350.27  2380.21  2403.66  2550.32  4379.74
                             4382.69  4394.52  4408.55  4443.40  4476.96
                             4484.48  4492.45  4512.36  4556.27  4562.42
                             4567.54  4583.52  4586.47  4608.09  4624.78
                             4630.43  5139.15  5144.72

 Zero-point correction=                           0.322879 (Hartree/Particle)
 Thermal correction to Energy=                    0.340518
 Thermal correction to Enthalpy=                  0.341463
 Thermal correction to Gibbs Free Energy=         0.276485
 Sum of electronic and zero-point Energies=           -822.297921
 Sum of electronic and thermal Energies=              -822.280281
 Sum of electronic and thermal Enthalpies=            -822.279337
 Sum of electronic and thermal Free Energies=         -822.344315

                     E (Thermal)             CV                S
                      KCal/Mol        Cal/Mol-Kelvin    Cal/Mol-Kelvin
 Total                  213.679             69.514            136.757
 Electronic               0.000              0.000              0.000
 Translational            0.889              2.981             42.533
 Rotational               0.889              2.981             33.649
 Vibrational            211.901             63.553             60.575
 Vibration     1          0.593              1.985              6.523
 Vibration     2          0.593              1.985              6.235
 Vibration     3          0.596              1.976              4.688
 Vibration     4          0.598              1.969              4.167
 Vibration     5          0.604              1.950              3.485
 Vibration     6          0.607              1.941              3.254
 Vibration     7          0.626              1.876              2.408
 Vibration     8          0.629              1.868              2.334
 Vibration     9          0.632              1.859              2.270
 Vibration    10          0.646              1.815              1.981
 Vibration    11          0.665              1.757              1.705
 Vibration    12          0.675              1.727              1.591
 Vibration    13          0.686              1.692              1.473
 Vibration    14          0.690              1.680              1.437
 Vibration    15          0.703              1.645              1.335
 Vibration    16          0.713              1.616              1.261
 Vibration    17          0.729              1.569              1.152
 Vibration    18          0.753              1.505              1.024
 Vibration    19          0.773              1.452              0.931
 Vibration    20          0.796              1.392              0.840
 Vibration    21          0.815              1.345              0.775
 Vibration    22          0.817              1.342              0.770
 Vibration    23          0.837              1.292              0.707
 Vibration    24          0.860              1.239              0.646
 Vibration    25          0.885              1.184              0.587
 Vibration    26          0.914              1.120              0.526
 Vibration    27          0.932              1.084              0.493
 Vibration    28          0.935              1.078              0.488
 Vibration    29          0.951              1.046              0.461
 Vibration    30          0.967              1.015              0.437

                           ! Non-Optimized Parameters !
 Normal termination of Gaussian 16 at Sat Dec 12 09:55:28 2020.

 ----------------------------------------------------------------------
 # B3LYP/6-311++G(d,p) empiricaldispersion=gd3bj scf=xqc pop=npa geom=c
 heck
 ----------------------------------------------------------------------

 ---------------------------------------
 CID_109005530_JID_9272_Energie_neutraal
 ---------------------------------------
 Structure from the checkpoint file:  "JID_9272.chk"
 Charge =  0 Multiplicity = 1

 SCF Done:  E(RB3LYP) =  -822.846500251     A.U. after   16 cycles
 Normal termination of Gaussian 16 at Sat Dec 12 10:04:43 2020.

 ----------------------------------------------------------------------
 # B3LYP/6-311++G(d,p) empiricaldispersion=gd3bj scf=xqc pop=npa geom=c
 heck
 ----------------------------------------------------------------------

 -------------------------------------
 CID_109005530_JID_9272_Energie_kation
 -------------------------------------
 Structure from the checkpoint file:  "JID_9272.chk"
 Charge =  1 Multiplicity = 2

 SCF Done:  E(UB3LYP) =  -822.581187160     A.U. after   23 cycles
 Normal termination of Gaussian 16 at Sat Dec 12 10:22:40 2020.
 Gaussian 16:  ES64L-G16RevA.03 25-Dec-2016

 ----------------------------------------------------------------------
 # B3LYP/6-311++G(d,p) empiricaldispersion=gd3bj scf=xqc pop=npa geom=c
 heck
 ----------------------------------------------------------------------

 ------------------------------------
 CID_109005530_JID_9272_Energie_anion
 ------------------------------------
 Structure from the checkpoint file:  "JID_9272.chk"
 Charge = -1 Multiplicity = 2

                         Standard orientation:
 ---------------------------------------------------------------------
 Center     Atomic      Atomic             Coordinates (Angstroms)
 Number     Number       Type             X           Y           Z
 ---------------------------------------------------------------------
      1          6           0       -2.216903   -0.206384    1.843484
      2          6           0       -2.823369    0.801773    0.857681
      3          6           0       -4.150622    1.317407    1.444131
      4          6           0       -1.868973    1.989972    0.642043
      5          7           0       -3.193954    0.185429   -0.440306
      6          6           0       -2.708535   -0.811776   -1.242868
      7          8           0       -3.319330   -1.140432   -2.255451
      8          6           0       -1.403868   -1.524003   -0.885299
      9          7           0       -0.311196   -0.593481   -0.738695
     10          6           0        0.903963   -0.920590   -0.192413
     11          6           0        1.179854   -2.113175    0.465620
     12          6           0        2.445016   -2.334818    1.053958
     13          6           0        3.450998   -1.397736    0.989539
     14          6           0        3.215396   -0.173353    0.312068
     15          6           0        1.943494    0.073636   -0.284278
     16          7           0        1.647503    1.221911   -0.948495
     17          6           0        2.581853    2.149799   -1.043107
     18          6           0        3.874786    2.010886   -0.488987
     19          6           0        4.185861    0.851383    0.184105
     20          1           0       -2.156018    0.259325    2.832701
     21          1           0       -1.206227   -0.502361    1.560349
     22          1           0       -2.848224   -1.097345    1.928934
     23          1           0       -3.971361    1.828333    2.394942
     24          1           0       -4.627970    2.035498    0.765772
     25          1           0       -4.847337    0.490736    1.619629
     26          1           0       -0.911478    1.661159    0.234121
     27          1           0       -2.312416    2.714604   -0.049911
     28          1           0       -1.679842    2.500538    1.593559
     29          1           0       -4.036946    0.567660   -0.854272
     30          1           0       -1.538486   -2.072134    0.053681
     31          1           0       -1.237977   -2.261989   -1.680662
     32          1           0       -0.271575    0.200856   -1.366309
     33          1           0        0.426873   -2.891093    0.524132
     34          1           0        2.619477   -3.279139    1.562353
     35          1           0        4.420942   -1.579834    1.442660
     36          1           0        2.313055    3.056728   -1.581957
     37          1           0        4.600089    2.810769   -0.600644
     38          1           0        5.169882    0.705993    0.622939
 ---------------------------------------------------------------------

 SCF Done:  E(UB3LYP) =  -822.852645520     A.U. after   30 cycles

 The electronic state is 2-A.
 Alpha  occ. eigenvalues --  -18.99265 -14.24020 -14.20112 -14.14928 -10.17938
 Alpha  occ. eigenvalues --  -10.13762 -10.10741 -10.08194 -10.07384 -10.06927
 Alpha  occ. eigenvalues --  -10.06424 -10.05966 -10.05535 -10.04530 -10.04075
 Alpha  occ. eigenvalues --  -10.03529 -10.03324 -10.02739 -10.02591  -0.94451
 Alpha  occ. eigenvalues --   -0.83416  -0.82408  -0.79037  -0.70736  -0.70392
 Alpha  occ. eigenvalues --   -0.66315  -0.63009  -0.61085  -0.60682  -0.59809
 Alpha  occ. eigenvalues --   -0.57661  -0.51958  -0.50291  -0.49671  -0.46440
 Alpha  occ. eigenvalues --   -0.46160  -0.41503  -0.39902  -0.39731  -0.38365
 Alpha  occ. eigenvalues --   -0.36985  -0.36496  -0.34704  -0.34435  -0.33793
 Alpha  occ. eigenvalues --   -0.33351  -0.31877  -0.31352  -0.30890  -0.30268
 Alpha  occ. eigenvalues --   -0.29213  -0.28364  -0.28087  -0.27874  -0.27551
 Alpha  occ. eigenvalues --   -0.26827  -0.25780  -0.25316  -0.24577  -0.24070
 Alpha  occ. eigenvalues --   -0.21767  -0.21092  -0.19080  -0.16416  -0.16146
 Alpha  occ. eigenvalues --   -0.14346  -0.12014  -0.11860  -0.07158   0.04260
 Alpha virt. eigenvalues --    0.05661   0.08045   0.08386   0.08516   0.09167
 Alpha virt. eigenvalues --    0.09323   0.10269   0.10469   0.10794   0.11045
 Alpha virt. eigenvalues --    0.11194   0.11443   0.11960   0.12905   0.13100

  Beta  occ. eigenvalues --  -18.99264 -14.24015 -14.20083 -14.14503 -10.17938
  Beta  occ. eigenvalues --  -10.13762 -10.10742 -10.08171 -10.07199 -10.06919
  Beta  occ. eigenvalues --  -10.06451 -10.05957 -10.05397 -10.04597 -10.04026
  Beta  occ. eigenvalues --  -10.03516 -10.03312 -10.02597 -10.02173  -0.94449
  Beta  occ. eigenvalues --   -0.83358  -0.82255  -0.78552  -0.70648  -0.70189
  Beta  occ. eigenvalues --   -0.65876  -0.62766  -0.60906  -0.60584  -0.59782
  Beta  occ. eigenvalues --   -0.57485  -0.51931  -0.49799  -0.49451  -0.46403
  Beta  occ. eigenvalues --   -0.45909  -0.41400  -0.39864  -0.39567  -0.38156
  Beta  occ. eigenvalues --   -0.36894  -0.36450  -0.34612  -0.34384  -0.33751
  Beta  occ. eigenvalues --   -0.33252  -0.31816  -0.31231  -0.30860  -0.30241
  Beta  occ. eigenvalues --   -0.29170  -0.28252  -0.28014  -0.27713  -0.26893
  Beta  occ. eigenvalues --   -0.26739  -0.25560  -0.25258  -0.24544  -0.23954
  Beta  occ. eigenvalues --   -0.20955  -0.20731  -0.18214  -0.16408  -0.16112
  Beta  occ. eigenvalues --   -0.12856  -0.11560  -0.11185  -0.06229
  Beta virt. eigenvalues --    0.05973   0.08056   0.08500   0.08533   0.09191
  Beta virt. eigenvalues --    0.09306   0.09577   0.10273   0.10481   0.10769
  Beta virt. eigenvalues --    0.11046   0.11155   0.11563   0.11880   0.12913

 Mulliken charges and spin densities:
               1          2
     1  C   -0.168402  -0.328700
     2  C   -0.437205   0.519131
     3  C    0.167350  -0.625161
     4  C   -0.422707  -0.204102
     5  N   -0.070168  -0.013392
     6  C   -0.192667  -0.044844
     7  O   -0.319608   0.000645
     8  C    0.124171  -0.003654
     9  N   -0.091856   0.020290
    10  C   -0.115130   0.035867
    11  C   -0.126200   0.056826
    12  C   -0.335477   0.073875
    13  C   -0.591196   0.082393
    14  C    0.643068  -0.065150
    15  C   -0.840207  -0.038772
    16  N   -0.034217   0.195651
    17  C   -0.013646   0.120515
    18  C   -0.600237   0.052058
    19  C    0.367112   0.348465
    20  H    0.086063   0.052537
    21  H    0.143325   0.023240
    22  H    0.099335   0.058300
    23  H   -0.063186   0.207662
    24  H   -0.109543   0.241637
    25  H   -0.020619   0.184564
    26  H    0.124274   0.065423
    27  H    0.130282   0.011745
    28  H    0.112375   0.006336
    29  H    0.272784   0.011027
    30  H    0.104988   0.002983
    31  H    0.192655   0.010488
    32  H    0.350565  -0.012497
    33  H    0.087847   0.002251
    34  H    0.125847  -0.001639
    35  H    0.075500  -0.009786
    36  H    0.126864  -0.010911
    37  H    0.105997  -0.000718
    38  H    0.111868  -0.024583
 Sum of Mulliken charges =  -1.00000   1.00000

 Dipole moment (field-independent basis, Debye):
    X=             -2.5719    Y=             -0.0579    Z=              2.2900  Tot=              3.4442
 Quadrupole moment (field-independent basis, Debye-Ang):
   XX=           -176.8446   YY=           -136.0356   ZZ=           -142.3617
   XY=             -3.2322   XZ=             -3.7328   YZ=             -4.5864

 Summary of Natural Population Analysis:

                                       Natural Population
                Natural  -----------------------------------------------
    Atom  No    Charge         Core      Valence    Rydberg      Total
 -----------------------------------------------------------------------
      C    1   -0.29484      0.99961     2.28759    0.00764     3.29484
      C    2    0.05848      0.99959     1.93133    0.01060     2.94152
      C    3   -0.28624      0.99962     2.27980    0.00682     3.28624
      C    4   -0.29258      0.99961     2.28559    0.00737     3.29258
      N    5   -0.32449      0.99964     2.81372    0.01112     3.82449
      C    6    0.34275      0.99968     1.63539    0.02218     2.65725
      O    7   -0.32786      0.99988     3.32202    0.00596     4.32786
      C    8   -0.12368      0.99959     2.11514    0.00895     3.12368
      N    9   -0.31918      0.99966     2.80942    0.01010     3.81918
      C   10    0.12010      0.99947     1.86793    0.01250     2.87990
      C   11   -0.15066      0.99954     2.14349    0.00763     3.15066
      C   12   -0.09075      0.99959     2.08178    0.00938     3.09075
      C   13   -0.09616      0.99954     2.08706    0.00955     3.09616
      C   14   -0.05023      0.99949     2.04285    0.00788     3.05023
      C   15    0.07093      0.99947     1.91627    0.01334     2.92907
      N   16   -0.20493      0.99967     2.69341    0.01185     3.70493
      C   17    0.05304      0.99962     1.93312    0.01422     2.94696
      C   18   -0.13162      0.99957     2.12334    0.00871     3.13162
      C   19   -0.00321      0.99954     1.99508    0.00859     3.00321
      H   20    0.10158      0.00000     0.39775    0.00067     0.39842
      H   21    0.11687      0.00000     0.38208    0.00105     0.38313
      H   22    0.09817      0.00000     0.40098    0.00085     0.40183
      H   23    0.10317      0.00000     0.39605    0.00079     0.39683
      H   24    0.09755      0.00000     0.40150    0.00094     0.40245
      H   25    0.10119      0.00000     0.39785    0.00096     0.39881
      H   26    0.12118      0.00000     0.37708    0.00174     0.37882
      H   27    0.09605      0.00000     0.40308    0.00087     0.40395
      H   28    0.09689      0.00000     0.40238    0.00074     0.40311
      H   29    0.19089      0.00000     0.30639    0.00272     0.30911
      H   30    0.10123      0.00000     0.39706    0.00171     0.39877
      H   31    0.09844      0.00000     0.40009    0.00147     0.40156
      H   32    0.20417      0.00000     0.29399    0.00184     0.29583
      H   33    0.09254      0.00000     0.40615    0.00131     0.40746
      H   34    0.08938      0.00000     0.40960    0.00102     0.41062
      H   35    0.08901      0.00000     0.40939    0.00161     0.41099
      H   36    0.07703      0.00000     0.42173    0.00123     0.42297
      H   37    0.09127      0.00000     0.40759    0.00114     0.40873
      H   38    0.08452      0.00000     0.41392    0.00156     0.41548
 =======================================================================
   * Total *   -0.00000     18.99239    49.78900    0.21861    69.00000

 Normal termination of Gaussian 16 at Sat Dec 12 10:45:36 2020.
