 Gaussian 16, Revision A.03,

 -----------------------------------------------------------
 # opt freq B3LYP/6-31G(d) empiricaldispersion=gd3bj scf=xqc
 -----------------------------------------------------------

 -------------------------------
 CID_65337093_JID_10629_neutraal
 -------------------------------
 Symbolic Z-matrix:
 Charge =  0 Multiplicity = 1

 SCF Done:  E(RB3LYP) =  -892.798262105     A.U. after   15 cycles
 SCF Done:  E(RB3LYP) =  -892.808765013     A.U. after   12 cycles
 SCF Done:  E(RB3LYP) =  -892.811175830     A.U. after   13 cycles
 SCF Done:  E(RB3LYP) =  -892.812624042     A.U. after   13 cycles
 SCF Done:  E(RB3LYP) =  -892.812870660     A.U. after   12 cycles
 SCF Done:  E(RB3LYP) =  -892.813361673     A.U. after   11 cycles
 SCF Done:  E(RB3LYP) =  -892.813452348     A.U. after   11 cycles
 SCF Done:  E(RB3LYP) =  -892.813494657     A.U. after   10 cycles
 SCF Done:  E(RB3LYP) =  -892.813520793     A.U. after   10 cycles
 SCF Done:  E(RB3LYP) =  -892.813549038     A.U. after   11 cycles
 SCF Done:  E(RB3LYP) =  -892.813596129     A.U. after   11 cycles
 SCF Done:  E(RB3LYP) =  -892.813607260     A.U. after   10 cycles
 SCF Done:  E(RB3LYP) =  -892.813608271     A.U. after    8 cycles
 SCF Done:  E(RB3LYP) =  -892.813608546     A.U. after    8 cycles
 SCF Done:  E(RB3LYP) =  -892.813608690     A.U. after    8 cycles
 Optimization completed.
    -- Stationary point found.
 Normal termination of Gaussian 16 at Sat Dec 12 16:30:19 2020.

 --------------------------------------------------------------------
 #N Geom=AllCheck Guess=TCheck SCRF=Check GenChk RB3LYP/6-31G(d) Freq
 --------------------------------------------------------------------

 Structure from the checkpoint file:  "JID_10629.chk"
 -------------------------------
 CID_65337093_JID_10629_neutraal
 -------------------------------
 Charge =  0 Multiplicity = 1

 SCF Done:  E(RB3LYP) =  -892.813608690     A.U. after    1 cycles

  Exact polarizability: 268.787 -22.456 199.375   2.505   8.057  99.888
 Approx polarizability: 372.847 -49.824 346.030  14.174  21.750 158.904

                      1                      2                      3
                      A                      A                      A
 Frequencies --     19.1350                44.1710                60.2335
 Red. masses --      5.7573                 4.1394                 4.9971
 Frc consts  --      0.0012                 0.0048                 0.0107
 IR Inten    --      1.2960                 0.7525                 2.7731

                      4                      5                      6
                      A                      A                      A
 Frequencies --     64.9151               109.2646               124.1071
 Red. masses --      4.7248                 3.2594                 5.1254
 Frc consts  --      0.0117                 0.0229                 0.0465
 IR Inten    --      0.1631                 1.7374                 3.8418

                      7                      8                      9
                      A                      A                      A
 Frequencies --    145.1481               193.0778               219.2359
 Red. masses --      4.3150                 1.0859                 4.2081
 Frc consts  --      0.0536                 0.0239                 0.1192
 IR Inten    --      3.6130                 1.2398                 3.4483

                     10                     11                     12
                      A                      A                      A
 Frequencies --    228.1135               248.1661               278.5667
 Red. masses --      4.3231                 4.6591                 5.3843
 Frc consts  --      0.1325                 0.1691                 0.2462
 IR Inten    --      3.4433                 1.7983                 3.9715

                     13                     14                     15
                      A                      A                      A
 Frequencies --    301.5940               312.7543               332.5314
 Red. masses --      2.9122                 2.4726                 2.6304
 Frc consts  --      0.1561                 0.1425                 0.1714
 IR Inten    --     10.6477                 3.1765                 7.8719

                     16                     17                     18
                      A                      A                      A
 Frequencies --    345.3739               362.4006               416.4960
 Red. masses --      1.2089                 3.6390                 2.1630
 Frc consts  --      0.0850                 0.2816                 0.2211
 IR Inten    --     23.6780                 1.5661                10.9660

                     19                     20                     21
                      A                      A                      A
 Frequencies --    440.7544               457.2050               471.2596
 Red. masses --      3.1546                 2.8122                 3.3259
 Frc consts  --      0.3611                 0.3463                 0.4352
 IR Inten    --      7.7897                 5.5384                 0.4393

                     22                     23                     24
                      A                      A                      A
 Frequencies --    483.2168               507.7852               526.9194
 Red. masses --      3.7331                 4.0419                 2.2676
 Frc consts  --      0.5136                 0.6140                 0.3709
 IR Inten    --     10.4051                12.5054                91.1228

                     25                     26                     27
                      A                      A                      A
 Frequencies --    533.2359               564.9703               581.1151
 Red. masses --      5.1705                 1.7638                 3.3794
 Frc consts  --      0.8662                 0.3317                 0.6724
 IR Inten    --      4.8460               322.2236                44.3309

                     28                     29                     30
                      A                      A                      A
 Frequencies --    590.0706               601.9148               647.1178
 Red. masses --      3.3755                 4.0233                 3.4900
 Frc consts  --      0.6925                 0.8588                 0.8611
 IR Inten    --      6.6596                 6.9895                 4.9413

                     31                     32                     33
                      A                      A                      A
 Frequencies --    674.8399               698.4722               722.3604
 Red. masses --      4.1637                 5.0791                 2.6558
 Frc consts  --      1.1172                 1.4599                 0.8165
 IR Inten    --     18.1184                 6.5146                 8.2215

                     34                     35                     36
                      A                      A                      A
 Frequencies --    732.6159               750.3334               798.9542
 Red. masses --      4.7677                 5.7365                 2.3031
 Frc consts  --      1.5077                 1.9029                 0.8662
 IR Inten    --      1.9451                 7.4610                22.0204

                     37                     38                     39
                      A                      A                      A
 Frequencies --    835.7699               845.1518               865.4902
 Red. masses --      2.3166                 5.3773                 1.5890
 Frc consts  --      0.9534                 2.2630                 0.7013
 IR Inten    --     14.6277                 7.0783                 0.6997

                     40                     41                     42
                      A                      A                      A
 Frequencies --    875.2185               933.0370               952.1861
 Red. masses --      1.6908                 4.0242                 2.6057
 Frc consts  --      0.7631                 2.0641                 1.3919
 IR Inten    --     28.3196                30.8672                16.3490

                     43                     44                     45
                      A                      A                      A
 Frequencies --    958.3282               980.7789               983.0133
 Red. masses --      1.4034                 2.2562                 1.5259
 Frc consts  --      0.7594                 1.2787                 0.8687
 IR Inten    --      1.0450                 3.6355                 4.6121

                     46                     47                     48
                      A                      A                      A
 Frequencies --    990.3891              1016.9892              1042.2312
 Red. masses --      2.6767                 1.8397                 2.6034
 Frc consts  --      1.5469                 1.1210                 1.6661
 IR Inten    --     10.2506               103.1702                28.2476

                     49                     50                     51
                      A                      A                      A
 Frequencies --   1060.7625              1083.7325              1086.8325
 Red. masses --      1.7226                 2.0142                 1.7685
 Frc consts  --      1.1420                 1.3938                 1.2308
 IR Inten    --      3.8190                 3.9199                12.1543

                     52                     53                     54
                      A                      A                      A
 Frequencies --   1118.0693              1127.8784              1146.7835
 Red. masses --      1.4326                 2.6247                 2.4969
 Frc consts  --      1.0552                 1.9672                 1.9347
 IR Inten    --      2.8510                40.4461                15.6815

                     55                     56                     57
                      A                      A                      A
 Frequencies --   1169.3210              1185.2245              1206.9234
 Red. masses --      2.1220                 3.5587                 1.6933
 Frc consts  --      1.7095                 2.9454                 1.4533
 IR Inten    --      8.2676                22.3522                13.9606

                     58                     59                     60
                      A                      A                      A
 Frequencies --   1241.6462              1248.6990              1259.8862
 Red. masses --      1.1043                 2.0966                 2.2575
 Frc consts  --      1.0031                 1.9261                 2.1113
 IR Inten    --     11.2375                24.6341               135.4257

                     61                     62                     63
                      A                      A                      A
 Frequencies --   1280.6337              1311.1037              1318.3355
 Red. masses --      1.6146                 1.8667                 1.7514
 Frc consts  --      1.5601                 1.8906                 1.7934
 IR Inten    --    214.5765                29.7682                45.8906

                     64                     65                     66
                      A                      A                      A
 Frequencies --   1331.5037              1344.0954              1371.8536
 Red. masses --      3.0274                 2.2480                 1.3183
 Frc consts  --      3.1623                 2.3928                 1.4618
 IR Inten    --     40.0964                14.1393                 2.4364

                     67                     68                     69
                      A                      A                      A
 Frequencies --   1385.0882              1398.6519              1404.5445
 Red. masses --      1.9988                 2.4883                 1.6805
 Frc consts  --      2.2593                 2.8680                 1.9533
 IR Inten    --     95.8303                32.2497                 9.1385

                     70                     71                     72
                      A                      A                      A
 Frequencies --   1413.5480              1419.2064              1429.0954
 Red. masses --      1.2708                 1.4424                 1.5563
 Frc consts  --      1.4960                 1.7117                 1.8727
 IR Inten    --      8.0431                16.8512                29.3429

                     73                     74                     75
                      A                      A                      A
 Frequencies --   1452.5983              1475.6724              1481.7088
 Red. masses --      2.6294                 3.2025                 3.2384
 Frc consts  --      3.2689                 4.1088                 4.1890
 IR Inten    --      8.4410               710.0781                63.6531

                     76                     77                     78
                      A                      A                      A
 Frequencies --   1502.2785              1510.6185              1513.6894
 Red. masses --      1.0807                 1.0755                 1.4641
 Frc consts  --      1.4370                 1.4460                 1.9765
 IR Inten    --      5.9110                 0.1344                10.3089

                     79                     80                     81
                      A                      A                      A
 Frequencies --   1514.4206              1519.0720              1526.6125
 Red. masses --      1.7982                 1.1039                 1.1525
 Frc consts  --      2.4298                 1.5008                 1.5825
 IR Inten    --      5.9583                18.8748                 6.2012

                     82                     83                     84
                      A                      A                      A
 Frequencies --   1530.3201              1555.1673              1612.0959
 Red. masses --      1.1476                 3.0505                 7.2932
 Frc consts  --      1.5835                 4.3469                11.1673
 IR Inten    --     19.8064               112.7671               114.7909

                     85                     86                     87
                      A                      A                      A
 Frequencies --   1616.0690              1677.6281              1698.2240
 Red. masses --      6.5731                 2.5243                 1.5923
 Frc consts  --     10.1145                 4.1859                 2.7055
 IR Inten    --    162.1190                97.6326               279.5306

                     88                     89                     90
                      A                      A                      A
 Frequencies --   1768.5522              2984.8108              3012.4295
 Red. masses --      9.7399                 1.0743                 1.0735
 Frc consts  --     17.9491                 5.6390                 5.7396
 IR Inten    --    350.8773                34.2411                58.6795

                     91                     92                     93
                      A                      A                      A
 Frequencies --   3017.5246              3033.3994              3058.1076
 Red. masses --      1.0730                 1.0721                 1.0397
 Frc consts  --      5.7565                 5.8125                 5.7287
 IR Inten    --     15.3593                74.3650                 6.3981

                     94                     95                     96
                      A                      A                      A
 Frequencies --   3118.5232              3155.0559              3161.3034
 Red. masses --      1.1012                 1.0920                 1.0909
 Frc consts  --      6.3096                 6.4045                 6.4234
 IR Inten    --     12.5724                 9.2200                 9.8954

                     97                     98                     99
                      A                      A                      A
 Frequencies --   3164.4883              3169.7239              3175.9666
 Red. masses --      1.0881                 1.0917                 1.0903
 Frc consts  --      6.4197                 6.4624                 6.4795
 IR Inten    --     17.6827                 4.0795                51.0067

                    100                    101                    102
                      A                      A                      A
 Frequencies --   3179.8953              3181.9967              3205.0304
 Red. masses --      1.0994                 1.0886                 1.0908
 Frc consts  --      6.5498                 6.4940                 6.6016
 IR Inten    --      8.1869                11.1799                11.4197

                    103                    104                    105
                      A                      A                      A
 Frequencies --   3216.4237              3563.8016              3665.6050
 Red. masses --      1.0924                 1.0474                 1.0994
 Frc consts  --      6.6585                 7.8378                 8.7035
 IR Inten    --     11.0078                33.0203                12.7064

 - Thermochemistry -
 -------------------
 Temperature   298.150 Kelvin.  Pressure   1.00000 Atm.
 Atom     1 has atomic number  6 and mass  12.00000

 Molecular mass:   271.14331 amu.
 Principal axes and moments of inertia in atomic units:
                           1         2         3
     Eigenvalues --  2294.78985********************
           X            0.99999   0.00036  -0.00465
           Y           -0.00040   0.99997  -0.00785
           Z            0.00465   0.00786   0.99996
 This molecule is an asymmetric top.
 Rotational symmetry number  1.
 Warning -- assumption of classical behavior for rotation
           may cause significant error
 Rotational temperatures (Kelvin)      0.03774     0.00801     0.00686
 Rotational constants (GHZ):           0.78645     0.16683     0.14300
 Zero-point vibrational energy     808850.5 (Joules/Mol)
                                  193.31991 (Kcal/Mol)
 Warning -- explicit consideration of  29 degrees of freedom as
           vibrations may cause significant error
 Vibrational temperatures:     27.53    63.55    86.66    93.40   157.21
          (Kelvin)            178.56   208.84   277.80   315.43   328.20
                              357.06   400.80   433.93   449.98   478.44
                              496.92   521.41   599.24   634.15   657.82
                              678.04   695.24   730.59   758.12   767.21
                              812.87   836.09   848.98   866.02   931.06
                              970.94  1004.95  1039.32  1054.07  1079.56
                             1149.52  1202.49  1215.98  1245.25  1259.24
                             1342.43  1369.98  1378.82  1411.12  1414.34
                             1424.95  1463.22  1499.54  1526.20  1559.25
                             1563.71  1608.65  1622.77  1649.97  1682.39
                             1705.27  1736.49  1786.45  1796.60  1812.70
                             1842.55  1886.39  1896.79  1915.74  1933.85
                             1973.79  1992.83  2012.35  2020.83  2033.78
                             2041.92  2056.15  2089.96  2123.16  2131.85
                             2161.44  2173.44  2177.86  2178.91  2185.61
                             2196.45  2201.79  2237.54  2319.45  2325.16
                             2413.73  2443.37  2544.55  4294.48  4334.21
                             4341.54  4364.39  4399.93  4486.86  4539.42
                             4548.41  4552.99  4560.53  4569.51  4575.16
                             4578.18  4611.32  4627.72  5127.52  5273.99

 Zero-point correction=                           0.308075 (Hartree/Particle)
 Thermal correction to Energy=                    0.325147
 Thermal correction to Enthalpy=                  0.326091
 Thermal correction to Gibbs Free Energy=         0.262324
 Sum of electronic and zero-point Energies=           -892.505534
 Sum of electronic and thermal Energies=              -892.488462
 Sum of electronic and thermal Enthalpies=            -892.487517
 Sum of electronic and thermal Free Energies=         -892.551285

                     E (Thermal)             CV                S
                      KCal/Mol        Cal/Mol-Kelvin    Cal/Mol-Kelvin
 Total                  204.033             67.585            134.211
 Electronic               0.000              0.000              0.000
 Translational            0.889              2.981             42.691
 Rotational               0.889              2.981             34.104
 Vibrational            202.255             61.624             57.415
 Vibration     1          0.593              1.986              6.722
 Vibration     2          0.595              1.980              5.063
 Vibration     3          0.597              1.973              4.450
 Vibration     4          0.597              1.971              4.302
 Vibration     5          0.606              1.942              3.282
 Vibration     6          0.610              1.929              3.035
 Vibration     7          0.617              1.908              2.735
 Vibration     8          0.635              1.849              2.198
 Vibration     9          0.647              1.812              1.965
 Vibration    10          0.651              1.798              1.894
 Vibration    11          0.662              1.766              1.744
 Vibration    12          0.679              1.713              1.542
 Vibration    13          0.694              1.671              1.408
 Vibration    14          0.701              1.649              1.348
 Vibration    15          0.714              1.611              1.248
 Vibration    16          0.724              1.585              1.187
 Vibration    17          0.736              1.550              1.112
 Vibration    18          0.780              1.434              0.904
 Vibration    19          0.801              1.381              0.824
 Vibration    20          0.815              1.345              0.774
 Vibration    21          0.828              1.314              0.734
 Vibration    22          0.839              1.287              0.701
 Vibration    23          0.863              1.233              0.639
 Vibration    24          0.882              1.190              0.594
 Vibration    25          0.888              1.176              0.580
 Vibration    26          0.921              1.107              0.514
 Vibration    27          0.938              1.072              0.483
 Vibration    28          0.947              1.053              0.467
 Vibration    29          0.960              1.028              0.446

 Optimization completed.
    -- Stationary point found.
 Normal termination of Gaussian 16 at Sat Dec 12 16:50:25 2020.

 ----------------------------------------------------------------------
 # B3LYP/6-311++G(d,p) empiricaldispersion=gd3bj scf=xqc pop=npa geom=c
 heck
 ----------------------------------------------------------------------

 ---------------------------------------
 CID_65337093_JID_10629_Energie_neutraal
 ---------------------------------------
 Structure from the checkpoint file:  "JID_10629.chk"
 Charge =  0 Multiplicity = 1

 SCF Done:  E(RB3LYP) =  -893.056273375     A.U. after   16 cycles
 Normal termination of Gaussian 16 at Sat Dec 12 16:59:08 2020.

 ----------------------------------------------------------------------
 # B3LYP/6-311++G(d,p) empiricaldispersion=gd3bj scf=xqc pop=npa geom=c
 heck
 ----------------------------------------------------------------------

 -------------------------------------
 CID_65337093_JID_10629_Energie_kation
 -------------------------------------
 Structure from the checkpoint file:  "JID_10629.chk"
 Charge =  1 Multiplicity = 2

 SCF Done:  E(UB3LYP) =  -892.769187834     A.U. after   31 cycles
 Normal termination of Gaussian 16 at Sat Dec 12 17:23:42 2020.
 Gaussian 16:  ES64L-G16RevA.03 25-Dec-2016

 ----------------------------------------------------------------------
 # B3LYP/6-311++G(d,p) empiricaldispersion=gd3bj scf=xqc pop=npa geom=c
 heck
 ----------------------------------------------------------------------

 ------------------------------------
 CID_65337093_JID_10629_Energie_anion
 ------------------------------------
 Structure from the checkpoint file:  "JID_10629.chk"
 Charge = -1 Multiplicity = 2

                         Standard orientation:
 ---------------------------------------------------------------------
 Center     Atomic      Atomic             Coordinates (Angstroms)
 Number     Number       Type             X           Y           Z
 ---------------------------------------------------------------------
      1          6           0       -5.063536   -1.673494    0.957010
      2          6           0       -4.667437   -0.483299    0.093406
      3          8           0       -5.501921    0.339093   -0.267507
      4          7           0       -3.341267   -0.371115   -0.255066
      5          6           0       -2.905548    0.742915   -1.092690
      6          6           0       -1.724763    1.473321   -0.456633
      7          7           0       -0.650762    0.509298   -0.193724
      8          6           0       -1.106308   -0.546009    0.720256
      9          6           0       -2.281215   -1.301510    0.099649
     10          6           0        0.634909    1.017996   -0.023618
     11          7           0        0.767404    2.326947    0.147758
     12          6           0        2.020585    2.793650    0.368713
     13          7           0        3.135940    2.108796    0.479049
     14          6           0        3.032698    0.763294    0.236596
     15          6           0        1.779111    0.157646   -0.079942
     16          6           0        1.769630   -1.200187   -0.482523
     17          6           0        2.924214   -1.944434   -0.482070
     18          6           0        4.164172   -1.366529   -0.085002
     19          6           0        4.203500   -0.020023    0.251884
     20          7           0        5.297247   -2.165361   -0.022695
     21          1           0       -6.140040   -1.612400    1.116947
     22          1           0       -4.559442   -1.656335    1.929913
     23          1           0       -4.828299   -2.627727    0.472628
     24          1           0       -2.606262    0.360030   -2.078888
     25          1           0       -3.758397    1.409563   -1.217724
     26          1           0       -2.041932    1.971418    0.472011
     27          1           0       -1.344693    2.243244   -1.128749
     28          1           0       -1.435494   -0.094903    1.671690
     29          1           0       -0.288948   -1.231413    0.940936
     30          1           0       -2.650343   -2.044321    0.806264
     31          1           0       -1.933430   -1.829792   -0.801539
     32          1           0        2.093225    3.872097    0.500949
     33          1           0        0.846745   -1.645999   -0.837477
     34          1           0        2.903405   -2.984112   -0.799200
     35          1           0        5.137072    0.471084    0.508828
     36          1           0        6.181847   -1.674479   -0.029818
     37          1           0        5.300359   -2.978672   -0.624171
 ---------------------------------------------------------------------

 SCF Done:  E(UB3LYP) =  -893.064685420     A.U. after   33 cycles
 SCF Done:  E(UB3LYP) =  -893.064685420     a.u. after    1 cycles

 The electronic state is 2-A.
 Alpha  occ. eigenvalues --  -18.99579 -14.25040 -14.21434 -14.21008 -14.15984
 Alpha  occ. eigenvalues --  -14.15207 -10.18447 -10.11849 -10.10392 -10.10077
 Alpha  occ. eigenvalues --  -10.09401 -10.09206 -10.09203 -10.08947 -10.08369
 Alpha  occ. eigenvalues --  -10.07673 -10.04605 -10.03956 -10.03771 -10.02728
 Alpha  occ. eigenvalues --   -0.94899  -0.86623  -0.84265  -0.81346  -0.80763
 Alpha  occ. eigenvalues --   -0.73722  -0.70545  -0.68302  -0.66246  -0.63165
 Alpha  occ. eigenvalues --   -0.61555  -0.60322  -0.55809  -0.53420  -0.51160
 Alpha  occ. eigenvalues --   -0.49867  -0.48205  -0.45177  -0.42417  -0.41178
 Alpha  occ. eigenvalues --   -0.40717  -0.39717  -0.38631  -0.37882  -0.37447
 Alpha  occ. eigenvalues --   -0.36406  -0.35755  -0.34395  -0.33166  -0.32345
 Alpha  occ. eigenvalues --   -0.32020  -0.31527  -0.30219  -0.29948  -0.29120
 Alpha  occ. eigenvalues --   -0.28476  -0.27474  -0.26869  -0.26476  -0.26045
 Alpha  occ. eigenvalues --   -0.25519  -0.24972  -0.23141  -0.19885  -0.19097
 Alpha  occ. eigenvalues --   -0.16894  -0.15729  -0.15371  -0.13493  -0.11419
 Alpha  occ. eigenvalues --   -0.09886  -0.09523   0.03856
 Alpha virt. eigenvalues --    0.05630   0.06636   0.07881   0.08280   0.08802
 Alpha virt. eigenvalues --    0.09342   0.09889   0.10431   0.10805   0.10953
 Alpha virt. eigenvalues --    0.11263   0.11719   0.12164   0.12365   0.12756

  Beta  occ. eigenvalues --  -18.99577 -14.25039 -14.21406 -14.21000 -14.15994
  Beta  occ. eigenvalues --  -14.14980 -10.18446 -10.11837 -10.10387 -10.10035
  Beta  occ. eigenvalues --  -10.09206 -10.09183 -10.08975 -10.08871 -10.08250
  Beta  occ. eigenvalues --  -10.07709 -10.04697 -10.03852 -10.03493 -10.02588
  Beta  occ. eigenvalues --   -0.94895  -0.86497  -0.84054  -0.81223  -0.80578
  Beta  occ. eigenvalues --   -0.73472  -0.70221  -0.68270  -0.66196  -0.62929
  Beta  occ. eigenvalues --   -0.61204  -0.60223  -0.55725  -0.53146  -0.50937
  Beta  occ. eigenvalues --   -0.49693  -0.48020  -0.45044  -0.42296  -0.41060
  Beta  occ. eigenvalues --   -0.40616  -0.39532  -0.38564  -0.37837  -0.37371
  Beta  occ. eigenvalues --   -0.36282  -0.35679  -0.34287  -0.33081  -0.32287
  Beta  occ. eigenvalues --   -0.31946  -0.31479  -0.30076  -0.29777  -0.28832
  Beta  occ. eigenvalues --   -0.28052  -0.27442  -0.26729  -0.26408  -0.25827
  Beta  occ. eigenvalues --   -0.25395  -0.24556  -0.22986  -0.18869  -0.18444
  Beta  occ. eigenvalues --   -0.16886  -0.15616  -0.15189  -0.12819  -0.11256
  Beta  occ. eigenvalues --   -0.09293  -0.08499
  Beta virt. eigenvalues --    0.05856   0.06584   0.07924   0.08348   0.08674
  Beta virt. eigenvalues --    0.09126   0.09329   0.09881   0.10381   0.10902
  Beta virt. eigenvalues --    0.10966   0.11287   0.11688   0.12156   0.12340

 Mulliken charges and spin densities:
               1          2
     1  C    0.180163  -0.673698
     2  C   -0.091775   0.258470
     3  O   -0.358940   0.002085
     4  N    0.081496   0.038029
     5  C   -0.591506  -0.065503
     6  C    0.103901   0.084875
     7  N    0.330633   0.031226
     8  C   -0.299358  -0.197312
     9  C   -0.294560  -0.137316
    10  C   -0.250801   0.093683
    11  N   -0.206985  -0.000652
    12  C    0.094448   0.110574
    13  N   -0.102496   0.102956
    14  C   -0.420886  -0.062819
    15  C    0.697698  -0.036765
    16  C   -0.419950   0.092228
    17  C    0.087490   0.281684
    18  C   -0.338738  -0.035316
    19  C   -0.614297   0.037032
    20  N   -0.328178   0.012669
    21  H    0.146420   0.039267
    22  H   -0.057943   0.218853
    23  H   -0.043953   0.200998
    24  H    0.119405   0.040435
    25  H    0.192097   0.028623
    26  H    0.143643   0.012390
    27  H    0.168928   0.021795
    28  H    0.039030   0.113365
    29  H    0.182076  -0.015395
    30  H   -0.020859   0.178127
    31  H    0.073671   0.105765
    32  H    0.157081  -0.001512
    33  H    0.045439   0.023887
    34  H    0.059294   0.061408
    35  H    0.129956  -0.003899
    36  H    0.204610   0.021477
    37  H    0.203747   0.018285
 Sum of Mulliken charges =  -1.00000   1.00000

 Dipole moment (field-independent basis, Debye):
    X=             -0.9379    Y=             -4.0597    Z=             -1.4016  Tot=              4.3961
 Quadrupole moment (field-independent basis, Debye-Ang):
   XX=           -198.6567   YY=           -144.9962   ZZ=           -133.3321
   XY=             -6.0368   XZ=             -6.3149   YZ=              1.5878

 Summary of Natural Population Analysis:

                                       Natural Population
                Natural  -----------------------------------------------
    Atom  No    Charge         Core      Valence    Rydberg      Total
 -----------------------------------------------------------------------
      C    1   -0.33141      0.99963     2.32743    0.00434     3.33141
      C    2    0.34365      0.99967     1.63478    0.02190     2.65635
      O    3   -0.33082      0.99988     3.32518    0.00576     4.33082
      N    4   -0.25660      0.99964     2.74664    0.01032     3.75660
      C    5   -0.09128      0.99961     2.08208    0.00960     3.09128
      C    6   -0.08803      0.99962     2.07839    0.01002     3.08803
      N    7   -0.26581      0.99965     2.75510    0.01106     3.76581
      C    8   -0.08448      0.99960     2.07326    0.01161     3.08448
      C    9   -0.08843      0.99960     2.07764    0.01119     3.08843
      C   10    0.29813      0.99950     1.68666    0.01571     2.70187
      N   11   -0.29298      0.99967     2.78416    0.00914     3.79298
      C   12    0.16111      0.99967     1.82044    0.01877     2.83889
      N   13   -0.23844      0.99969     2.72851    0.01024     3.73844
      C   14    0.09127      0.99949     1.89310    0.01614     2.90873
      C   15   -0.09747      0.99945     2.08908    0.00894     3.09747
      C   16   -0.03689      0.99956     2.02906    0.00827     3.03689
      C   17   -0.11174      0.99953     2.10364    0.00857     3.11174
      C   18    0.10070      0.99951     1.88979    0.01001     2.89930
      C   19   -0.11585      0.99949     2.10681    0.00955     3.11585
      N   20   -0.39656      0.99971     2.88741    0.00944     3.89656
      H   21    0.11183      0.00000     0.38717    0.00100     0.38817
      H   22    0.10891      0.00000     0.38973    0.00136     0.39109
      H   23    0.10636      0.00000     0.39253    0.00110     0.39364
      H   24    0.09183      0.00000     0.40669    0.00148     0.40817
      H   25    0.11573      0.00000     0.38297    0.00130     0.38427
      H   26    0.08915      0.00000     0.40900    0.00184     0.41085
      H   27    0.11179      0.00000     0.38687    0.00134     0.38821
      H   28    0.08459      0.00000     0.41372    0.00169     0.41541
      H   29    0.11091      0.00000     0.38784    0.00125     0.38909
      H   30    0.10191      0.00000     0.39692    0.00117     0.39809
      H   31    0.09325      0.00000     0.40519    0.00156     0.40675
      H   32    0.07011      0.00000     0.42860    0.00128     0.42989
      H   33    0.09213      0.00000     0.40580    0.00207     0.40787
      H   34    0.08754      0.00000     0.41089    0.00158     0.41246
      H   35    0.09504      0.00000     0.40322    0.00175     0.40496
      H   36    0.18091      0.00000     0.31750    0.00159     0.31909
      H   37    0.17991      0.00000     0.31851    0.00158     0.32009
 =======================================================================
   * Total *    0.00000     19.99216    51.76232    0.24552    72.00000

 Normal termination of Gaussian 16 at Sat Dec 12 17:49:37 2020.
