 Gaussian 16, Revision A.03,

 -----------------------------------------------------------
 # opt freq B3LYP/6-31G(d) empiricaldispersion=gd3bj scf=xqc
 -----------------------------------------------------------

 ------------------------------
 CID_82472887_JID_6485_neutraal
 ------------------------------
 Symbolic Z-matrix:
 Charge =  0 Multiplicity = 1

 SCF Done:  E(RB3LYP) =  -704.423218439     A.U. after   14 cycles
 SCF Done:  E(RB3LYP) =  -704.427532137     A.U. after   11 cycles
 SCF Done:  E(RB3LYP) =  -704.428301129     A.U. after   12 cycles
 SCF Done:  E(RB3LYP) =  -704.428443725     A.U. after   12 cycles
 SCF Done:  E(RB3LYP) =  -704.428812026     A.U. after   11 cycles
 SCF Done:  E(RB3LYP) =  -704.428968921     A.U. after   10 cycles
 SCF Done:  E(RB3LYP) =  -704.428996574     A.U. after   11 cycles
 SCF Done:  E(RB3LYP) =  -704.429014491     A.U. after    9 cycles
 SCF Done:  E(RB3LYP) =  -704.429021655     A.U. after   10 cycles
 SCF Done:  E(RB3LYP) =  -704.429025353     A.U. after   10 cycles
 SCF Done:  E(RB3LYP) =  -704.435153094     A.U. after    9 cycles
 SCF Done:  E(RB3LYP) =  -704.435152987     A.U. after    7 cycles
 SCF Done:  E(RB3LYP) =  -704.435152858     A.U. after    7 cycles
 SCF Done:  E(RB3LYP) =  -704.435153313     A.U. after    9 cycles
 SCF Done:  E(RB3LYP) =  -704.435152931     A.U. after    8 cycles
 Optimization completed.
    -- Stationary point found.
 Normal termination of Gaussian 16 at Fri Dec 11 00:04:17 2020.

 --------------------------------------------------------------------
 #N Geom=AllCheck Guess=TCheck SCRF=Check GenChk RB3LYP/6-31G(d) Freq
 --------------------------------------------------------------------

 Structure from the checkpoint file:  "JID_6485.chk"
 ------------------------------
 CID_82472887_JID_6485_neutraal
 ------------------------------
 Charge =  0 Multiplicity = 1

 SCF Done:  E(RB3LYP) =  -704.435152931     A.U. after    1 cycles

  Exact polarizability: 151.956   0.031 144.414  15.028  -2.732 127.498
 Approx polarizability: 209.178   2.417 222.372  29.359  -6.642 196.451

                      1                      2                      3
                      A                      A                      A
 Frequencies --     30.6307                36.8173                44.0833
 Red. masses --      3.1788                 1.3778                 2.3768
 Frc consts  --      0.0018                 0.0011                 0.0027
 IR Inten    --      0.0515                 0.9196                 0.0932

                      4                      5                      6
                      A                      A                      A
 Frequencies --     72.5412                82.1220                83.2747
 Red. masses --      3.5395                 3.8164                 1.0667
 Frc consts  --      0.0110                 0.0152                 0.0044
 IR Inten    --      0.1487                 1.0329                 0.8096

                      7                      8                      9
                      A                      A                      A
 Frequencies --    141.3208               178.4208               182.1453
 Red. masses --      3.1827                 3.4892                 6.1697
 Frc consts  --      0.0375                 0.0654                 0.1206
 IR Inten    --      0.2919                 3.3616                 2.8752

                     10                     11                     12
                      A                      A                      A
 Frequencies --    192.1857               248.0138               258.7776
 Red. masses --      6.5085                 1.9651                 2.5199
 Frc consts  --      0.1416                 0.0712                 0.0994
 IR Inten    --      0.8545                 0.4203                 7.4765

                     13                     14                     15
                      A                      A                      A
 Frequencies --    287.6691               310.0737               384.8142
 Red. masses --      2.4342                 2.1476                 2.0154
 Frc consts  --      0.1187                 0.1217                 0.1758
 IR Inten    --      2.1624                 1.9218                 8.8888

                     16                     17                     18
                      A                      A                      A
 Frequencies --    410.6928               427.2519               448.5637
 Red. masses --      4.5242                 1.8935                 2.2687
 Frc consts  --      0.4496                 0.2036                 0.2689
 IR Inten    --      2.6227                 0.3972                 7.2669

                     19                     20                     21
                      A                      A                      A
 Frequencies --    482.6187               502.5695               562.2631
 Red. masses --      2.6062                 3.3507                 4.2921
 Frc consts  --      0.3577                 0.4986                 0.7995
 IR Inten    --      0.6899                 4.5954                 6.0194

                     22                     23                     24
                      A                      A                      A
 Frequencies --    575.2156               585.0777               586.9192
 Red. masses --      5.4259                 1.6643                 3.0199
 Frc consts  --      1.0578                 0.3357                 0.6129
 IR Inten    --     11.1671                 3.6863                 1.1940

                     25                     26                     27
                      A                      A                      A
 Frequencies --    607.0092               667.9572               739.5325
 Red. masses --      4.0015                 2.8803                 2.7065
 Frc consts  --      0.8687                 0.7572                 0.8721
 IR Inten    --      2.3738                 4.3067                 5.5753

                     28                     29                     30
                      A                      A                      A
 Frequencies --    804.1999               819.0755               841.2882
 Red. masses --      3.2909                 2.4865                 1.6053
 Frc consts  --      1.2540                 0.9829                 0.6694
 IR Inten    --      4.5682               109.2188                 0.1554

                     31                     32                     33
                      A                      A                      A
 Frequencies --    875.8508               891.2793               907.6428
 Red. masses --      1.9090                 2.3994                 2.5505
 Frc consts  --      0.8628                 1.1230                 1.2380
 IR Inten    --     25.0132                 9.4490                10.2017

                     34                     35                     36
                      A                      A                      A
 Frequencies --    942.7207               973.2604               980.0019
 Red. masses --      2.1502                 3.2368                 2.0012
 Frc consts  --      1.1259                 1.8065                 1.1324
 IR Inten    --      5.9388                14.5611                15.2898

                     37                     38                     39
                      A                      A                      A
 Frequencies --   1007.5694              1012.1551              1038.1014
 Red. masses --      2.6625                11.2305                 1.5974
 Frc consts  --      1.5925                 6.7786                 1.0142
 IR Inten    --     11.0229                 0.7847                 5.0241

                     40                     41                     42
                      A                      A                      A
 Frequencies --   1048.0948              1060.4732              1066.6952
 Red. masses --      2.4348                 2.4347                 1.9979
 Frc consts  --      1.5759                 1.6132                 1.3394
 IR Inten    --     22.5287                20.7168                 0.9178

                     43                     44                     45
                      A                      A                      A
 Frequencies --   1068.5266              1073.5482              1083.4885
 Red. masses --      2.1914                 1.7750                 1.6743
 Frc consts  --      1.4742                 1.2053                 1.1580
 IR Inten    --      2.8068                18.4496                 0.6731

                     46                     47                     48
                      A                      A                      A
 Frequencies --   1123.4954              1142.5392              1169.7482
 Red. masses --      1.9748                 4.5997                 1.9584
 Frc consts  --      1.4686                 3.5377                 1.5789
 IR Inten    --     25.2442                26.8278                 3.2504

                     49                     50                     51
                      A                      A                      A
 Frequencies --   1209.2871              1226.8954              1227.6891
 Red. masses --      1.9003                 1.9788                 1.5294
 Frc consts  --      1.6373                 1.7550                 1.3581
 IR Inten    --     44.9635                 7.5368                 1.8122

                     52                     53                     54
                      A                      A                      A
 Frequencies --   1256.1721              1275.3444              1334.3187
 Red. masses --      1.5218                 1.2047                 1.6562
 Frc consts  --      1.4148                 1.1545                 1.7373
 IR Inten    --     13.2398                 4.1842                 4.5594

                     55                     56                     57
                      A                      A                      A
 Frequencies --   1357.2439              1369.6792              1384.4468
 Red. masses --      1.3039                 1.2879                 1.7283
 Frc consts  --      1.4151                 1.4235                 1.9518
 IR Inten    --      4.3640                 0.4870                59.0946

                     58                     59                     60
                      A                      A                      A
 Frequencies --   1394.4770              1397.9188              1399.2508
 Red. masses --      1.4049                 1.6478                 1.5402
 Frc consts  --      1.6096                 1.8972                 1.7767
 IR Inten    --     19.7674                11.1875                 5.7775

                     61                     62                     63
                      A                      A                      A
 Frequencies --   1404.6589              1416.5123              1425.8935
 Red. masses --      1.6448                 1.3177                 1.2408
 Frc consts  --      1.9121                 1.5578                 1.4864
 IR Inten    --     15.3126                 3.5304                 3.6941

                     64                     65                     66
                      A                      A                      A
 Frequencies --   1439.4466              1440.7104              1444.3334
 Red. masses --      1.9652                 1.6627                 2.0342
 Frc consts  --      2.3992                 2.0334                 2.5002
 IR Inten    --     48.4782                 6.1386                57.3429

                     67                     68                     69
                      A                      A                      A
 Frequencies --   1466.8644              1490.7026              1497.2487
 Red. masses --      2.2998                 1.0934                 1.1682
 Frc consts  --      2.9155                 1.4316                 1.5430
 IR Inten    --      6.5676                 4.7990                72.7233

                     70                     71                     72
                      A                      A                      A
 Frequencies --   1500.6774              1501.9056              1505.3791
 Red. masses --      1.0994                 1.1858                 1.0798
 Frc consts  --      1.4587                 1.5759                 1.4418
 IR Inten    --     19.6850                45.2889                17.6807

                     73                     74                     75
                      A                      A                      A
 Frequencies --   1506.1365              1506.9742              1508.0255
 Red. masses --      1.0736                 1.1042                 1.1525
 Frc consts  --      1.4349                 1.4775                 1.5442
 IR Inten    --      2.1028                 1.0008                14.3404

                     76                     77                     78
                      A                      A                      A
 Frequencies --   1515.7442              1516.7946              1519.9165
 Red. masses --      1.1889                 1.1637                 1.1255
 Frc consts  --      1.6094                 1.5775                 1.5320
 IR Inten    --     18.3505                 3.7292                 9.3067

                     79                     80                     81
                      A                      A                      A
 Frequencies --   1599.8049              1601.6999              2954.2860
 Red. masses --      7.1949                 5.7244                 1.0724
 Frc consts  --     10.8494                 8.6526                 5.5148
 IR Inten    --    302.8971               292.8967                49.2323

                     82                     83                     84
                      A                      A                      A
 Frequencies --   2962.9325              3011.8471              3048.8348
 Red. masses --      1.0728                 1.0711                 1.0625
 Frc consts  --      5.5488                 5.7245                 5.8190
 IR Inten    --    135.7129                77.3238                49.1637

                     85                     86                     87
                      A                      A                      A
 Frequencies --   3050.8297              3058.3224              3061.6457
 Red. masses --      1.0676                 1.0701                 1.0409
 Frc consts  --      5.8547                 5.8973                 5.7486
 IR Inten    --     24.2945                45.5143                 2.1645

                     88                     89                     90
                      A                      A                      A
 Frequencies --   3065.6661              3076.4376              3093.8039
 Red. masses --      1.0375                 1.0900                 1.0905
 Frc consts  --      5.7452                 6.0780                 6.1498
 IR Inten    --      4.7122                43.6815                14.9627

                     91                     92                     93
                      A                      A                      A
 Frequencies --   3103.0489              3106.6163              3123.0511
 Red. masses --      1.1042                 1.0929                 1.1000
 Frc consts  --      6.2644                 6.2145                 6.3210
 IR Inten    --     22.2021                13.9185                 7.3579

                     94                     95                     96
                      A                      A                      A
 Frequencies --   3125.9979              3130.1860              3134.8283
 Red. masses --      1.0953                 1.0957                 1.0931
 Frc consts  --      6.3063                 6.3251                 6.3293
 IR Inten    --      8.7180                21.5553                39.4641

                     97                     98                     99
                      A                      A                      A
 Frequencies --   3173.3635              3174.4244              3443.3194
 Red. masses --      1.1026                 1.1036                 1.0733
 Frc consts  --      6.5422                 6.5525                 7.4976
 IR Inten    --      7.2593                 9.0926                 7.6701

 - Thermochemistry -
 -------------------
 Temperature   298.150 Kelvin.  Pressure   1.00000 Atm.
 Atom     1 has atomic number  6 and mass  12.00000

 Molecular mass:   221.16405 amu.
 Principal axes and moments of inertia in atomic units:
                           1         2         3
     Eigenvalues --  2331.258714208.573654776.49212
           X            0.99990  -0.00038   0.01436
           Y            0.00082   0.99953  -0.03080
           Z           -0.01434   0.03081   0.99942
 This molecule is an asymmetric top.
 Rotational symmetry number  1.
 Warning -- assumption of classical behavior for rotation
           may cause significant error
 Rotational temperatures (Kelvin)      0.03715     0.02058     0.01813
 Rotational constants (GHZ):           0.77415     0.42882     0.37784
 Zero-point vibrational energy     805086.3 (Joules/Mol)
                                  192.42023 (Kcal/Mol)
 Warning -- explicit consideration of  25 degrees of freedom as
           vibrations may cause significant error
 Vibrational temperatures:     44.07    52.97    63.43   104.37   118.16
          (Kelvin)            119.81   203.33   256.71   262.07   276.51
                              356.84   372.32   413.89   446.13   553.66
                              590.90   614.72   645.38   694.38   723.09
                              808.97   827.61   841.80   844.45   873.35
                              961.04  1064.02  1157.06  1178.47  1210.43
                             1260.15  1282.35  1305.90  1356.36  1400.30
                             1410.00  1449.67  1456.27  1493.60  1507.97
                             1525.78  1534.74  1537.37  1544.60  1558.90
                             1616.46  1643.86  1683.01  1739.89  1765.23
                             1766.37  1807.35  1834.94  1919.79  1952.77
                             1970.66  1991.91  2006.34  2011.29  2013.21
                             2020.99  2038.05  2051.54  2071.04  2072.86
                             2078.07  2110.49  2144.79  2154.21  2159.14
                             2160.91  2165.90  2166.99  2168.20  2169.71
                             2180.82  2182.33  2186.82  2301.76  2304.49
                             4250.56  4263.00  4333.38  4386.59  4389.46
                             4400.24  4405.03  4410.81  4426.31  4451.29
                             4464.60  4469.73  4493.37  4497.61  4503.64
                             4510.32  4565.76  4567.29  4954.17

 Zero-point correction=                           0.306641 (Hartree/Particle)
 Thermal correction to Energy=                    0.322394
 Thermal correction to Enthalpy=                  0.323338
 Thermal correction to Gibbs Free Energy=         0.262075
 Sum of electronic and zero-point Energies=           -704.128512
 Sum of electronic and thermal Energies=              -704.112759
 Sum of electronic and thermal Enthalpies=            -704.111815
 Sum of electronic and thermal Free Energies=         -704.173078

                     E (Thermal)             CV                S
                      KCal/Mol        Cal/Mol-Kelvin    Cal/Mol-Kelvin
 Total                  202.305             58.980            128.938
 Electronic               0.000              0.000              0.000
 Translational            0.889              2.981             42.084
 Rotational               0.889              2.981             32.216
 Vibrational            200.528             53.018             54.638
 Vibration     1          0.594              1.984              5.788
 Vibration     2          0.594              1.982              5.423
 Vibration     3          0.595              1.980              5.067
 Vibration     4          0.599              1.967              4.083
 Vibration     5          0.600              1.961              3.840
 Vibration     6          0.600              1.961              3.812
 Vibration     7          0.615              1.912              2.786
 Vibration     8          0.629              1.869              2.345
 Vibration     9          0.630              1.864              2.306
 Vibration    10          0.634              1.851              2.207
 Vibration    11          0.662              1.766              1.745
 Vibration    12          0.668              1.748              1.670
 Vibration    13          0.685              1.697              1.488
 Vibration    14          0.699              1.655              1.362
 Vibration    15          0.754              1.503              1.020
 Vibration    16          0.775              1.447              0.924
 Vibration    17          0.789              1.411              0.868
 Vibration    18          0.808              1.364              0.800
 Vibration    19          0.839              1.289              0.703
 Vibration    20          0.858              1.244              0.652
 Vibration    21          0.918              1.113              0.519
 Vibration    22          0.932              1.085              0.494
 Vibration    23          0.942              1.064              0.476
 Vibration    24          0.944              1.060              0.473
 Vibration    25          0.966              1.017              0.438

 Optimization completed.
    -- Stationary point found.
 Normal termination of Gaussian 16 at Fri Dec 11 00:17:18 2020.

 ----------------------------------------------------------------------
 # B3LYP/6-311++G(d,p) empiricaldispersion=gd3bj scf=xqc pop=npa geom=c
 heck
 ----------------------------------------------------------------------

 --------------------------------------
 CID_82472887_JID_6485_Energie_neutraal
 --------------------------------------
 Structure from the checkpoint file:  "JID_6485.chk"
 Charge =  0 Multiplicity = 1

 SCF Done:  E(RB3LYP) =  -704.624478997     A.U. after   15 cycles
 Normal termination of Gaussian 16 at Fri Dec 11 00:23:30 2020.

 ----------------------------------------------------------------------
 # B3LYP/6-311++G(d,p) empiricaldispersion=gd3bj scf=xqc pop=npa geom=c
 heck
 ----------------------------------------------------------------------

 ------------------------------------
 CID_82472887_JID_6485_Energie_kation
 ------------------------------------
 Structure from the checkpoint file:  "JID_6485.chk"
 Charge =  1 Multiplicity = 2

 SCF Done:  E(UB3LYP) =  -704.367215897     A.U. after   19 cycles
 Normal termination of Gaussian 16 at Fri Dec 11 00:34:36 2020.
 Gaussian 16:  ES64L-G16RevA.03 25-Dec-2016

 ----------------------------------------------------------------------
 # B3LYP/6-311++G(d,p) empiricaldispersion=gd3bj scf=xqc pop=npa geom=c
 heck
 ----------------------------------------------------------------------

 -----------------------------------
 CID_82472887_JID_6485_Energie_anion
 -----------------------------------
 Structure from the checkpoint file:  "JID_6485.chk"
 Charge = -1 Multiplicity = 2

                         Standard orientation:
 ---------------------------------------------------------------------
 Center     Atomic      Atomic             Coordinates (Angstroms)
 Number     Number       Type             X           Y           Z
 ---------------------------------------------------------------------
      1          6           0        3.164330   -1.686507    1.332416
      2          6           0        2.355539   -0.819416    0.413050
      3          7           0        2.689042    0.482067    0.346879
      4          6           0        1.950785    1.219830   -0.488975
      5          7           0        0.936729    0.744164   -1.233794
      6          6           0        0.671104   -0.557218   -1.080174
      7          7           0        1.356024   -1.385393   -0.271041
      8          6           0       -0.496598   -1.131663   -1.822810
      9          6           0       -1.552953   -1.804996   -0.901749
     10          7           0       -2.251392   -0.989580    0.062801
     11          6           0       -1.741673   -0.827814    1.416285
     12          6           0       -1.088204    0.541744    1.674858
     13          7           0       -1.904708    1.672956    1.214796
     14          6           0       -2.331484    1.488551   -0.180414
     15          6           0       -3.037010    0.140023   -0.407441
     16          6           0        2.233040    2.689194   -0.579333
     17          1           0        3.110354   -1.297797    2.355141
     18          1           0        4.219232   -1.662676    1.038041
     19          1           0        2.797828   -2.713786    1.307544
     20          1           0       -0.949203   -0.340818   -2.426478
     21          1           0       -0.128031   -1.906893   -2.507952
     22          1           0       -2.294178   -2.266078   -1.571232
     23          1           0       -1.060094   -2.617891   -0.360155
     24          1           0       -2.586534   -0.934027    2.120852
     25          1           0       -1.036242   -1.637844    1.629357
     26          1           0       -0.123117    0.601406    1.164994
     27          1           0       -0.894845    0.666768    2.747568
     28          1           0       -2.739896    1.724239    1.800979
     29          1           0       -1.438078    1.557529   -0.811321
     30          1           0       -2.997231    2.317731   -0.450946
     31          1           0       -3.275582   -0.007206   -1.467649
     32          1           0       -3.997446    0.158335    0.138485
     33          1           0        1.427008    3.239699   -0.078493
     34          1           0        3.181456    2.928208   -0.095790
     35          1           0        2.243476    3.011242   -1.624697
 ---------------------------------------------------------------------

 SCF Done:  E(UB3LYP) =  -704.620667858     A.U. after   33 cycles
 SCF Done:  E(UB3LYP) =  -704.620667858     a.u. after    1 cycles

 The electronic state is 2-A.
 Alpha  occ. eigenvalues --  -14.18626 -14.18068 -14.16773 -14.16277 -14.15583
 Alpha  occ. eigenvalues --  -10.10918 -10.10642 -10.07975 -10.07726 -10.07700
 Alpha  occ. eigenvalues --  -10.07204 -10.07170 -10.07097 -10.05016 -10.04958
 Alpha  occ. eigenvalues --  -10.03610  -0.87004  -0.82180  -0.77372  -0.75387
 Alpha  occ. eigenvalues --   -0.75224  -0.64584  -0.63881  -0.62106  -0.61028
 Alpha  occ. eigenvalues --   -0.56860  -0.52754  -0.51520  -0.48108  -0.47205
 Alpha  occ. eigenvalues --   -0.44558  -0.41189  -0.37810  -0.36228  -0.34925
 Alpha  occ. eigenvalues --   -0.34096  -0.33853  -0.33340  -0.32626  -0.30592
 Alpha  occ. eigenvalues --   -0.29972  -0.29663  -0.28927  -0.28222  -0.27910
 Alpha  occ. eigenvalues --   -0.26922  -0.26041  -0.25046  -0.24436  -0.23649
 Alpha  occ. eigenvalues --   -0.23516  -0.22457  -0.21858  -0.21490  -0.17054
 Alpha  occ. eigenvalues --   -0.16770  -0.13104  -0.12151  -0.11959  -0.07263
 Alpha  occ. eigenvalues --    0.04956
 Alpha virt. eigenvalues --    0.07224   0.08273   0.08493   0.08867   0.09390
 Alpha virt. eigenvalues --    0.09649   0.10365   0.10768   0.11128   0.11427
 Alpha virt. eigenvalues --    0.12379   0.12692   0.13104   0.13242   0.13956

  Beta  occ. eigenvalues --  -14.18620 -14.18072 -14.16834 -14.16234 -14.15224
  Beta  occ. eigenvalues --  -10.10854 -10.10499 -10.07964 -10.07691 -10.07202
  Beta  occ. eigenvalues --  -10.07190 -10.07108 -10.07094 -10.05030 -10.04965
  Beta  occ. eigenvalues --  -10.03652  -0.86593  -0.82164  -0.77342  -0.75161
  Beta  occ. eigenvalues --   -0.74616  -0.64567  -0.63695  -0.62059  -0.60884
  Beta  occ. eigenvalues --   -0.56700  -0.52735  -0.51281  -0.47958  -0.46950
  Beta  occ. eigenvalues --   -0.44469  -0.40998  -0.37752  -0.36126  -0.34852
  Beta  occ. eigenvalues --   -0.33875  -0.33706  -0.33060  -0.32444  -0.30426
  Beta  occ. eigenvalues --   -0.29907  -0.29577  -0.28540  -0.28183  -0.27855
  Beta  occ. eigenvalues --   -0.26875  -0.25962  -0.24727  -0.24307  -0.23608
  Beta  occ. eigenvalues --   -0.23359  -0.22254  -0.21724  -0.21323  -0.16201
  Beta  occ. eigenvalues --   -0.15255  -0.13033  -0.12079  -0.11652  -0.07232
  Beta virt. eigenvalues --    0.07240   0.08355   0.08684   0.08865   0.09521
  Beta virt. eigenvalues --    0.09786   0.10276   0.10881   0.11047   0.11128
  Beta virt. eigenvalues --    0.11819   0.12506   0.12690   0.13187   0.13361

 Mulliken charges and spin densities:
               1          2
     1  C   -0.461344  -0.051117
     2  C   -0.118561   0.159745
     3  N    0.005049   0.203921
     4  C   -0.034278  -0.013476
     5  N    0.094239   0.030856
     6  C   -0.153556  -0.058802
     7  N    0.124785   0.002321
     8  C   -0.539188   0.398738
     9  C    0.171933  -0.743013
    10  N   -0.026625   0.127194
    11  C   -0.192191  -0.292968
    12  C   -0.119951   0.068219
    13  N   -0.129749   0.015882
    14  C   -0.328268  -0.154576
    15  C    0.126378  -0.399407
    16  C   -0.410564  -0.088904
    17  H    0.080730   0.070797
    18  H    0.149510  -0.002311
    19  H    0.111725   0.022076
    20  H    0.143154   0.007447
    21  H   -0.158386   0.332997
    22  H   -0.499350   0.669910
    23  H    0.145294   0.002645
    24  H   -0.082300   0.230318
    25  H    0.156050  -0.042452
    26  H    0.192086  -0.125957
    27  H   -0.034454   0.198157
    28  H    0.176519   0.038303
    29  H    0.235291  -0.066234
    30  H    0.006825   0.135957
    31  H   -0.001501   0.122150
    32  H   -0.045157   0.182489
    33  H    0.143332   0.017078
    34  H    0.130581  -0.001696
    35  H    0.141943   0.003713
 Sum of Mulliken charges =  -1.00000   1.00000

 Dipole moment (field-independent basis, Debye):
    X=              0.6143    Y=              1.6660    Z=              1.4183  Tot=              2.2725
 Quadrupole moment (field-independent basis, Debye-Ang):
   XX=           -141.1954   YY=           -128.7508   ZZ=           -123.6021
   XY=             -6.3914   XZ=             -3.0131   YZ=             -8.7415

 Summary of Natural Population Analysis:

                                       Natural Population
                Natural  -----------------------------------------------
    Atom  No    Charge         Core      Valence    Rydberg      Total
 -----------------------------------------------------------------------
      C    1   -0.30367      0.99963     2.29869    0.00535     3.30367
      C    2    0.25126      0.99963     1.73289    0.01621     2.74874
      N    3   -0.24469      0.99964     2.73482    0.01023     3.74469
      C    4    0.23902      0.99963     1.74486    0.01648     2.76098
      N    5   -0.28274      0.99965     2.77369    0.00940     3.78274
      C    6    0.31488      0.99960     1.66780    0.01773     2.68512
      N    7   -0.29396      0.99966     2.78544    0.00886     3.79396
      C    8   -0.22415      0.99959     2.21466    0.00990     3.22415
      C    9   -0.06729      0.99960     2.05530    0.01239     3.06729
      N   10   -0.28864      0.99972     2.77362    0.01531     3.78864
      C   11   -0.08725      0.99961     2.07680    0.01084     3.08725
      C   12   -0.10051      0.99962     2.08969    0.01121     3.10051
      N   13   -0.33563      0.99977     2.82339    0.01247     3.83563
      C   14   -0.10612      0.99962     2.09564    0.01086     3.10612
      C   15   -0.08973      0.99961     2.07862    0.01150     3.08973
      C   16   -0.30413      0.99963     2.29963    0.00487     3.30413
      H   17    0.10501      0.00000     0.39363    0.00136     0.39499
      H   18    0.10364      0.00000     0.39546    0.00090     0.39636
      H   19    0.10313      0.00000     0.39596    0.00092     0.39687
      H   20    0.09962      0.00000     0.39907    0.00132     0.40038
      H   21    0.10916      0.00000     0.38883    0.00200     0.39084
      H   22    0.08788      0.00000     0.41046    0.00166     0.41212
      H   23    0.09910      0.00000     0.39958    0.00133     0.40090
      H   24    0.07917      0.00000     0.41921    0.00162     0.42083
      H   25    0.10181      0.00000     0.39714    0.00105     0.39819
      H   26    0.09937      0.00000     0.39822    0.00241     0.40063
      H   27    0.08799      0.00000     0.41096    0.00105     0.41201
      H   28    0.16163      0.00000     0.33548    0.00289     0.33837
      H   29    0.10718      0.00000     0.39099    0.00182     0.39282
      H   30    0.08612      0.00000     0.41299    0.00089     0.41388
      H   31    0.09654      0.00000     0.40230    0.00116     0.40346
      H   32    0.08176      0.00000     0.41646    0.00178     0.41824
      H   33    0.10862      0.00000     0.39026    0.00112     0.39138
      H   34    0.10258      0.00000     0.39667    0.00076     0.39742
      H   35    0.10306      0.00000     0.39614    0.00080     0.39694
 =======================================================================
   * Total *    0.00000     15.99420    43.79534    0.21046    60.00000

 Normal termination of Gaussian 16 at Fri Dec 11 00:54:03 2020.
