 Gaussian 16, Revision A.03,

 -----------------------------------------------------------
 # opt freq B3LYP/6-31G(d) empiricaldispersion=gd3bj scf=xqc
 -----------------------------------------------------------

 -------------------------------
 CID_151767349_JID_1382_neutraal
 -------------------------------
 Symbolic Z-matrix:
 Charge =  0 Multiplicity = 1

 SCF Done:  E(RB3LYP) =  -871.520046339     A.U. after   18 cycles
 SCF Done:  E(RB3LYP) =  -871.557499390     A.U. after   16 cycles
 SCF Done:  E(RB3LYP) =  -871.565326541     A.U. after   15 cycles
 SCF Done:  E(RB3LYP) =  -871.566122141     A.U. after   16 cycles
 SCF Done:  E(RB3LYP) =  -871.567637680     A.U. after   16 cycles
 SCF Done:  E(RB3LYP) =  -871.568474124     A.U. after   14 cycles
 SCF Done:  E(RB3LYP) =  -871.568987022     A.U. after   15 cycles
 SCF Done:  E(RB3LYP) =  -871.569123427     A.U. after   14 cycles
 SCF Done:  E(RB3LYP) =  -871.569208164     A.U. after   13 cycles
 SCF Done:  E(RB3LYP) =  -871.569350277     A.U. after   15 cycles
 SCF Done:  E(RB3LYP) =  -871.570767263     A.U. after   12 cycles
 SCF Done:  E(RB3LYP) =  -871.570763324     A.U. after   11 cycles
 SCF Done:  E(RB3LYP) =  -871.570770600     A.U. after   13 cycles
 SCF Done:  E(RB3LYP) =  -871.570769472     A.U. after   11 cycles
 SCF Done:  E(RB3LYP) =  -871.570770702     A.U. after   11 cycles
 Optimization completed.
    -- Stationary point found.
 Normal termination of Gaussian 16 at Tue Dec  8 20:05:08 2020.

 --------------------------------------------------------------------
 #N Geom=AllCheck Guess=TCheck SCRF=Check GenChk RB3LYP/6-31G(d) Freq
 --------------------------------------------------------------------

 Structure from the checkpoint file:  "JID_1382.chk"
 -------------------------------
 CID_151767349_JID_1382_neutraal
 -------------------------------
 Charge =  0 Multiplicity = 1

 SCF Done:  E(RB3LYP) =  -871.570770702     A.U. after    1 cycles

  Exact polarizability: 132.675  11.599 103.077   3.613   2.749  76.100
 Approx polarizability: 218.702  50.208 187.533  19.097  10.841 127.672

                      1                      2                      3
                      A                      A                      A
 Frequencies --     18.6700                39.1910                59.3604
 Red. masses --      3.7519                 7.4862                 5.8424
 Frc consts  --      0.0008                 0.0068                 0.0121
 IR Inten    --      0.2059                 0.2129                 0.8627

                      4                      5                      6
                      A                      A                      A
 Frequencies --     69.4360               130.2333               167.7252
 Red. masses --      9.0196                 3.9690                 4.1164
 Frc consts  --      0.0256                 0.0397                 0.0682
 IR Inten    --      1.5098                 0.0186                 0.9139

                      7                      8                      9
                      A                      A                      A
 Frequencies --    189.8050               225.5864               273.1369
 Red. masses --      8.5769                 1.0131                 6.0299
 Frc consts  --      0.1821                 0.0304                 0.2650
 IR Inten    --      1.0155                 0.0024                 1.2722

                     10                     11                     12
                      A                      A                      A
 Frequencies --    278.8360               282.1358               317.0377
 Red. masses --      1.0795                 1.0584                 5.3233
 Frc consts  --      0.0494                 0.0496                 0.3153
 IR Inten    --      0.0133                 0.0477                10.6605

                     13                     14                     15
                      A                      A                      A
 Frequencies --    351.7690               356.0803               375.3000
 Red. masses --      2.6281                 2.3755                 7.8341
 Frc consts  --      0.1916                 0.1775                 0.6501
 IR Inten    --      0.6342                 0.3006                21.9258

                     16                     17                     18
                      A                      A                      A
 Frequencies --    438.7838               483.5965               555.3987
 Red. masses --     13.3360                 5.5052                 4.7764
 Frc consts  --      1.5128                 0.7586                 0.8681
 IR Inten    --     85.8354                43.2880                26.0289

                     19                     20                     21
                      A                      A                      A
 Frequencies --    559.5848               573.6146               591.3435
 Red. masses --      5.3846                 5.9566                13.5252
 Frc consts  --      0.9934                 1.1548                 2.7866
 IR Inten    --      2.9921                33.9760                12.1776

                     22                     23                     24
                      A                      A                      A
 Frequencies --    681.5364               773.6958               946.9233
 Red. masses --     13.5118                 4.2502                 1.8203
 Frc consts  --      3.6978                 1.4990                 0.9617
 IR Inten    --     10.5510                50.7676                 0.9595

                     25                     26                     27
                      A                      A                      A
 Frequencies --    949.4874               962.4749               987.1570
 Red. masses --      1.8151                 2.6302                 1.1960
 Frc consts  --      0.9641                 1.4355                 0.6867
 IR Inten    --      1.6969                11.9054                 0.0067

                     28                     29                     30
                      A                      A                      A
 Frequencies --   1063.0982              1064.4327              1150.5114
 Red. masses --      1.3929                 1.3896                19.0435
 Frc consts  --      0.9275                 0.9276                14.8518
 IR Inten    --      0.0118                 0.0951               157.1306

                     31                     32                     33
                      A                      A                      A
 Frequencies --   1237.2097              1239.6052              1270.1255
 Red. masses --      2.5626                 2.5696                12.3113
 Frc consts  --      2.3111                 2.3264                11.7016
 IR Inten    --      2.7107                 2.2891                91.3447

                     34                     35                     36
                      A                      A                      A
 Frequencies --   1293.7718              1425.0586              1425.4711
 Red. masses --      2.8453                 1.2025                 1.2016
 Frc consts  --      2.8061                 1.4388                 1.4386
 IR Inten    --     60.9881                 4.2702                 4.3559

                     37                     38                     39
                      A                      A                      A
 Frequencies --   1457.0308              1506.1138              1517.2070
 Red. masses --      1.2081                 1.0473                 1.0451
 Frc consts  --      1.5111                 1.3997                 1.4174
 IR Inten    --      0.4018                 0.0254                 0.2459

                     40                     41                     42
                      A                      A                      A
 Frequencies --   1518.0151              1529.3697              1529.9486
 Red. masses --      1.0448                 1.0489                 1.0489
 Frc consts  --      1.4186                 1.4455                 1.4465
 IR Inten    --      0.0809                 9.7934                 7.3879

                     43                     44                     45
                      A                      A                      A
 Frequencies --   1549.3449              2210.0059              2280.8681
 Red. masses --      1.0612                13.9274                11.9949
 Frc consts  --      1.5009                40.0780                36.7661
 IR Inten    --      5.7990               318.1289               234.9962

                     46                     47                     48
                      A                      A                      A
 Frequencies --   3056.2869              3056.7296              3062.2569
 Red. masses --      1.0340                 1.0340                 1.0350
 Frc consts  --      5.6903                 5.6925                 5.7184
 IR Inten    --     16.2580                17.1621                24.7373

                     49                     50                     51
                      A                      A                      A
 Frequencies --   3129.2311              3130.2311              3135.1678
 Red. masses --      1.1033                 1.1031                 1.1024
 Frc consts  --      6.3654                 6.3681                 6.3842
 IR Inten    --      2.2004                 4.9924                47.6221

                     52                     53                     54
                      A                      A                      A
 Frequencies --   3137.9743              3141.0814              3143.5348
 Red. masses --      1.1042                 1.1040                 1.1036
 Frc consts  --      6.4061                 6.4174                 6.4255
 IR Inten    --      9.6108                21.7153                25.3197

 - Thermochemistry -
 -------------------
 Temperature   298.150 Kelvin.  Pressure   1.00000 Atm.
 Atom     1 has atomic number  6 and mass  12.00000

 Molecular mass:   171.04663 amu.
 Principal axes and moments of inertia in atomic units:
                           1         2         3
     Eigenvalues --  1174.094963105.388503671.94164
           X            0.99999  -0.00473   0.00048
           Y            0.00473   0.99999  -0.00200
           Z           -0.00047   0.00200   1.00000
 This molecule is an asymmetric top.
 Rotational symmetry number  1.
 Warning -- assumption of classical behavior for rotation
           may cause significant error
 Rotational temperatures (Kelvin)      0.07377     0.02789     0.02359
 Rotational constants (GHZ):           1.53713     0.58116     0.49150
 Zero-point vibrational energy     394155.1 (Joules/Mol)
                                   94.20532 (Kcal/Mol)
 Warning -- explicit consideration of  21 degrees of freedom as
           vibrations may cause significant error
 Vibrational temperatures:     26.86    56.39    85.41    99.90   187.38
          (Kelvin)            241.32   273.09   324.57   392.98   401.18
                              405.93   456.15   506.12   512.32   539.97
                              631.31   695.79   799.09   805.12   825.30
                              850.81   980.58  1113.18  1362.41  1366.10
                             1384.79  1420.30  1529.56  1531.48  1655.33
                             1780.07  1783.52  1827.43  1861.45  2050.34
                             2050.94  2096.34  2166.96  2182.92  2184.09
                             2200.42  2201.25  2229.16  3179.71  3281.66
                             4397.32  4397.95  4405.90  4502.27  4503.70
                             4510.81  4514.85  4519.32  4522.85

 Zero-point correction=                           0.150126 (Hartree/Particle)
 Thermal correction to Energy=                    0.163286
 Thermal correction to Enthalpy=                  0.164230
 Thermal correction to Gibbs Free Energy=         0.108708
 Sum of electronic and zero-point Energies=           -871.420645
 Sum of electronic and thermal Energies=              -871.407485
 Sum of electronic and thermal Enthalpies=            -871.406541
 Sum of electronic and thermal Free Energies=         -871.462063

                     E (Thermal)             CV                S
                      KCal/Mol        Cal/Mol-Kelvin    Cal/Mol-Kelvin
 Total                  102.463             45.321            116.856
 Electronic               0.000              0.000              0.000
 Translational            0.889              2.981             41.318
 Rotational               0.889              2.981             30.971
 Vibrational            100.686             39.360             44.566
 Vibration     1          0.593              1.986              6.771
 Vibration     2          0.594              1.981              5.300
 Vibration     3          0.597              1.974              4.478
 Vibration     4          0.598              1.969              4.169
 Vibration     5          0.612              1.923              2.943
 Vibration     6          0.624              1.882              2.461
 Vibration     7          0.633              1.854              2.230
 Vibration     8          0.650              1.802              1.914
 Vibration     9          0.676              1.723              1.576
 Vibration    10          0.679              1.713              1.541
 Vibration    11          0.681              1.707              1.521
 Vibration    12          0.704              1.641              1.325
 Vibration    13          0.728              1.572              1.158
 Vibration    14          0.732              1.563              1.139
 Vibration    15          0.746              1.523              1.058
 Vibration    16          0.799              1.386              0.830
 Vibration    17          0.840              1.286              0.700
 Vibration    18          0.911              1.128              0.533
 Vibration    19          0.915              1.119              0.525
 Vibration    20          0.930              1.088              0.497
 Vibration    21          0.949              1.050              0.465

 Optimization completed.
    -- Stationary point found.
 Normal termination of Gaussian 16 at Tue Dec  8 20:08:49 2020.

 ----------------------------------------------------------------------
 # B3LYP/6-311++G(d,p) empiricaldispersion=gd3bj scf=xqc pop=npa geom=c
 heck
 ----------------------------------------------------------------------

 ---------------------------------------
 CID_151767349_JID_1382_Energie_neutraal
 ---------------------------------------
 Structure from the checkpoint file:  "JID_1382.chk"
 Charge =  0 Multiplicity = 1

 SCF Done:  E(RB3LYP) =  -871.732116508     A.U. after   17 cycles
 Normal termination of Gaussian 16 at Tue Dec  8 20:10:49 2020.

 ----------------------------------------------------------------------
 # B3LYP/6-311++G(d,p) empiricaldispersion=gd3bj scf=xqc pop=npa geom=c
 heck
 ----------------------------------------------------------------------

 -------------------------------------
 CID_151767349_JID_1382_Energie_kation
 -------------------------------------
 Structure from the checkpoint file:  "JID_1382.chk"
 Charge =  1 Multiplicity = 2

 SCF Done:  E(UB3LYP) =  -871.373653419     A.U. after   33 cycles
 SCF Done:  E(UB3LYP) =  -871.373653441     a.u. after    2 cycles
 Normal termination of Gaussian 16 at Tue Dec  8 20:21:20 2020.
 Gaussian 16:  ES64L-G16RevA.03 25-Dec-2016

 ----------------------------------------------------------------------
 # B3LYP/6-311++G(d,p) empiricaldispersion=gd3bj scf=xqc pop=npa geom=c
 heck
 ----------------------------------------------------------------------

 ------------------------------------
 CID_151767349_JID_1382_Energie_anion
 ------------------------------------
 Structure from the checkpoint file:  "JID_1382.chk"
 Charge = -1 Multiplicity = 2

                         Standard orientation:
 ---------------------------------------------------------------------
 Center     Atomic      Atomic             Coordinates (Angstroms)
 Number     Number       Type             X           Y           Z
 ---------------------------------------------------------------------
      1          6           0        3.055099   -1.382340   -0.333572
      2          6           0        2.207203   -0.134211   -0.003892
      3          6           0        2.448618    0.306384    1.457759
      4          6           0        2.558159    1.022021   -0.967625
      5          6           0        0.787168   -0.458150   -0.162202
      6          6           0       -0.388631   -0.725968   -0.309444
      7         16           0       -2.103490   -0.923363   -0.365365
      8          8           0       -2.554389   -1.374299    0.977942
      9          7           0       -2.466788    0.897020   -0.591693
     10          7           0       -1.661343    1.626649   -0.003462
     11          7           0       -0.904243    2.318260    0.500235
     12          1           0        4.116897   -1.141289   -0.214435
     13          1           0        2.887775   -1.710186   -1.364151
     14          1           0        2.810499   -2.211468    0.337256
     15          1           0        3.505201    0.563883    1.589595
     16          1           0        1.841473    1.182359    1.704403
     17          1           0        2.196685   -0.497071    2.156487
     18          1           0        2.387290    0.731225   -2.008789
     19          1           0        1.951075    1.905684   -0.749941
     20          1           0        3.614973    1.285144   -0.849830
 ---------------------------------------------------------------------

 SCF Done:  E(UB3LYP) =  -871.759571915     A.U. after   28 cycles

 The electronic state is 2-A.
 Alpha  occ. eigenvalues --  -88.78962 -18.93173 -14.27562 -14.17772 -14.17648
 Alpha  occ. eigenvalues --  -10.10176 -10.06700 -10.06184 -10.06032 -10.03768
 Alpha  occ. eigenvalues --  -10.03408  -7.86625  -5.82893  -5.82856  -5.82219
 Alpha  occ. eigenvalues --   -0.94960  -0.87284  -0.78239  -0.72826  -0.62795
 Alpha  occ. eigenvalues --   -0.59242  -0.58834  -0.55772  -0.48350  -0.39912
 Alpha  occ. eigenvalues --   -0.37491  -0.34392  -0.34346  -0.33560  -0.32236
 Alpha  occ. eigenvalues --   -0.29944  -0.29855  -0.29526  -0.27286  -0.27017
 Alpha  occ. eigenvalues --   -0.25974  -0.24813  -0.24346  -0.24056  -0.19566
 Alpha  occ. eigenvalues --   -0.14759  -0.13973  -0.12665  -0.09654  -0.09080
 Alpha  occ. eigenvalues --    0.04242
 Alpha virt. eigenvalues --    0.07050   0.09529   0.09785   0.10614   0.12105
 Alpha virt. eigenvalues --    0.12793   0.13148   0.13448   0.13807   0.14505
 Alpha virt. eigenvalues --    0.15310   0.15618   0.16520   0.17594   0.17840

  Beta  occ. eigenvalues --  -88.78704 -18.92876 -14.27289 -14.17478 -14.17069
  Beta  occ. eigenvalues --  -10.10193 -10.06669 -10.06177 -10.06025 -10.03618
  Beta  occ. eigenvalues --  -10.03402  -7.86369  -5.82725  -5.82293  -5.81931
  Beta  occ. eigenvalues --   -0.94132  -0.86626  -0.77462  -0.72720  -0.62378
  Beta  occ. eigenvalues --   -0.59195  -0.58818  -0.54744  -0.48172  -0.39025
  Beta  occ. eigenvalues --   -0.37193  -0.34334  -0.34211  -0.32143  -0.31853
  Beta  occ. eigenvalues --   -0.29830  -0.29507  -0.29125  -0.27006  -0.25963
  Beta  occ. eigenvalues --   -0.25822  -0.24487  -0.24216  -0.23409  -0.18341
  Beta  occ. eigenvalues --   -0.13931  -0.13778  -0.11679  -0.08547  -0.08482
  Beta virt. eigenvalues --    0.06999   0.09429   0.09689   0.10562   0.11506
  Beta virt. eigenvalues --    0.12100   0.12995   0.13113   0.13695   0.13863
  Beta virt. eigenvalues --    0.14631   0.15563   0.16233   0.16674   0.17642

 Mulliken charges and spin densities:
               1          2
     1  C   -0.538604  -0.047043
     2  C    0.706125   0.035973
     3  C   -0.696750  -0.032290
     4  C   -0.739036   0.014772
     5  C    0.200870   0.121890
     6  C   -0.297140  -0.079552
     7  S    0.107574   0.386792
     8  O   -0.436669   0.066323
     9  N   -0.564336   0.030302
    10  N    0.427227   0.049006
    11  N   -0.404971   0.390858
    12  H    0.094377   0.034906
    13  H    0.134190   0.002097
    14  H    0.130625   0.012321
    15  H    0.117959   0.004015
    16  H    0.176764   0.010956
    17  H    0.143536   0.002120
    18  H    0.143592   0.000219
    19  H    0.172314  -0.002311
    20  H    0.122354  -0.001354
 Sum of Mulliken charges =  -1.00000   1.00000

 Dipole moment (field-independent basis, Debye):
    X=              8.2399    Y=             -0.5850    Z=             -1.6048  Tot=              8.4151
 Quadrupole moment (field-independent basis, Debye-Ang):
   XX=           -103.1476   YY=            -95.0540   ZZ=            -83.0819
   XY=             -1.5998   XZ=              3.6031   YZ=              0.8919

 Summary of Natural Population Analysis:

                                       Natural Population
                Natural  -----------------------------------------------
    Atom  No    Charge         Core      Valence    Rydberg      Total
 -----------------------------------------------------------------------
      C    1   -0.27072      0.99964     2.26600    0.00507     3.27072
      C    2   -0.08107      0.99955     2.07427    0.00725     3.08107
      C    3   -0.27459      0.99964     2.26971    0.00524     3.27459
      C    4   -0.27430      0.99964     2.26950    0.00516     3.27430
      C    5    0.04976      0.99924     1.93695    0.01406     2.95024
      C    6   -0.17137      0.99904     2.16214    0.01019     3.17137
      S    7    0.72020      4.99928     2.21232    0.06821     7.27980
      O    8   -0.43953      0.99992     3.43183    0.00778     4.43953
      N    9   -0.28969      0.99975     2.77264    0.01731     3.78969
      N   10    0.11725      0.99971     2.36583    0.01721     3.38275
      N   11    0.01776      0.99981     2.46922    0.01321     3.48224
      H   12    0.09151      0.00000     0.40764    0.00085     0.40849
      H   13    0.10011      0.00000     0.39916    0.00073     0.39989
      H   14    0.10140      0.00000     0.39787    0.00073     0.39860
      H   15    0.08933      0.00000     0.40985    0.00082     0.41067
      H   16    0.11227      0.00000     0.38699    0.00073     0.38773
      H   17    0.10106      0.00000     0.39824    0.00070     0.39894
      H   18    0.09919      0.00000     0.40010    0.00071     0.40081
      H   19    0.11168      0.00000     0.38746    0.00086     0.38832
      H   20    0.08975      0.00000     0.40942    0.00083     0.41025
 =======================================================================
   * Total *    0.00000     14.99524    29.82713    0.17763    45.00000

 Normal termination of Gaussian 16 at Tue Dec  8 20:26:04 2020.
