 Gaussian 16, Revision A.03,

 -----------------------------------------------------------
 # opt freq B3LYP/6-31G(d) empiricaldispersion=gd3bj scf=xqc
 -----------------------------------------------------------

 -------------------------------
 CID_134891560_JID_3186_neutraal
 -------------------------------
 Symbolic Z-matrix:
 Charge =  0 Multiplicity = 1

 SCF Done:  E(RB3LYP) =  -914.443566909     A.U. after   15 cycles
 SCF Done:  E(RB3LYP) =  -914.449453086     A.U. after   12 cycles
 SCF Done:  E(RB3LYP) =  -914.450211601     A.U. after   12 cycles
 SCF Done:  E(RB3LYP) =  -914.450419399     A.U. after   12 cycles
 SCF Done:  E(RB3LYP) =  -914.450488918     A.U. after   11 cycles
 SCF Done:  E(RB3LYP) =  -914.450527141     A.U. after   10 cycles
 SCF Done:  E(RB3LYP) =  -914.450559509     A.U. after   10 cycles
 SCF Done:  E(RB3LYP) =  -914.450566582     A.U. after    9 cycles
 SCF Done:  E(RB3LYP) =  -914.450574064     A.U. after   10 cycles
 SCF Done:  E(RB3LYP) =  -914.450578590     A.U. after   10 cycles
 SCF Done:  E(RB3LYP) =  -914.450579217     A.U. after    8 cycles
 SCF Done:  E(RB3LYP) =  -914.450579294     A.U. after    7 cycles
 SCF Done:  E(RB3LYP) =  -914.450579312     A.U. after    6 cycles
 Optimization completed.
    -- Stationary point found.
 Normal termination of Gaussian 16 at Wed Dec  9 22:28:48 2020.

 --------------------------------------------------------------------
 #N Geom=AllCheck Guess=TCheck SCRF=Check GenChk RB3LYP/6-31G(d) Freq
 --------------------------------------------------------------------

 Structure from the checkpoint file:  "JID_3186.chk"
 -------------------------------
 CID_134891560_JID_3186_neutraal
 -------------------------------
 Charge =  0 Multiplicity = 1

 SCF Done:  E(RB3LYP) =  -914.450579312     A.U. after    1 cycles

  Exact polarizability: 181.649  18.710 173.378  -3.233   0.874  77.677
 Approx polarizability: 252.826  37.088 292.800  -3.773   6.777 117.599

                      1                      2                      3
                      A                      A                      A
 Frequencies --     51.3825                63.6430                76.0171
 Red. masses --      2.6992                 2.4343                 3.5011
 Frc consts  --      0.0042                 0.0058                 0.0119
 IR Inten    --      0.8639                 0.1367                 2.5458

                      4                      5                      6
                      A                      A                      A
 Frequencies --    118.4622               127.8756               135.0978
 Red. masses --      2.0575                 2.2939                 1.8216
 Frc consts  --      0.0170                 0.0221                 0.0196
 IR Inten    --      0.7933                 0.8907                 1.3690

                      7                      8                      9
                      A                      A                      A
 Frequencies --    136.8620               156.7163               176.5107
 Red. masses --      3.6379                 1.8787                 1.3440
 Frc consts  --      0.0401                 0.0272                 0.0247
 IR Inten    --      1.0423                 7.8931                 2.3789

                     10                     11                     12
                      A                      A                      A
 Frequencies --    208.4552               226.6302               232.2192
 Red. masses --      1.2634                 1.5052                 1.6538
 Frc consts  --      0.0323                 0.0455                 0.0525
 IR Inten    --      1.8121                 4.0793                 2.2221

                     13                     14                     15
                      A                      A                      A
 Frequencies --    274.8205               299.7000               334.2166
 Red. masses --      2.3578                 3.7084                 3.0721
 Frc consts  --      0.1049                 0.1963                 0.2022
 IR Inten    --      4.5226                 7.3521                 2.0113

                     16                     17                     18
                      A                      A                      A
 Frequencies --    358.5701               367.2965               390.3415
 Red. masses --      3.2291                 3.0023                 3.4705
 Frc consts  --      0.2446                 0.2386                 0.3116
 IR Inten    --      3.7960                 0.3144                 3.8810

                     19                     20                     21
                      A                      A                      A
 Frequencies --    434.0514               501.0565               559.0762
 Red. masses --      4.9706                 3.9390                 3.8470
 Frc consts  --      0.5517                 0.5827                 0.7085
 IR Inten    --      8.2468                 4.6493                 5.0599

                     22                     23                     24
                      A                      A                      A
 Frequencies --    565.5482               597.6646               680.5713
 Red. masses --      3.5807                 7.0615                 2.3366
 Frc consts  --      0.6748                 1.4861                 0.6376
 IR Inten    --      2.3589                 9.2291                 4.9010

                     25                     26                     27
                      A                      A                      A
 Frequencies --    694.1271               735.4067               750.1967
 Red. masses --      7.5196                 5.8950                 6.1563
 Frc consts  --      2.1346                 1.8784                 2.0414
 IR Inten    --      3.2859                 0.3459                 8.5298

                     28                     29                     30
                      A                      A                      A
 Frequencies --    869.1201               873.9958               955.2278
 Red. masses --      1.3765                 4.3117                 3.5442
 Frc consts  --      0.6126                 1.9405                 1.9054
 IR Inten    --     42.1401                 0.5395                35.5955

                     31                     32                     33
                      A                      A                      A
 Frequencies --   1005.2831              1029.4496              1083.0442
 Red. masses --      1.8972                 1.1130                 1.6574
 Frc consts  --      1.1297                 0.6949                 1.1454
 IR Inten    --     27.2579                16.5010                13.5283

                     34                     35                     36
                      A                      A                      A
 Frequencies --   1092.2279              1096.8268              1133.1932
 Red. masses --      1.8380                 1.5522                 1.2326
 Frc consts  --      1.2919                 1.1002                 0.9326
 IR Inten    --     16.1379                55.3909                 6.6604

                     37                     38                     39
                      A                      A                      A
 Frequencies --   1136.3992              1170.1199              1180.4463
 Red. masses --      1.2317                 1.9212                 1.5726
 Frc consts  --      0.9372                 1.5498                 1.2911
 IR Inten    --      6.3595               133.6402                 6.0245

                     40                     41                     42
                      A                      A                      A
 Frequencies --   1185.7125              1227.9637              1257.7829
 Red. masses --      1.4293                 3.4390                 3.5875
 Frc consts  --      1.1840                 3.0553                 3.3439
 IR Inten    --     31.1465                20.4900                11.4488

                     43                     44                     45
                      A                      A                      A
 Frequencies --   1273.9210              1311.2675              1327.5984
 Red. masses --      2.8515                 3.5237                 1.4156
 Frc consts  --      2.7266                 3.5697                 1.4700
 IR Inten    --     22.1882                43.9726                24.6412

                     46                     47                     48
                      A                      A                      A
 Frequencies --   1386.6774              1405.6774              1463.8396
 Red. masses --      4.3360                 3.9394                 1.1636
 Frc consts  --      4.9123                 4.5862                 1.4691
 IR Inten    --     31.9816               219.0509                20.8312

                     49                     50                     51
                      A                      A                      A
 Frequencies --   1467.1737              1471.3967              1483.6468
 Red. masses --      1.1770                 1.3471                 1.3097
 Frc consts  --      1.4928                 1.7184                 1.6986
 IR Inten    --     12.8290                39.0426                81.9162

                     52                     53                     54
                      A                      A                      A
 Frequencies --   1499.3314              1509.5046              1512.4176
 Red. masses --      1.2504                 1.0499                 1.0622
 Frc consts  --      1.6562                 1.4096                 1.4316
 IR Inten    --     17.1312                10.7807                22.9432

                     55                     56                     57
                      A                      A                      A
 Frequencies --   1521.3526              1524.2491              1527.2844
 Red. masses --      1.0785                 1.0632                 1.0518
 Frc consts  --      1.4707                 1.4554                 1.4455
 IR Inten    --     62.7523                18.6389                10.2221

                     58                     59                     60
                      A                      A                      A
 Frequencies --   1527.7524              1537.2241              1544.9231
 Red. masses --      1.0524                 1.1121                 1.1497
 Frc consts  --      1.4473                 1.5483                 1.6168
 IR Inten    --      4.9450                 2.0447                10.1427

                     61                     62                     63
                      A                      A                      A
 Frequencies --   1587.6389              1617.2870              1694.9221
 Red. masses --      4.1321                 3.7673                 4.3705
 Frc consts  --      6.1366                 5.8057                 7.3974
 IR Inten    --    185.0807               462.4999               104.3232

                     64                     65                     66
                      A                      A                      A
 Frequencies --   2977.8327              3003.2576              3009.2994
 Red. masses --      1.0580                 1.0530                 1.0507
 Frc consts  --      5.5276                 5.5958                 5.6060
 IR Inten    --     83.3699                87.5759                41.9711

                     67                     68                     69
                      A                      A                      A
 Frequencies --   3019.3699              3088.3595              3090.0862
 Red. masses --      1.0535                 1.0839                 1.0828
 Frc consts  --      5.6587                 6.0908                 6.0914
 IR Inten    --    111.0448                 7.2374                80.6961

                     70                     71                     72
                      A                      A                      A
 Frequencies --   3098.5615              3109.7617              3143.2981
 Red. masses --      1.0848                 1.0870                 1.1025
 Frc consts  --      6.1367                 6.1934                 6.4177
 IR Inten    --     18.0916                34.9851                21.8246

                     73                     74                     75
                      A                      A                      A
 Frequencies --   3155.5965              3160.1387              3165.8804
 Red. masses --      1.0998                 1.0797                 1.0705
 Frc consts  --      6.4524                 6.3527                 6.3215
 IR Inten    --     18.7455                15.0596                 0.2279

                     76                     77                     78
                      A                      A                      A
 Frequencies --   3168.7195              3185.8209              3248.7355
 Red. masses --      1.0957                 1.0994                 1.1151
 Frc consts  --      6.4818                 6.5742                 6.9339
 IR Inten    --      8.7156                 2.8329                19.6095

 - Thermochemistry -
 -------------------
 Temperature   298.150 Kelvin.  Pressure   1.00000 Atm.
 Atom     1 has atomic number  6 and mass  12.00000

 Molecular mass:   197.09867 amu.
 Principal axes and moments of inertia in atomic units:
                           1         2         3
     Eigenvalues --  1919.696823217.598434898.54623
           X            0.99999  -0.00305   0.00092
           Y            0.00305   1.00000  -0.00002
           Z           -0.00092   0.00002   1.00000
 This molecule is an asymmetric top.
 Rotational symmetry number  1.
 Warning -- assumption of classical behavior for rotation
           may cause significant error
 Rotational temperatures (Kelvin)      0.04512     0.02692     0.01768
 Rotational constants (GHZ):           0.94012     0.56090     0.36842
 Zero-point vibrational energy     618284.6 (Joules/Mol)
                                  147.77357 (Kcal/Mol)
 Warning -- explicit consideration of  23 degrees of freedom as
           vibrations may cause significant error
 Vibrational temperatures:     73.93    91.57   109.37   170.44   183.98
          (Kelvin)            194.38   196.91   225.48   253.96   299.92
                              326.07   334.11   395.41   431.20   480.86
                              515.90   528.46   561.61   624.50   720.91
                              804.39   813.70   859.91   979.19   998.69
                             1058.09  1079.37  1250.47  1257.49  1374.36
                             1446.38  1481.15  1558.26  1571.47  1578.09
                             1630.41  1635.02  1683.54  1698.40  1705.98
                             1766.77  1809.67  1832.89  1886.62  1910.12
                             1995.12  2022.46  2106.14  2110.94  2117.01
                             2134.64  2157.20  2171.84  2176.03  2188.89
                             2193.05  2197.42  2198.09  2211.72  2222.80
                             2284.26  2326.92  2438.61  4284.44  4321.02
                             4329.71  4344.20  4443.46  4445.94  4458.14
                             4474.25  4522.50  4540.20  4546.73  4555.00
                             4559.08  4583.69  4674.21

 Zero-point correction=                           0.235492 (Hartree/Particle)
 Thermal correction to Energy=                    0.250550
 Thermal correction to Enthalpy=                  0.251495
 Thermal correction to Gibbs Free Energy=         0.193429
 Sum of electronic and zero-point Energies=           -914.215087
 Sum of electronic and thermal Energies=              -914.200029
 Sum of electronic and thermal Enthalpies=            -914.199085
 Sum of electronic and thermal Free Energies=         -914.257150

                     E (Thermal)             CV                S
                      KCal/Mol        Cal/Mol-Kelvin    Cal/Mol-Kelvin
 Total                  157.223             53.818            122.210
 Electronic               0.000              0.000              0.000
 Translational            0.889              2.981             41.741
 Rotational               0.889              2.981             31.782
 Vibrational            155.445             47.856             48.687
 Vibration     1          0.596              1.977              4.763
 Vibration     2          0.597              1.972              4.341
 Vibration     3          0.599              1.965              3.991
 Vibration     4          0.609              1.934              3.125
 Vibration     5          0.611              1.925              2.978
 Vibration     6          0.613              1.918              2.872
 Vibration     7          0.614              1.917              2.847
 Vibration     8          0.620              1.895              2.589
 Vibration     9          0.628              1.871              2.365
 Vibration    10          0.642              1.828              2.057
 Vibration    11          0.650              1.800              1.905
 Vibration    12          0.653              1.792              1.862
 Vibration    13          0.677              1.720              1.566
 Vibration    14          0.692              1.674              1.419
 Vibration    15          0.716              1.607              1.240
 Vibration    16          0.733              1.558              1.128
 Vibration    17          0.740              1.540              1.091
 Vibration    18          0.758              1.491              0.999
 Vibration    19          0.795              1.396              0.846
 Vibration    20          0.856              1.248              0.655
 Vibration    21          0.915              1.120              0.526
 Vibration    22          0.921              1.106              0.513
 Vibration    23          0.956              1.037              0.454

 Optimization completed.
    -- Stationary point found.
 Normal termination of Gaussian 16 at Wed Dec  9 22:36:15 2020.

 ----------------------------------------------------------------------
 # B3LYP/6-311++G(d,p) empiricaldispersion=gd3bj scf=xqc pop=npa geom=c
 heck
 ----------------------------------------------------------------------

 ---------------------------------------
 CID_134891560_JID_3186_Energie_neutraal
 ---------------------------------------
 Structure from the checkpoint file:  "JID_3186.chk"
 Charge =  0 Multiplicity = 1

 SCF Done:  E(RB3LYP) =  -914.617620537     A.U. after   16 cycles
 Normal termination of Gaussian 16 at Wed Dec  9 22:40:16 2020.

 ----------------------------------------------------------------------
 # B3LYP/6-311++G(d,p) empiricaldispersion=gd3bj scf=xqc pop=npa geom=c
 heck
 ----------------------------------------------------------------------

 -------------------------------------
 CID_134891560_JID_3186_Energie_kation
 -------------------------------------
 Structure from the checkpoint file:  "JID_3186.chk"
 Charge =  1 Multiplicity = 2

 SCF Done:  E(UB3LYP) =  -914.376372850     A.U. after   21 cycles
 Normal termination of Gaussian 16 at Wed Dec  9 22:47:30 2020.
 Gaussian 16:  ES64L-G16RevA.03 25-Dec-2016

 ----------------------------------------------------------------------
 # B3LYP/6-311++G(d,p) empiricaldispersion=gd3bj scf=xqc pop=npa geom=c
 heck
 ----------------------------------------------------------------------

 ------------------------------------
 CID_134891560_JID_3186_Energie_anion
 ------------------------------------
 Structure from the checkpoint file:  "JID_3186.chk"
 Charge = -1 Multiplicity = 2

                         Standard orientation:
 ---------------------------------------------------------------------
 Center     Atomic      Atomic             Coordinates (Angstroms)
 Number     Number       Type             X           Y           Z
 ---------------------------------------------------------------------
      1          6           0        1.672349   -2.720588   -0.641860
      2          7           0        1.960974   -1.373789   -0.164630
      3          6           0        2.807662   -1.376867    1.029270
      4          6           0        0.865461   -0.499498   -0.133797
      5          6           0        0.987799    0.877730   -0.114406
      6         16           0       -0.626251    1.589290   -0.006870
      7          6           0       -1.303714   -0.046292   -0.089135
      8          7           0       -0.415243   -1.007947   -0.124432
      9          7           0       -2.653129   -0.254963   -0.107962
     10          6           0       -3.554851    0.843057    0.186043
     11          6           0       -3.132661   -1.606273    0.151994
     12          6           0        2.191104    1.658662   -0.249794
     13          6           0        2.328992    2.983947   -0.075724
     14          1           0        2.621608   -3.227298   -0.846870
     15          1           0        1.093011   -2.668841   -1.565446
     16          1           0        1.102899   -3.318884    0.087224
     17          1           0        2.997656   -0.355025    1.358844
     18          1           0        2.345243   -1.933454    1.863167
     19          1           0        3.766452   -1.849939    0.790467
     20          1           0       -4.569371    0.549317   -0.094356
     21          1           0       -3.549776    1.121110    1.251554
     22          1           0       -3.282865    1.723149   -0.404968
     23          1           0       -2.438952   -2.318032   -0.293921
     24          1           0       -3.203482   -1.815708    1.230059
     25          1           0       -4.122491   -1.723686   -0.298440
     26          1           0        3.056802    1.069758   -0.550635
     27          1           0        3.281172    3.475072   -0.246291
     28          1           0        1.501047    3.617455    0.233147
 ---------------------------------------------------------------------

 SCF Done:  E(UB3LYP) =  -914.605970587     A.U. after   33 cycles
 SCF Done:  E(UB3LYP) =  -914.605970587     a.u. after    1 cycles

 The electronic state is 2-A.
 Alpha  occ. eigenvalues --  -88.75263 -14.23317 -14.21831 -14.18083 -10.14316
 Alpha  occ. eigenvalues --  -10.11161 -10.09856 -10.09178 -10.09157 -10.08405
 Alpha  occ. eigenvalues --  -10.06970 -10.06234 -10.04028  -7.83904  -5.80221
 Alpha  occ. eigenvalues --   -5.79870  -5.79423  -0.87757  -0.84319  -0.79460
 Alpha  occ. eigenvalues --   -0.69772  -0.64595  -0.62485  -0.61562  -0.60882
 Alpha  occ. eigenvalues --   -0.57110  -0.53099  -0.47957  -0.43515  -0.43184
 Alpha  occ. eigenvalues --   -0.40166  -0.38340  -0.36821  -0.36047  -0.35467
 Alpha  occ. eigenvalues --   -0.34431  -0.31927  -0.31015  -0.30016  -0.29806
 Alpha  occ. eigenvalues --   -0.29371  -0.29064  -0.28525  -0.27667  -0.27586
 Alpha  occ. eigenvalues --   -0.25407  -0.23186  -0.20872  -0.17531  -0.16216
 Alpha  occ. eigenvalues --   -0.14548  -0.12683  -0.07136   0.04777
 Alpha virt. eigenvalues --    0.06634   0.07057   0.08166   0.08842   0.09112
 Alpha virt. eigenvalues --    0.09541   0.10442   0.10996   0.11358   0.11812
 Alpha virt. eigenvalues --    0.12126   0.12633   0.13128   0.13330   0.13818

  Beta  occ. eigenvalues --  -88.75252 -14.23292 -14.21821 -14.18135 -10.14135
  Beta  occ. eigenvalues --  -10.11040 -10.09846 -10.09148 -10.09124 -10.08352
  Beta  occ. eigenvalues --  -10.06956 -10.06177 -10.03915  -7.83894  -5.80218
  Beta  occ. eigenvalues --   -5.79865  -5.79387  -0.87629  -0.84232  -0.79419
  Beta  occ. eigenvalues --   -0.69666  -0.64454  -0.62310  -0.61519  -0.60798
  Beta  occ. eigenvalues --   -0.57015  -0.52966  -0.47765  -0.43381  -0.43082
  Beta  occ. eigenvalues --   -0.40090  -0.38279  -0.36668  -0.35927  -0.35385
  Beta  occ. eigenvalues --   -0.34375  -0.31838  -0.30952  -0.29978  -0.29747
  Beta  occ. eigenvalues --   -0.29294  -0.28959  -0.28271  -0.27605  -0.27552
  Beta  occ. eigenvalues --   -0.25305  -0.23127  -0.20414  -0.17237  -0.16204
  Beta  occ. eigenvalues --   -0.14183  -0.12598  -0.06656
  Beta virt. eigenvalues --    0.06696   0.07756   0.08191   0.08271   0.09139
  Beta virt. eigenvalues --    0.09433   0.09972   0.10972   0.11097   0.11452
  Beta virt. eigenvalues --    0.12093   0.12285   0.12913   0.13296   0.13499

 Mulliken charges and spin densities:
               1          2
     1  C   -0.068756  -0.230932
     2  N    0.191897   0.008474
     3  C   -0.338694  -0.028430
     4  C   -1.351688  -0.403860
     5  C    1.367245   0.301539
     6  S   -0.281339  -0.201417
     7  C   -0.578172   0.385999
     8  N   -0.157998   0.065814
     9  N   -0.094890   0.300449
    10  C    1.199713  -1.483546
    11  C    1.107290  -1.475617
    12  C   -0.249221   0.430180
    13  C   -0.573970   0.061579
    14  H    0.061517   0.050452
    15  H    0.056630   0.115027
    16  H    0.127970   0.019498
    17  H    0.131070   0.001471
    18  H    0.100850   0.013180
    19  H    0.135359   0.001454
    20  H   -0.711516   0.858373
    21  H   -0.167075   0.339425
    22  H   -0.402844   0.534000
    23  H   -0.007344   0.168768
    24  H   -0.471551   0.643786
    25  H   -0.349257   0.491693
    26  H    0.125735   0.014342
    27  H    0.113847   0.003356
    28  H    0.085192   0.014939
 Sum of Mulliken charges =  -1.00000   1.00000

 Dipole moment (field-independent basis, Debye):
    X=              8.8281    Y=             -1.2078    Z=             -0.0649  Tot=              8.9106
 Quadrupole moment (field-independent basis, Debye-Ang):
   XX=           -161.9586   YY=           -123.2668   ZZ=           -111.8567
   XY=             -9.2849   XZ=              4.9708   YZ=              2.5279

 Summary of Natural Population Analysis:

                                       Natural Population
                Natural  -----------------------------------------------
    Atom  No    Charge         Core      Valence    Rydberg      Total
 -----------------------------------------------------------------------
      C    1   -0.17407      0.99966     2.16708    0.00733     3.17407
      N    2   -0.26610      0.99966     2.75624    0.01020     3.76610
      C    3   -0.16946      0.99965     2.16364    0.00618     3.16946
      C    4    0.20004      0.99941     1.78288    0.01767     2.79996
      C    5   -0.15385      0.99939     2.14231    0.01214     3.15385
      S    6    0.15813      4.99945     2.82366    0.01876     7.84187
      C    7    0.18721      0.99957     1.79329    0.01994     2.81279
      N    8   -0.30437      0.99962     2.79465    0.01010     3.80437
      N    9   -0.24666      0.99964     2.73448    0.01254     3.74666
      C   10   -0.17671      0.99964     2.16851    0.00857     3.17671
      C   11   -0.17261      0.99963     2.16436    0.00861     3.17261
      C   12   -0.10097      0.99954     2.09078    0.01066     3.10097
      C   13   -0.19764      0.99960     2.19015    0.00789     3.19764
      H   14    0.08692      0.00000     0.41200    0.00108     0.41308
      H   15    0.10330      0.00000     0.39558    0.00111     0.39670
      H   16    0.08687      0.00000     0.41116    0.00197     0.41313
      H   17    0.10356      0.00000     0.39554    0.00090     0.39644
      H   18    0.08115      0.00000     0.41697    0.00188     0.41885
      H   19    0.08713      0.00000     0.41187    0.00101     0.41287
      H   20    0.10300      0.00000     0.39496    0.00205     0.39700
      H   21    0.09464      0.00000     0.40305    0.00231     0.40536
      H   22    0.09985      0.00000     0.39862    0.00153     0.40015
      H   23    0.10845      0.00000     0.38970    0.00185     0.39155
      H   24    0.09281      0.00000     0.40464    0.00256     0.40719
      H   25    0.09616      0.00000     0.40218    0.00166     0.40384
      H   26    0.09763      0.00000     0.40041    0.00197     0.40237
      H   27    0.08704      0.00000     0.41206    0.00090     0.41296
      H   28    0.08857      0.00000     0.41039    0.00105     0.41143
 =======================================================================
   * Total *    0.00000     16.99445    35.83116    0.17439    53.00000

 Normal termination of Gaussian 16 at Wed Dec  9 23:00:30 2020.
