 Gaussian 16, Revision A.03,

 -----------------------------------------------------------
 # opt freq B3LYP/6-31G(d) empiricaldispersion=gd3bj scf=xqc
 -----------------------------------------------------------

 -------------------------------
 CID_113575051_JID_7750_neutraal
 -------------------------------
 Symbolic Z-matrix:
 Charge =  0 Multiplicity = 1

 SCF Done:  E(RB3LYP) =  -1128.69061877     A.U. after   15 cycles
 SCF Done:  E(RB3LYP) =  -1128.69599925     A.U. after   12 cycles
 SCF Done:  E(RB3LYP) =  -1128.69652643     A.U. after   12 cycles
 SCF Done:  E(RB3LYP) =  -1128.69695327     A.U. after   12 cycles
 SCF Done:  E(RB3LYP) =  -1128.69683121     A.U. after   11 cycles
 SCF Done:  E(RB3LYP) =  -1128.69706280     A.U. after   11 cycles
 SCF Done:  E(RB3LYP) =  -1128.69709718     A.U. after   10 cycles
 SCF Done:  E(RB3LYP) =  -1128.69710133     A.U. after   10 cycles
 SCF Done:  E(RB3LYP) =  -1128.69710444     A.U. after    9 cycles
 SCF Done:  E(RB3LYP) =  -1128.69710520     A.U. after    9 cycles
 SCF Done:  E(RB3LYP) =  -1128.69710552     A.U. after    9 cycles
 SCF Done:  E(RB3LYP) =  -1128.69710595     A.U. after    9 cycles
 SCF Done:  E(RB3LYP) =  -1128.69710603     A.U. after    8 cycles
 SCF Done:  E(RB3LYP) =  -1128.69710611     A.U. after    7 cycles
 SCF Done:  E(RB3LYP) =  -1128.69710615     A.U. after    7 cycles
 Optimization completed.
    -- Stationary point found.
 Normal termination of Gaussian 16 at Fri Dec 11 13:12:37 2020.

 --------------------------------------------------------------------
 #N Geom=AllCheck Guess=TCheck SCRF=Check GenChk RB3LYP/6-31G(d) Freq
 --------------------------------------------------------------------

 Structure from the checkpoint file:  "JID_7750.chk"
 -------------------------------
 CID_113575051_JID_7750_neutraal
 -------------------------------
 Charge =  0 Multiplicity = 1

 SCF Done:  E(RB3LYP) =  -1128.69710615     A.U. after    1 cycles

  Exact polarizability: 202.299  -4.684 153.392  -1.953  -0.817 133.694
 Approx polarizability: 258.188  -3.807 259.668  -7.408  -7.381 194.264

                      1                      2                      3
                      A                      A                      A
 Frequencies --     12.9800                41.1435                50.1690
 Red. masses --      3.7671                 3.9236                 3.4776
 Frc consts  --      0.0004                 0.0039                 0.0052
 IR Inten    --      0.1707                 0.1844                 0.6398

                      4                      5                      6
                      A                      A                      A
 Frequencies --     65.4182                78.8732                88.5994
 Red. masses --      2.9165                 2.4140                 3.7918
 Frc consts  --      0.0074                 0.0088                 0.0175
 IR Inten    --      0.3749                 0.7075                 1.7185

                      7                      8                      9
                      A                      A                      A
 Frequencies --    102.3236               111.2515               119.2934
 Red. masses --      4.4422                 1.9637                 2.0377
 Frc consts  --      0.0274                 0.0143                 0.0171
 IR Inten    --      0.5355                 2.6498                 2.4904

                     10                     11                     12
                      A                      A                      A
 Frequencies --    141.7842               157.8197               177.4259
 Red. masses --      2.8325                 1.6064                 1.6736
 Frc consts  --      0.0335                 0.0236                 0.0310
 IR Inten    --      0.7719                 1.3779                 0.1174

                     13                     14                     15
                      A                      A                      A
 Frequencies --    209.3795               216.8500               229.8820
 Red. masses --      1.1027                 2.2471                 2.1211
 Frc consts  --      0.0285                 0.0623                 0.0660
 IR Inten    --      0.2027                 1.9323                 0.8535

                     16                     17                     18
                      A                      A                      A
 Frequencies --    232.0203               246.2639               256.7964
 Red. masses --      1.2613                 2.6283                 1.4976
 Frc consts  --      0.0400                 0.0939                 0.0582
 IR Inten    --      1.1139                 4.5434                 3.6164

                     19                     20                     21
                      A                      A                      A
 Frequencies --    272.3552               302.8767               321.8899
 Red. masses --      2.5672                 2.9294                 3.4040
 Frc consts  --      0.1122                 0.1583                 0.2078
 IR Inten    --      2.3850                 5.4099                 4.6227

                     22                     23                     24
                      A                      A                      A
 Frequencies --    327.6630               348.0655               374.5887
 Red. masses --      3.2905                 3.5205                 3.3875
 Frc consts  --      0.2081                 0.2513                 0.2801
 IR Inten    --      1.7644                11.1078                 4.7768

                     25                     26                     27
                      A                      A                      A
 Frequencies --    408.8785               427.5370               441.8400
 Red. masses --      3.2604                 2.3996                 2.8247
 Frc consts  --      0.3211                 0.2584                 0.3249
 IR Inten    --      2.4689                 1.6253                 0.0926

                     28                     29                     30
                      A                      A                      A
 Frequencies --    505.2758               544.9665               560.8859
 Red. masses --      4.9352                 5.7863                 5.3177
 Frc consts  --      0.7424                 1.0125                 0.9856
 IR Inten    --      4.9366                 4.3725                 0.6093

                     31                     32                     33
                      A                      A                      A
 Frequencies --    637.6879               697.6663               720.7959
 Red. masses --      6.2907                 9.4265                 4.8163
 Frc consts  --      1.5072                 2.7033                 1.4743
 IR Inten    --     13.2803                 1.3691                12.3433

                     34                     35                     36
                      A                      A                      A
 Frequencies --    765.1503               818.7507               860.8297
 Red. masses --      6.9935                 5.0257                 2.3034
 Frc consts  --      2.4123                 1.9850                 1.0057
 IR Inten    --      7.4705                24.7849                 7.1524

                     37                     38                     39
                      A                      A                      A
 Frequencies --    873.6214               913.4483               924.3106
 Red. masses --      1.6531                 2.8779                 3.2070
 Frc consts  --      0.7434                 1.4148                 1.6143
 IR Inten    --     71.1180                30.8191                 1.9574

                     40                     41                     42
                      A                      A                      A
 Frequencies --    934.8661               952.8712               970.2923
 Red. masses --      2.6379                 1.2176                 2.2070
 Frc consts  --      1.3583                 0.6514                 1.2242
 IR Inten    --     22.3065                 8.7763                25.2668

                     43                     44                     45
                      A                      A                      A
 Frequencies --    986.9121               996.0618              1011.1359
 Red. masses --      1.6375                 1.6696                 1.9293
 Frc consts  --      0.9397                 0.9760                 1.1622
 IR Inten    --      3.1640                 0.8771                30.9191

                     46                     47                     48
                      A                      A                      A
 Frequencies --   1060.1879              1109.4803              1113.1094
 Red. masses --      1.9411                 2.5861                 4.9078
 Frc consts  --      1.2855                 1.8756                 3.5827
 IR Inten    --     13.7510                61.0615                31.9937

                     49                     50                     51
                      A                      A                      A
 Frequencies --   1124.9139              1140.9946              1154.6899
 Red. masses --      3.7059                 3.1144                 2.5714
 Frc consts  --      2.7630                 2.3889                 2.0200
 IR Inten    --    135.2733                37.0228                30.9892

                     52                     53                     54
                      A                      A                      A
 Frequencies --   1175.7112              1190.3764              1191.7073
 Red. masses --      1.8590                 1.5548                 1.7836
 Frc consts  --      1.5140                 1.2980                 1.4924
 IR Inten    --     29.6850                 2.3093                 8.1933

                     55                     56                     57
                      A                      A                      A
 Frequencies --   1193.9382              1198.4513              1207.7912
 Red. masses --      1.3252                 2.4831                 1.7164
 Frc consts  --      1.1130                 2.1013                 1.4752
 IR Inten    --      4.1780                14.8376                 7.2554

                     58                     59                     60
                      A                      A                      A
 Frequencies --   1220.5136              1225.2340              1235.0071
 Red. masses --      1.6455                 1.8555                 1.5719
 Frc consts  --      1.4442                 1.6411                 1.4126
 IR Inten    --      7.5612                 7.2072                 8.6184

                     61                     62                     63
                      A                      A                      A
 Frequencies --   1299.4136              1310.9026              1325.8603
 Red. masses --      1.3786                 1.4371                 1.4595
 Frc consts  --      1.3714                 1.4550                 1.5116
 IR Inten    --      9.9811                 5.8761                12.0654

                     64                     65                     66
                      A                      A                      A
 Frequencies --   1365.5859              1366.6800              1392.2290
 Red. masses --      1.3609                 1.8653                 1.3035
 Frc consts  --      1.4953                 2.0528                 1.4887
 IR Inten    --      0.0900                 2.0804                19.8702

                     67                     68                     69
                      A                      A                      A
 Frequencies --   1404.6462              1413.0724              1415.9428
 Red. masses --      1.4448                 1.3950                 1.6192
 Frc consts  --      1.6796                 1.6412                 1.9127
 IR Inten    --     21.5624                 0.2117                12.1505

                     70                     71                     72
                      A                      A                      A
 Frequencies --   1428.9594              1449.3170              1481.6382
 Red. masses --      1.2556                 1.2293                 1.1835
 Frc consts  --      1.5106                 1.5214                 1.5307
 IR Inten    --      3.5458                 8.0030                 2.7080

                     73                     74                     75
                      A                      A                      A
 Frequencies --   1496.9975              1500.0169              1510.8442
 Red. masses --      1.1365                 1.1385                 1.1135
 Frc consts  --      1.5005                 1.5093                 1.4975
 IR Inten    --      1.2975                 0.5264                 4.6283

                     76                     77                     78
                      A                      A                      A
 Frequencies --   1514.5210              1516.9414              1517.3176
 Red. masses --      1.0580                 1.0571                 1.0514
 Frc consts  --      1.4298                 1.4332                 1.4262
 IR Inten    --      5.7680                11.9168                 6.3418

                     79                     80                     81
                      A                      A                      A
 Frequencies --   1519.9620              1521.0321              1532.0195
 Red. masses --      1.0657                 1.0448                 1.1008
 Frc consts  --      1.4506                 1.4241                 1.5223
 IR Inten    --      1.6759                 1.4287                 4.2186

                     82                     83                     84
                      A                      A                      A
 Frequencies --   1532.6825              1535.6601              1537.5864
 Red. masses --      1.1565                 1.0678                 1.7385
 Frc consts  --      1.6007                 1.4837                 2.4216
 IR Inten    --     12.5921                 4.6255                 8.4321

                     85                     86                     87
                      A                      A                      A
 Frequencies --   1540.7336              1541.7081              1545.8830
 Red. masses --      1.5408                 1.0766                 1.0819
 Frc consts  --      2.1550                 1.5076                 1.5233
 IR Inten    --     15.2787                 3.1186                 4.3755

                     88                     89                     90
                      A                      A                      A
 Frequencies --   1558.5465              1584.1514              2912.8050
 Red. masses --      1.1241                 8.4979                 1.0736
 Frc consts  --      1.6087                12.5648                 5.3669
 IR Inten    --     32.6406                 2.0354                59.7434

                     91                     92                     93
                      A                      A                      A
 Frequencies --   2947.1895              3015.9803              3024.8374
 Red. masses --      1.0613                 1.0362                 1.0348
 Frc consts  --      5.4313                 5.5532                 5.5785
 IR Inten    --    119.9838                40.2786                36.5847

                     94                     95                     96
                      A                      A                      A
 Frequencies --   3040.6807              3042.8088              3048.6101
 Red. masses --      1.0643                 1.0415                 1.0422
 Frc consts  --      5.7977                 5.6813                 5.7072
 IR Inten    --     45.2975                16.9190                31.0050

                     97                     98                     99
                      A                      A                      A
 Frequencies --   3053.6614              3068.7253              3069.4476
 Red. masses --      1.0822                 1.0762                 1.0841
 Frc consts  --      5.9458                 5.9712                 6.0179
 IR Inten    --      3.8460                32.9282                54.4338

                    100                    101                    102
                      A                      A                      A
 Frequencies --   3069.9215              3073.1824              3079.7879
 Red. masses --      1.0838                 1.1031                 1.1022
 Frc consts  --      6.0179                 6.1381                 6.1594
 IR Inten    --     44.4653                41.8370                36.6262

                    103                    104                    105
                      A                      A                      A
 Frequencies --   3103.9960              3112.3868              3112.8090
 Red. masses --      1.0998                 1.1005                 1.0993
 Frc consts  --      6.2431                 6.2808                 6.2761
 IR Inten    --      2.7076                16.3315                71.3310

                    106                    107                    108
                      A                      A                      A
 Frequencies --   3122.8654              3142.5490              3144.5147
 Red. masses --      1.1006                 1.0995                 1.1000
 Frc consts  --      6.3238                 6.3973                 6.4087
 IR Inten    --     29.9130                36.0956                18.8235

                    109                    110                    111
                      A                      A                      A
 Frequencies --   3145.8765              3149.0989              3477.3599
 Red. masses --      1.1001                 1.0989                 1.0747
 Frc consts  --      6.4144                 6.4204                 7.6568
 IR Inten    --     32.3077                22.8559                44.7741

 - Thermochemistry -
 -------------------
 Temperature   298.150 Kelvin.  Pressure   1.00000 Atm.
 Atom     1 has atomic number  6 and mass  12.00000

 Molecular mass:   258.14020 amu.
 Principal axes and moments of inertia in atomic units:
                           1         2         3
     Eigenvalues --  2506.322607599.725498216.09968
           X            0.99991  -0.01237   0.00415
           Y            0.01226   0.99960   0.02546
           Z           -0.00446  -0.02540   0.99967
 This molecule is an asymmetric top.
 Rotational symmetry number  1.
 Warning -- assumption of classical behavior for rotation
           may cause significant error
 Rotational temperatures (Kelvin)      0.03456     0.01140     0.01054
 Rotational constants (GHZ):           0.72008     0.23747     0.21966
 Zero-point vibrational energy     888834.6 (Joules/Mol)
                                  212.43658 (Kcal/Mol)
 Warning -- explicit consideration of  30 degrees of freedom as
           vibrations may cause significant error
 Vibrational temperatures:     18.68    59.20    72.18    94.12   113.48
          (Kelvin)            127.47   147.22   160.07   171.64   204.00
                              227.07   255.28   301.25   312.00   330.75
                              333.83   354.32   369.47   391.86   435.77
                              463.13   471.43   500.79   538.95   588.28
                              615.13   635.71   726.98   784.09   806.99
                              917.49  1003.79  1037.06  1100.88  1178.00
                             1238.54  1256.95  1314.25  1329.88  1345.06
                             1370.97  1396.03  1419.95  1433.11  1454.80
                             1525.37  1596.29  1601.52  1618.50  1641.64
                             1661.34  1691.59  1712.69  1714.60  1717.81
                             1724.30  1737.74  1756.05  1762.84  1776.90
                             1869.57  1886.10  1907.62  1964.77  1966.35
                             2003.11  2020.97  2033.10  2037.23  2055.95
                             2085.24  2131.75  2153.85  2158.19  2173.77
                             2179.06  2182.54  2183.08  2186.89  2188.43
                             2204.23  2205.19  2209.47  2212.24  2216.77
                             2218.17  2224.18  2242.40  2279.24  4190.88
                             4240.35  4339.32  4352.07  4374.86  4377.92
                             4386.27  4393.54  4415.21  4416.25  4416.93
                             4421.62  4431.13  4465.96  4478.03  4478.64
                             4493.11  4521.43  4524.26  4526.21  4530.85
                             5003.15

 Zero-point correction=                           0.338539 (Hartree/Particle)
 Thermal correction to Energy=                    0.358663
 Thermal correction to Enthalpy=                  0.359608
 Thermal correction to Gibbs Free Energy=         0.288372
 Sum of electronic and zero-point Energies=          -1128.358567
 Sum of electronic and thermal Energies=             -1128.338443
 Sum of electronic and thermal Enthalpies=           -1128.337499
 Sum of electronic and thermal Free Energies=        -1128.408734

                     E (Thermal)             CV                S
                      KCal/Mol        Cal/Mol-Kelvin    Cal/Mol-Kelvin
 Total                  225.065             71.838            149.928
 Electronic               0.000              0.000              0.000
 Translational            0.889              2.981             42.545
 Rotational               0.889              2.981             33.414
 Vibrational            223.287             65.876             73.969
 Vibration     1          0.593              1.987              7.493
 Vibration     2          0.594              1.981              5.203
 Vibration     3          0.595              1.978              4.811
 Vibration     4          0.597              1.971              4.287
 Vibration     5          0.600              1.963              3.919
 Vibration     6          0.601              1.957              3.691
 Vibration     7          0.604              1.947              3.410
 Vibration     8          0.607              1.940              3.247
 Vibration     9          0.609              1.933              3.112
 Vibration    10          0.615              1.911              2.780
 Vibration    11          0.621              1.894              2.576
 Vibration    12          0.628              1.870              2.355
 Vibration    13          0.642              1.826              2.049
 Vibration    14          0.646              1.815              1.985
 Vibration    15          0.652              1.795              1.880
 Vibration    16          0.653              1.792              1.863
 Vibration    17          0.661              1.769              1.757
 Vibration    18          0.666              1.751              1.683
 Vibration    19          0.675              1.724              1.581
 Vibration    20          0.694              1.668              1.401
 Vibration    21          0.707              1.632              1.300
 Vibration    22          0.711              1.620              1.272
 Vibration    23          0.726              1.579              1.175
 Vibration    24          0.746              1.524              1.061
 Vibration    25          0.773              1.451              0.931
 Vibration    26          0.789              1.410              0.867
 Vibration    27          0.802              1.379              0.821
 Vibration    28          0.861              1.238              0.645
 Vibration    29          0.900              1.151              0.555
 Vibration    30          0.917              1.116              0.522

                           ! Non-Optimized Parameters !
 Normal termination of Gaussian 16 at Fri Dec 11 13:29:53 2020.

 ----------------------------------------------------------------------
 # B3LYP/6-311++G(d,p) empiricaldispersion=gd3bj scf=xqc pop=npa geom=c
 heck
 ----------------------------------------------------------------------

 ---------------------------------------
 CID_113575051_JID_7750_Energie_neutraal
 ---------------------------------------
 Structure from the checkpoint file:  "JID_7750.chk"
 Charge =  0 Multiplicity = 1

 SCF Done:  E(RB3LYP) =  -1128.93218592     A.U. after   16 cycles
 Normal termination of Gaussian 16 at Fri Dec 11 13:38:36 2020.

 ----------------------------------------------------------------------
 # B3LYP/6-311++G(d,p) empiricaldispersion=gd3bj scf=xqc pop=npa geom=c
 heck
 ----------------------------------------------------------------------

 -------------------------------------
 CID_113575051_JID_7750_Energie_kation
 -------------------------------------
 Structure from the checkpoint file:  "JID_7750.chk"
 Charge =  1 Multiplicity = 2

 SCF Done:  E(UB3LYP) =  -1128.63254123     A.U. after   28 cycles
 Normal termination of Gaussian 16 at Fri Dec 11 13:59:46 2020.
 Gaussian 16:  ES64L-G16RevA.03 25-Dec-2016

 ----------------------------------------------------------------------
 # B3LYP/6-311++G(d,p) empiricaldispersion=gd3bj scf=xqc pop=npa geom=c
 heck
 ----------------------------------------------------------------------

 ------------------------------------
 CID_113575051_JID_7750_Energie_anion
 ------------------------------------
 Structure from the checkpoint file:  "JID_7750.chk"
 Charge = -1 Multiplicity = 2

                         Standard orientation:
 ---------------------------------------------------------------------
 Center     Atomic      Atomic             Coordinates (Angstroms)
 Number     Number       Type             X           Y           Z
 ---------------------------------------------------------------------
      1          6           0       -3.385725    0.626786   -1.904944
      2          6           0       -3.363630    0.467505   -0.378845
      3          6           0       -4.779844    0.253471    0.166962
      4          6           0       -2.456127   -0.710679    0.025730
      5          6           0       -1.002691   -0.479812   -0.320251
      6          7           0       -0.454915    0.678230   -0.562311
      7          6           0        0.905748    0.570232   -0.766218
      8          6           0        1.421858   -0.698941   -0.664418
      9         16           0        0.143296   -1.811808   -0.285976
     10          6           0        2.864938   -1.102536   -0.754089
     11          7           0        3.577680   -0.759769    0.475623
     12          6           0        4.995715   -1.083614    0.389252
     13          6           0        1.727928    1.810394   -0.986274
     14          8           0        2.531046    2.161533    0.144282
     15          6           0        1.757535    2.521067    1.278959
     16          8           0       -2.573070   -1.090855    1.401653
     17          6           0       -2.105416   -0.133116    2.338381
     18          1           0       -3.748283   -0.290162   -2.387917
     19          1           0       -2.392857    0.856365   -2.298464
     20          1           0       -4.062139    1.439590   -2.191482
     21          1           0       -2.944857    1.386270    0.048012
     22          1           0       -5.225422   -0.655766   -0.256129
     23          1           0       -4.787357    0.146974    1.254560
     24          1           0       -5.423143    1.097881   -0.104254
     25          1           0       -2.805610   -1.604361   -0.505654
     26          1           0        2.947471   -2.184318   -0.912304
     27          1           0        3.306634   -0.626138   -1.652896
     28          1           0        3.463979    0.243689    0.620875
     29          1           0        5.511719   -0.636110   -0.481808
     30          1           0        5.500612   -0.742408    1.298277
     31          1           0        5.121358   -2.171443    0.324676
     32          1           0        2.442727    1.669732   -1.802391
     33          1           0        1.053553    2.638385   -1.244390
     34          1           0        1.075039    3.351371    1.045285
     35          1           0        1.164176    1.675851    1.652629
     36          1           0        2.462346    2.836942    2.051531
     37          1           0       -1.046094    0.110893    2.182585
     38          1           0       -2.687098    0.797843    2.305887
     39          1           0       -2.224397   -0.591342    3.322838
 ---------------------------------------------------------------------

 SCF Done:  E(UB3LYP) =  -1128.92278832     A.U. after   33 cycles
 SCF Done:  E(UB3LYP) =  -1128.92278832     a.u. after    2 cycles

 The electronic state is 2-A.
 Alpha  occ. eigenvalues --  -88.73430 -19.02339 -19.01161 -14.18250 -14.17333
 Alpha  occ. eigenvalues --  -10.11162 -10.10990 -10.10610 -10.10284 -10.08972
 Alpha  occ. eigenvalues --  -10.08170 -10.07837 -10.06870 -10.06651 -10.05795
 Alpha  occ. eigenvalues --  -10.05772 -10.05411  -7.82095  -5.78365  -5.78023
 Alpha  occ. eigenvalues --   -5.77733  -0.93133  -0.92334  -0.82545  -0.79340
 Alpha  occ. eigenvalues --   -0.70225  -0.67030  -0.65296  -0.61812  -0.59965
 Alpha  occ. eigenvalues --   -0.58502  -0.57647  -0.54349  -0.53071  -0.50889
 Alpha  occ. eigenvalues --   -0.46812  -0.44527  -0.40887  -0.38857  -0.38254
 Alpha  occ. eigenvalues --   -0.37847  -0.37503  -0.36195  -0.35593  -0.34282
 Alpha  occ. eigenvalues --   -0.34198  -0.33788  -0.32344  -0.31015  -0.30588
 Alpha  occ. eigenvalues --   -0.29504  -0.28778  -0.28364  -0.27926  -0.27348
 Alpha  occ. eigenvalues --   -0.26579  -0.26534  -0.25629  -0.24504  -0.23232
 Alpha  occ. eigenvalues --   -0.22891  -0.22624  -0.21948  -0.19918  -0.16407
 Alpha  occ. eigenvalues --   -0.15744  -0.14966  -0.13779  -0.11939  -0.11221
 Alpha  occ. eigenvalues --    0.05093
 Alpha virt. eigenvalues --    0.06600   0.07118   0.07899   0.08660   0.08982
 Alpha virt. eigenvalues --    0.09227   0.09561   0.10271   0.10630   0.10897
 Alpha virt. eigenvalues --    0.11553   0.11682   0.12426   0.12611   0.12783

  Beta  occ. eigenvalues --  -88.73379 -19.02331 -19.01097 -14.18214 -14.17283
  Beta  occ. eigenvalues --  -10.11175 -10.10987 -10.10590 -10.10284 -10.08993
  Beta  occ. eigenvalues --  -10.08148 -10.07458 -10.06870 -10.06686 -10.05757
  Beta  occ. eigenvalues --  -10.05438 -10.05407  -7.82050  -5.78350  -5.78006
  Beta  occ. eigenvalues --   -5.77553  -0.93116  -0.92191  -0.82257  -0.79246
  Beta  occ. eigenvalues --   -0.70163  -0.66656  -0.65099  -0.61723  -0.59859
  Beta  occ. eigenvalues --   -0.58451  -0.57558  -0.54254  -0.52959  -0.50780
  Beta  occ. eigenvalues --   -0.46680  -0.44252  -0.40712  -0.38684  -0.38136
  Beta  occ. eigenvalues --   -0.37752  -0.37419  -0.36150  -0.35529  -0.34192
  Beta  occ. eigenvalues --   -0.34100  -0.33668  -0.32270  -0.30958  -0.30488
  Beta  occ. eigenvalues --   -0.29426  -0.28693  -0.28326  -0.27842  -0.27225
  Beta  occ. eigenvalues --   -0.26480  -0.26324  -0.25182  -0.24330  -0.23165
  Beta  occ. eigenvalues --   -0.22806  -0.22506  -0.21804  -0.19800  -0.16337
  Beta  occ. eigenvalues --   -0.15638  -0.14041  -0.13586  -0.11850  -0.09787
  Beta virt. eigenvalues --    0.06864   0.07184   0.07876   0.08561   0.09102
  Beta virt. eigenvalues --    0.09217   0.09541   0.10052   0.10676   0.10687
  Beta virt. eigenvalues --    0.10927   0.11632   0.11670   0.12459   0.12717

 Mulliken charges and spin densities:
               1          2
     1  C   -0.457518  -0.254265
     2  C   -0.290316   0.537122
     3  C   -0.070774  -0.410875
     4  C    0.459740  -0.521679
     5  C   -0.240244   0.239256
     6  N    0.401980   0.032117
     7  C   -1.183526   0.307910
     8  C    2.198963  -0.218206
     9  S   -0.703505   0.150512
    10  C   -1.351184   0.376511
    11  N   -0.177155   0.062445
    12  C    0.109790  -0.488787
    13  C   -0.685057  -0.325504
    14  O   -0.117160  -0.002141
    15  C   -0.108676  -0.249221
    16  O   -0.030128  -0.002734
    17  C   -0.273925  -0.011223
    18  H    0.052846   0.064492
    19  H    0.176613   0.010240
    20  H    0.088000   0.036161
    21  H    0.191587   0.000004
    22  H   -0.000947   0.141057
    23  H    0.047582   0.079951
    24  H    0.034958   0.088100
    25  H   -0.146157   0.355797
    26  H    0.182696  -0.010057
    27  H    0.088067  -0.010864
    28  H    0.356800  -0.061746
    29  H   -0.034545   0.144414
    30  H   -0.268989   0.398722
    31  H    0.002484   0.123848
    32  H    0.128555   0.038795
    33  H    0.154132   0.006449
    34  H    0.049772   0.062747
    35  H    0.189428  -0.028103
    36  H   -0.156970   0.301266
    37  H    0.124391   0.038476
    38  H    0.112577  -0.000876
    39  H    0.145814  -0.000111
 Sum of Mulliken charges =  -1.00000   1.00000

 Dipole moment (field-independent basis, Debye):
    X=             -2.4834    Y=              2.0231    Z=             -1.1587  Tot=              3.4063
 Quadrupole moment (field-independent basis, Debye-Ang):
   XX=           -193.6913   YY=           -141.4548   ZZ=           -132.3134
   XY=             -8.2806   XZ=            -11.1960   YZ=              1.5429

 Summary of Natural Population Analysis:

                                       Natural Population
                Natural  -----------------------------------------------
    Atom  No    Charge         Core      Valence    Rydberg      Total
 -----------------------------------------------------------------------
      C    1   -0.28441      0.99965     2.27913    0.00563     3.28441
      C    2   -0.12544      0.99960     2.11695    0.00889     3.12544
      C    3   -0.28549      0.99965     2.27913    0.00671     3.28549
      C    4    0.04661      0.99945     1.93559    0.01835     2.95339
      C    5    0.07732      0.99959     1.90517    0.01792     2.92268
      N    6   -0.25250      0.99963     2.74259    0.01029     3.75250
      C    7    0.01857      0.99940     1.96727    0.01476     2.98143
      C    8   -0.04291      0.99941     2.03192    0.01158     3.04291
      S    9    0.21134      4.99939     2.77055    0.01872     7.78866
      C   10   -0.10217      0.99958     2.09064    0.01194     3.10217
      N   11   -0.33805      0.99974     2.82733    0.01098     3.83805
      C   12   -0.18019      0.99967     2.17178    0.00874     3.18019
      C   13   -0.02108      0.99953     2.00713    0.01442     3.02108
      O   14   -0.30472      0.99989     3.29477    0.01006     4.30472
      C   15   -0.10255      0.99961     2.09298    0.00996     3.10255
      O   16   -0.29591      0.99989     3.28634    0.00968     4.29591
      C   17   -0.10258      0.99960     2.09377    0.00921     3.10258
      H   18    0.09342      0.00000     0.40579    0.00079     0.40658
      H   19    0.11224      0.00000     0.38693    0.00083     0.38776
      H   20    0.09279      0.00000     0.40651    0.00070     0.40721
      H   21    0.10240      0.00000     0.39609    0.00150     0.39760
      H   22    0.09651      0.00000     0.40252    0.00097     0.40349
      H   23    0.10273      0.00000     0.39641    0.00086     0.39727
      H   24    0.09310      0.00000     0.40621    0.00069     0.40690
      H   25    0.09788      0.00000     0.40027    0.00185     0.40212
      H   26    0.09340      0.00000     0.40542    0.00118     0.40660
      H   27    0.08216      0.00000     0.41648    0.00136     0.41784
      H   28    0.18256      0.00000     0.31252    0.00492     0.31744
      H   29    0.07481      0.00000     0.42385    0.00134     0.42519
      H   30    0.09534      0.00000     0.40353    0.00113     0.40466
      H   31    0.08654      0.00000     0.41236    0.00109     0.41346
      H   32    0.09150      0.00000     0.40743    0.00107     0.40850
      H   33    0.08704      0.00000     0.41168    0.00129     0.41296
      H   34    0.07769      0.00000     0.42119    0.00112     0.42231
      H   35    0.08720      0.00000     0.41143    0.00137     0.41280
      H   36    0.08700      0.00000     0.41185    0.00115     0.41300
      H   37    0.08766      0.00000     0.41069    0.00165     0.41234
      H   38    0.07483      0.00000     0.42418    0.00099     0.42517
      H   39    0.08540      0.00000     0.41392    0.00068     0.41460
 =======================================================================
   * Total *    0.00000     20.99329    48.78030    0.22641    70.00000

 Normal termination of Gaussian 16 at Fri Dec 11 15:02:19 2020.
