 Gaussian 16, Revision A.03,

 -----------------------------------------------------------
 # opt freq B3LYP/6-31G(d) empiricaldispersion=gd3bj scf=xqc
 -----------------------------------------------------------

 ------------------------------
 CID_61938935_JID_6586_neutraal
 ------------------------------
 Symbolic Z-matrix:
 Charge =  0 Multiplicity = 1

 SCF Done:  E(RB3LYP) =  -731.699581809     A.U. after   14 cycles
 SCF Done:  E(RB3LYP) =  -731.704278953     A.U. after   13 cycles
 SCF Done:  E(RB3LYP) =  -731.702474372     A.U. after   13 cycles
 SCF Done:  E(RB3LYP) =  -731.705838617     A.U. after   12 cycles
 SCF Done:  E(RB3LYP) =  -731.707080844     A.U. after   12 cycles
 SCF Done:  E(RB3LYP) =  -731.707891033     A.U. after   12 cycles
 SCF Done:  E(RB3LYP) =  -731.707667672     A.U. after   13 cycles
 SCF Done:  E(RB3LYP) =  -731.708326897     A.U. after   12 cycles
 SCF Done:  E(RB3LYP) =  -731.708663826     A.U. after   12 cycles
 SCF Done:  E(RB3LYP) =  -731.709031221     A.U. after   12 cycles
 SCF Done:  E(RB3LYP) =  -731.721854676     A.U. after   10 cycles
 SCF Done:  E(RB3LYP) =  -731.721851351     A.U. after   10 cycles
 SCF Done:  E(RB3LYP) =  -731.721858234     A.U. after   10 cycles
 SCF Done:  E(RB3LYP) =  -731.721858317     A.U. after    8 cycles
 SCF Done:  E(RB3LYP) =  -731.721858443     A.U. after    8 cycles
 SCF Done:  E(RB3LYP) =  -731.721858450     A.U. after    7 cycles
 Optimization completed.
    -- Stationary point found.
 Normal termination of Gaussian 16 at Fri Dec 11 00:13:33 2020.

 --------------------------------------------------------------------
 #N Geom=AllCheck Guess=TCheck SCRF=Check GenChk RB3LYP/6-31G(d) Freq
 --------------------------------------------------------------------

 Structure from the checkpoint file:  "JID_6586.chk"
 ------------------------------
 CID_61938935_JID_6586_neutraal
 ------------------------------
 Charge =  0 Multiplicity = 1

 SCF Done:  E(RB3LYP) =  -731.721858450     A.U. after    1 cycles

  Exact polarizability: 174.952   3.518 132.487   7.272   0.934 125.885
 Approx polarizability: 204.614  -3.162 190.891  16.166  -0.525 192.101

                      1                      2                      3
                      A                      A                      A
 Frequencies --     13.0209                26.4766                31.6467
 Red. masses --      4.2651                 3.5436                 3.2576
 Frc consts  --      0.0004                 0.0015                 0.0019
 IR Inten    --      0.1197                 0.0193                 0.0680

                      4                      5                      6
                      A                      A                      A
 Frequencies --     45.0925                58.7174                80.1338
 Red. masses --      3.4896                 3.0312                 7.0318
 Frc consts  --      0.0042                 0.0062                 0.0266
 IR Inten    --      0.3389                 0.2214                 4.7638

                      7                      8                      9
                      A                      A                      A
 Frequencies --     89.0223               106.2100               150.0326
 Red. masses --      2.6896                 2.8333                 3.4177
 Frc consts  --      0.0126                 0.0188                 0.0453
 IR Inten    --      0.3125                 1.1520                 1.3878

                     10                     11                     12
                      A                      A                      A
 Frequencies --    177.3748               206.1918               230.7721
 Red. masses --      2.8013                 2.3409                 1.2196
 Frc consts  --      0.0519                 0.0586                 0.0383
 IR Inten    --      0.1622                 1.5906                 1.9788

                     13                     14                     15
                      A                      A                      A
 Frequencies --    231.7669               235.0296               253.8918
 Red. masses --      2.6071                 1.1893                 1.2050
 Frc consts  --      0.0825                 0.0387                 0.0458
 IR Inten    --      0.7660                 0.5726                 0.1482

                     16                     17                     18
                      A                      A                      A
 Frequencies --    287.3910               306.3575               322.3529
 Red. masses --      2.9899                 3.1671                 2.9180
 Frc consts  --      0.1455                 0.1751                 0.1787
 IR Inten    --      8.6165                 1.9866                 8.3083

                     19                     20                     21
                      A                      A                      A
 Frequencies --    353.9945               374.1744               393.7478
 Red. masses --      2.4855                 2.7429                 2.9558
 Frc consts  --      0.1835                 0.2263                 0.2700
 IR Inten    --      1.8172                 5.4398                 6.6246

                     22                     23                     24
                      A                      A                      A
 Frequencies --    410.6921               438.5712               467.3285
 Red. masses --      2.2615                 2.4691                 1.4819
 Frc consts  --      0.2247                 0.2798                 0.1907
 IR Inten    --      1.2688                 1.9559               123.6910

                     25                     26                     27
                      A                      A                      A
 Frequencies --    482.0665               491.4505               529.8663
 Red. masses --      2.2980                 2.2011                 2.4469
 Frc consts  --      0.3146                 0.3132                 0.4048
 IR Inten    --     21.9165                80.7744                18.4979

                     28                     29                     30
                      A                      A                      A
 Frequencies --    564.8842               627.8364               655.8813
 Red. masses --      3.2871                 3.3085                 1.3526
 Frc consts  --      0.6180                 0.7684                 0.3428
 IR Inten    --     35.8037                11.4024                19.1552

                     31                     32                     33
                      A                      A                      A
 Frequencies --    743.8791               762.3419               778.9172
 Red. masses --      2.2384                 2.2010                 1.3528
 Frc consts  --      0.7298                 0.7536                 0.4836
 IR Inten    --     10.6592                40.5282                 5.4851

                     34                     35                     36
                      A                      A                      A
 Frequencies --    813.7413               826.7879               834.9831
 Red. masses --      1.7802                 1.5149                 2.5264
 Frc consts  --      0.6945                 0.6101                 1.0378
 IR Inten    --     20.1861                13.5169                 2.7673

                     37                     38                     39
                      A                      A                      A
 Frequencies --    847.6024               891.1394               900.4983
 Red. masses --      1.9712                 1.5881                 1.5314
 Frc consts  --      0.8344                 0.7430                 0.7317
 IR Inten    --      1.6389                21.3015                 9.9078

                     40                     41                     42
                      A                      A                      A
 Frequencies --    934.4231               944.4158               970.5150
 Red. masses --      2.0947                 1.2092                 3.0298
 Frc consts  --      1.0776                 0.6355                 1.6814
 IR Inten    --      9.9421                 1.2449                14.0062

                     43                     44                     45
                      A                      A                      A
 Frequencies --    976.9320               985.3431              1003.7272
 Red. masses --      1.7200                 1.5993                 1.8748
 Frc consts  --      0.9672                 0.9149                 1.1129
 IR Inten    --      0.6082                 0.5320                11.6494

                     46                     47                     48
                      A                      A                      A
 Frequencies --   1045.3070              1054.4202              1061.0523
 Red. masses --      1.3898                 1.8421                 1.3757
 Frc consts  --      0.8947                 1.2066                 0.9125
 IR Inten    --      2.5505                 8.0009                12.6143

                     49                     50                     51
                      A                      A                      A
 Frequencies --   1081.1573              1085.4850              1102.6144
 Red. masses --      2.6928                 1.4056                 4.3613
 Frc consts  --      1.8545                 0.9758                 3.1241
 IR Inten    --      3.9553                 2.8983               121.9686

                     52                     53                     54
                      A                      A                      A
 Frequencies --   1127.6865              1143.4500              1149.2761
 Red. masses --      3.0708                 1.2338                 2.3140
 Frc consts  --      2.3008                 0.9504                 1.8008
 IR Inten    --     97.0988                 2.1018                53.4388

                     55                     56                     57
                      A                      A                      A
 Frequencies --   1170.3064              1176.0076              1176.8660
 Red. masses --      2.3341                 2.2255                 2.3669
 Frc consts  --      1.8836                 1.8134                 1.9315
 IR Inten    --     12.1203                61.7129                 4.5958

                     58                     59                     60
                      A                      A                      A
 Frequencies --   1204.4733              1209.6985              1213.1938
 Red. masses --      1.8763                 1.3797                 1.9535
 Frc consts  --      1.6038                 1.1896                 1.6941
 IR Inten    --      4.3933                 1.3405                 3.7747

                     61                     62                     63
                      A                      A                      A
 Frequencies --   1225.0936              1243.0348              1258.2283
 Red. masses --      2.0823                 1.2035                 1.7938
 Frc consts  --      1.8413                 1.0956                 1.6732
 IR Inten    --      6.8953                 4.4578                 6.6421

                     64                     65                     66
                      A                      A                      A
 Frequencies --   1292.0756              1318.0135              1328.2405
 Red. masses --      1.3883                 1.5325                 1.2447
 Frc consts  --      1.3656                 1.5685                 1.2938
 IR Inten    --      1.6449                55.3408                 2.4722

                     67                     68                     69
                      A                      A                      A
 Frequencies --   1342.5710              1375.4485              1380.2396
 Red. masses --      1.3363                 1.4788                 1.4627
 Frc consts  --      1.4192                 1.6483                 1.6417
 IR Inten    --     36.8779                15.0791                 6.0689

                     70                     71                     72
                      A                      A                      A
 Frequencies --   1387.1428              1402.6906              1407.9632
 Red. masses --      1.5050                 1.3003                 1.4267
 Frc consts  --      1.7062                 1.5074                 1.6663
 IR Inten    --     29.2915                 6.6806                 5.5704

                     73                     74                     75
                      A                      A                      A
 Frequencies --   1418.9971              1431.7014              1436.3303
 Red. masses --      1.4689                 1.2679                 1.3612
 Frc consts  --      1.7427                 1.5312                 1.6546
 IR Inten    --     53.5810                 4.5017                23.1372

                     76                     77                     78
                      A                      A                      A
 Frequencies --   1450.5974              1454.9722              1486.4815
 Red. masses --      1.2492                 1.4446                 1.0923
 Frc consts  --      1.5487                 1.8018                 1.4221
 IR Inten    --      3.1978                 8.1626                 0.9498

                     79                     80                     81
                      A                      A                      A
 Frequencies --   1508.2034              1517.7471              1519.7193
 Red. masses --      1.0820                 1.0488                 1.0466
 Frc consts  --      1.4501                 1.4234                 1.4242
 IR Inten    --      0.6493                 1.9018                 3.9003

                     82                     83                     84
                      A                      A                      A
 Frequencies --   1524.6224              1527.3924              1531.5237
 Red. masses --      1.0488                 1.2689                 1.0618
 Frc consts  --      1.4363                 1.7441                 1.4674
 IR Inten    --      0.7916                 5.4780                 3.5714

                     85                     86                     87
                      A                      A                      A
 Frequencies --   1536.0776              1541.9758              1544.9021
 Red. masses --      1.0564                 1.0484                 1.0814
 Frc consts  --      1.4686                 1.4686                 1.5207
 IR Inten    --      3.3274                13.8821                 1.3793

                     88                     89                     90
                      A                      A                      A
 Frequencies --   1555.2022              1647.6352              1787.7943
 Red. masses --      1.2881                 1.2500                 8.8027
 Frc consts  --      1.8355                 1.9993                16.5769
 IR Inten    --     52.7127                83.0813               301.7872

                     91                     92                     93
                      A                      A                      A
 Frequencies --   3015.8365              3024.1227              3026.3827
 Red. masses --      1.0628                 1.0800                 1.0693
 Frc consts  --      5.6951                 5.8192                 5.7705
 IR Inten    --     10.1340                19.8570                 1.0817

                     94                     95                     96
                      A                      A                      A
 Frequencies --   3030.1812              3039.1938              3044.5911
 Red. masses --      1.0691                 1.0371                 1.0388
 Frc consts  --      5.7838                 5.6442                 5.6733
 IR Inten    --     35.8305                36.7373                18.4104

                     97                     98                     99
                      A                      A                      A
 Frequencies --   3057.4245              3058.1413              3068.0986
 Red. masses --      1.0848                 1.0424                 1.0989
 Frc consts  --      5.9746                 5.7435                 6.0945
 IR Inten    --     16.4089                15.0751                32.8761

                    100                    101                    102
                      A                      A                      A
 Frequencies --   3072.5774              3103.1653              3109.0087
 Red. masses --      1.1017                 1.1013                 1.1009
 Frc consts  --      6.1278                 6.2483                 6.2698
 IR Inten    --     45.6655                 9.4856                59.1790

                    103                    104                    105
                      A                      A                      A
 Frequencies --   3113.2067              3116.8408              3127.6146
 Red. masses --      1.1023                 1.1016                 1.1004
 Frc consts  --      6.2945                 6.3055                 6.3421
 IR Inten    --     35.4086                54.4791                31.6503

                    106                    107                    108
                      A                      A                      A
 Frequencies --   3138.7376              3141.5005              3143.2256
 Red. masses --      1.0843                 1.1029                 1.0531
 Frc consts  --      6.2940                 6.4132                 6.1299
 IR Inten    --     25.2189                26.8723                18.7925

                    109                    110                    111
                      A                      A                      A
 Frequencies --   3149.1836              3220.4952              3240.2700
 Red. masses --      1.0621                 1.1184                 1.1160
 Frc consts  --      6.2058                 6.8342                 6.9034
 IR Inten    --     15.7262                 9.0620                16.0180

                    112                    113                    114
                      A                      A                      A
 Frequencies --   3482.3666              3527.5378              3673.0079
 Red. masses --      1.0723                 1.0482                 1.1021
 Frc consts  --      7.6613                 7.6847                 8.7598
 IR Inten    --     16.6162               131.7605                86.6239

 - Thermochemistry -
 -------------------
 Temperature   298.150 Kelvin.  Pressure   1.00000 Atm.
 Atom     1 has atomic number  6 and mass  12.00000

 Molecular mass:   228.18378 amu.
 Principal axes and moments of inertia in atomic units:
                           1         2         3
     Eigenvalues --  1765.271608893.835559240.48173
           X            0.99998   0.00563  -0.00422
           Y           -0.00571   0.99983  -0.01772
           Z            0.00412   0.01775   0.99983
 This molecule is an asymmetric top.
 Rotational symmetry number  1.
 Warning -- assumption of classical behavior for rotation
           may cause significant error
 Rotational temperatures (Kelvin)      0.04907     0.00974     0.00937
 Rotational constants (GHZ):           1.02236     0.20292     0.19531
 Zero-point vibrational energy     944831.8 (Joules/Mol)
                                  225.82022 (Kcal/Mol)
 Warning -- explicit consideration of  28 degrees of freedom as
           vibrations may cause significant error
 Vibrational temperatures:     18.73    38.09    45.53    64.88    84.48
          (Kelvin)            115.29   128.08   152.81   215.86   255.20
                              296.66   332.03   333.46   338.16   365.29
                              413.49   440.78   463.79   509.32   538.35
                              566.52   590.89   631.01   672.38   693.59
                              707.09   762.36   812.74   903.32   943.67
                             1070.28  1096.84  1120.69  1170.79  1189.56
                             1201.35  1219.51  1282.15  1295.62  1344.43
                             1358.80  1396.35  1405.59  1417.69  1444.14
                             1503.96  1517.08  1526.62  1555.54  1561.77
                             1586.42  1622.49  1645.17  1653.55  1683.81
                             1692.01  1693.25  1732.97  1740.49  1745.52
                             1762.64  1788.45  1810.31  1859.01  1896.33
                             1911.04  1931.66  1978.96  1985.86  1995.79
                             2018.16  2025.75  2041.62  2059.90  2066.56
                             2087.09  2093.38  2138.72  2169.97  2183.70
                             2186.54  2193.59  2197.58  2203.52  2210.07
                             2218.56  2222.77  2237.59  2370.58  2572.24
                             4339.12  4351.04  4354.29  4359.75  4372.72
                             4380.49  4398.95  4399.98  4414.31  4420.75
                             4464.76  4473.17  4479.21  4484.44  4499.94
                             4515.94  4519.92  4522.40  4530.97  4633.57
                             4662.03  5010.35  5075.34  5284.64

 Zero-point correction=                           0.359867 (Hartree/Particle)
 Thermal correction to Energy=                    0.378748
 Thermal correction to Enthalpy=                  0.379692
 Thermal correction to Gibbs Free Energy=         0.310106
 Sum of electronic and zero-point Energies=           -731.361991
 Sum of electronic and thermal Energies=              -731.343111
 Sum of electronic and thermal Enthalpies=            -731.342166
 Sum of electronic and thermal Free Energies=         -731.411753

                     E (Thermal)             CV                S
                      KCal/Mol        Cal/Mol-Kelvin    Cal/Mol-Kelvin
 Total                  237.668             69.738            146.457
 Electronic               0.000              0.000              0.000
 Translational            0.889              2.981             42.177
 Rotational               0.889              2.981             33.339
 Vibrational            235.890             63.777             70.941
 Vibration     1          0.593              1.987              7.487
 Vibration     2          0.593              1.985              6.077
 Vibration     3          0.594              1.983              5.723
 Vibration     4          0.595              1.979              5.022
 Vibration     5          0.596              1.974              4.500
 Vibration     6          0.600              1.963              3.888
 Vibration     7          0.602              1.957              3.681
 Vibration     8          0.605              1.944              3.337
 Vibration     9          0.618              1.903              2.672
 Vibration    10          0.628              1.870              2.356
 Vibration    11          0.641              1.831              2.077
 Vibration    12          0.652              1.794              1.873
 Vibration    13          0.653              1.792              1.865
 Vibration    14          0.655              1.787              1.840
 Vibration    15          0.665              1.756              1.703
 Vibration    16          0.685              1.697              1.489
 Vibration    17          0.697              1.662              1.382
 Vibration    18          0.707              1.631              1.298
 Vibration    19          0.730              1.567              1.148
 Vibration    20          0.745              1.525              1.063
 Vibration    21          0.761              1.484              0.986
 Vibration    22          0.775              1.447              0.924
 Vibration    23          0.799              1.386              0.831
 Vibration    24          0.825              1.323              0.745
 Vibration    25          0.838              1.290              0.705
 Vibration    26          0.847              1.269              0.680
 Vibration    27          0.885              1.184              0.588
 Vibration    28          0.921              1.107              0.514

 Optimization completed.
    -- Stationary point found.
 Normal termination of Gaussian 16 at Fri Dec 11 00:25:49 2020.

 ----------------------------------------------------------------------
 # B3LYP/6-311++G(d,p) empiricaldispersion=gd3bj scf=xqc pop=npa geom=c
 heck
 ----------------------------------------------------------------------

 --------------------------------------
 CID_61938935_JID_6586_Energie_neutraal
 --------------------------------------
 Structure from the checkpoint file:  "JID_6586.chk"
 Charge =  0 Multiplicity = 1

 SCF Done:  E(RB3LYP) =  -731.942744330     A.U. after   16 cycles
 Normal termination of Gaussian 16 at Fri Dec 11 00:32:15 2020.

 ----------------------------------------------------------------------
 # B3LYP/6-311++G(d,p) empiricaldispersion=gd3bj scf=xqc pop=npa geom=c
 heck
 ----------------------------------------------------------------------

 ------------------------------------
 CID_61938935_JID_6586_Energie_kation
 ------------------------------------
 Structure from the checkpoint file:  "JID_6586.chk"
 Charge =  1 Multiplicity = 2

 SCF Done:  E(UB3LYP) =  -731.642369991     A.U. after   25 cycles
 Normal termination of Gaussian 16 at Fri Dec 11 00:47:03 2020.
 Gaussian 16:  ES64L-G16RevA.03 25-Dec-2016

 ----------------------------------------------------------------------
 # B3LYP/6-311++G(d,p) empiricaldispersion=gd3bj scf=xqc pop=npa geom=c
 heck
 ----------------------------------------------------------------------

 -----------------------------------
 CID_61938935_JID_6586_Energie_anion
 -----------------------------------
 Structure from the checkpoint file:  "JID_6586.chk"
 Charge = -1 Multiplicity = 2

                         Standard orientation:
 ---------------------------------------------------------------------
 Center     Atomic      Atomic             Coordinates (Angstroms)
 Number     Number       Type             X           Y           Z
 ---------------------------------------------------------------------
      1          6           0        4.340252   -0.984632   -1.447775
      2          6           0        4.180288    0.115975   -0.390264
      3          6           0        4.767999    1.439181   -0.897222
      4          6           0        2.711182    0.320557    0.020864
      5          6           0        1.996267   -0.903866    0.606145
      6          6           0        2.599193   -1.385566    1.918575
      7          8           0        0.623569   -0.580130    0.882972
      8          6           0       -0.250668   -0.699716   -0.235345
      9          6           0       -1.637443   -0.154077    0.136109
     10          6           0       -1.625040    1.378047    0.345054
     11          8           0       -2.387337    2.114815   -0.274253
     12          7           0       -0.732336    1.827301    1.264821
     13          7           0       -2.591943   -0.520067   -0.903025
     14          6           0       -3.832319   -1.067048   -0.401450
     15          6           0       -4.812910   -0.235155    0.403264
     16          6           0       -5.127916   -0.639663   -1.021994
     17          1           0        3.736871   -0.759390   -2.336646
     18          1           0        4.031265   -1.966959   -1.074735
     19          1           0        5.385064   -1.067576   -1.767567
     20          1           0        4.750693   -0.181228    0.500994
     21          1           0        4.241110    1.779255   -1.797868
     22          1           0        4.682605    2.229305   -0.142199
     23          1           0        5.827969    1.328712   -1.152703
     24          1           0        2.653142    1.126188    0.766005
     25          1           0        2.151804    0.670580   -0.857467
     26          1           0        2.007021   -1.728467   -0.120608
     27          1           0        2.596056   -0.577181    2.658949
     28          1           0        2.014636   -2.219258    2.318101
     29          1           0        3.632082   -1.719062    1.779309
     30          1           0        0.140126   -0.158599   -1.109263
     31          1           0       -0.361998   -1.754917   -0.517278
     32          1           0       -1.924985   -0.615867    1.088868
     33          1           0        0.010620    1.201331    1.557881
     34          1           0       -0.606108    2.827461    1.341441
     35          1           0       -2.796729    0.329984   -1.427166
     36          1           0       -3.750139   -2.117999   -0.127512
     37          1           0       -5.364060   -0.710407    1.210690
     38          1           0       -4.551280    0.804953    0.571539
     39          1           0       -5.088143    0.138846   -1.780224
     40          1           0       -5.890842   -1.392053   -1.200626
 ---------------------------------------------------------------------

 SCF Done:  E(UB3LYP) =  -731.930972184     A.U. after   32 cycles

 The electronic state is 2-A.
 Alpha  occ. eigenvalues --  -19.04212 -19.00981 -14.24035 -14.21659 -10.18918
 Alpha  occ. eigenvalues --  -10.13405 -10.13262 -10.12448 -10.12230 -10.09506
 Alpha  occ. eigenvalues --  -10.08683 -10.08114 -10.07110 -10.06555 -10.06406
 Alpha  occ. eigenvalues --  -10.06162  -0.95971  -0.95165  -0.84066  -0.81920
 Alpha  occ. eigenvalues --   -0.75639  -0.72458  -0.68172  -0.63826  -0.59447
 Alpha  occ. eigenvalues --   -0.58940  -0.55986  -0.52560  -0.51648  -0.50760
 Alpha  occ. eigenvalues --   -0.48846  -0.46811  -0.45226  -0.43050  -0.41594
 Alpha  occ. eigenvalues --   -0.40804  -0.39109  -0.38813  -0.36659  -0.36039
 Alpha  occ. eigenvalues --   -0.35340  -0.34406  -0.33372  -0.31997  -0.31728
 Alpha  occ. eigenvalues --   -0.30983  -0.29842  -0.29515  -0.28924  -0.28641
 Alpha  occ. eigenvalues --   -0.27633  -0.27121  -0.26447  -0.24695  -0.24266
 Alpha  occ. eigenvalues --   -0.23581  -0.23134  -0.22690  -0.21669  -0.19334
 Alpha  occ. eigenvalues --   -0.18225  -0.17268  -0.14543   0.04079
 Alpha virt. eigenvalues --    0.05713   0.06476   0.06856   0.07559   0.07807
 Alpha virt. eigenvalues --    0.08189   0.08834   0.09142   0.09807   0.09881
 Alpha virt. eigenvalues --    0.09982   0.10477   0.11333   0.11943   0.12107

  Beta  occ. eigenvalues --  -19.04200 -19.00973 -14.24011 -14.21657 -10.18913
  Beta  occ. eigenvalues --  -10.13396 -10.13252 -10.12442 -10.12223 -10.09503
  Beta  occ. eigenvalues --  -10.08677 -10.08100 -10.07092 -10.06520 -10.06374
  Beta  occ. eigenvalues --  -10.06130  -0.95956  -0.95150  -0.84058  -0.81884
  Beta  occ. eigenvalues --   -0.75628  -0.72426  -0.68144  -0.63797  -0.59389
  Beta  occ. eigenvalues --   -0.58877  -0.55948  -0.52546  -0.51621  -0.50709
  Beta  occ. eigenvalues --   -0.48814  -0.46757  -0.45194  -0.43031  -0.41567
  Beta  occ. eigenvalues --   -0.40778  -0.39068  -0.38794  -0.36622  -0.36013
  Beta  occ. eigenvalues --   -0.35320  -0.34372  -0.33329  -0.31966  -0.31708
  Beta  occ. eigenvalues --   -0.30951  -0.29814  -0.29479  -0.28897  -0.28618
  Beta  occ. eigenvalues --   -0.27612  -0.27093  -0.26406  -0.24653  -0.24233
  Beta  occ. eigenvalues --   -0.23555  -0.23090  -0.22644  -0.21660  -0.19308
  Beta  occ. eigenvalues --   -0.18208  -0.17247  -0.14535
  Beta virt. eigenvalues --    0.05879   0.06450   0.07230   0.07271   0.08027
  Beta virt. eigenvalues --    0.08068   0.08369   0.09129   0.09420   0.09995
  Beta virt. eigenvalues --    0.10281   0.10373   0.10904   0.11639   0.12015

 Mulliken charges and spin densities:
               1          2
     1  C    0.735870  -1.450040
     2  C   -1.797752   2.043309
     3  C    1.033267  -1.657207
     4  C    1.255157  -1.259916
     5  C   -1.208830   0.981035
     6  C    0.963848  -1.536415
     7  O    0.034784   0.008744
     8  C   -0.216569  -0.100507
     9  C    0.246916  -0.701471
    10  C   -0.346956   0.371934
    11  O   -0.365747   0.009039
    12  N   -0.255764  -0.044931
    13  N    0.198273   0.006211
    14  C   -0.517083   0.231740
    15  C   -0.068537  -0.328381
    16  C    0.026277  -0.315689
    17  H   -0.063997   0.205825
    18  H   -0.152753   0.294569
    19  H   -0.266187   0.414774
    20  H   -0.148258   0.303176
    21  H   -0.072379   0.205991
    22  H   -0.397162   0.537675
    23  H   -0.249350   0.398301
    24  H    0.184876  -0.050116
    25  H    0.231069  -0.135786
    26  H    0.280049  -0.150066
    27  H   -0.344411   0.500299
    28  H   -0.272796   0.420240
    29  H   -0.142198   0.304575
    30  H    0.003453   0.151573
    31  H   -0.057989   0.281066
    32  H    0.036012   0.219780
    33  H    0.334389  -0.040027
    34  H   -0.138248   0.436033
    35  H    0.228901  -0.036786
    36  H   -0.125582   0.318507
    37  H    0.013351   0.120460
    38  H    0.179250   0.011455
    39  H    0.122325   0.011163
    40  H    0.100480   0.019865
 Sum of Mulliken charges =  -1.00000   1.00000

 Dipole moment (field-independent basis, Debye):
    X=             -7.6771    Y=             -0.8914    Z=             -1.7008  Tot=              7.9136
 Quadrupole moment (field-independent basis, Debye-Ang):
   XX=           -207.3038   YY=           -150.1637   ZZ=           -140.4974
   XY=              1.5488   XZ=              1.6508   YZ=              0.9700

 Summary of Natural Population Analysis:

                                       Natural Population
                Natural  -----------------------------------------------
    Atom  No    Charge         Core      Valence    Rydberg      Total
 -----------------------------------------------------------------------
      C    1   -0.28625      0.99965     2.28029    0.00631     3.28625
      C    2   -0.11555      0.99961     2.10677    0.00917     3.11555
      C    3   -0.28185      0.99965     2.27586    0.00634     3.28185
      C    4   -0.19928      0.99959     2.18944    0.01025     3.19928
      C    5    0.06979      0.99955     1.91837    0.01230     2.93021
      C    6   -0.29138      0.99963     2.28567    0.00607     3.29138
      O    7   -0.31730      0.99987     3.30715    0.01028     4.31730
      C    8   -0.00449      0.99955     1.99374    0.01119     3.00449
      C    9   -0.05870      0.99955     2.04638    0.01277     3.05870
      C   10    0.33594      0.99969     1.64071    0.02366     2.66406
      O   11   -0.33265      0.99988     3.32699    0.00579     4.33265
      N   12   -0.40059      0.99969     2.89299    0.00790     3.90059
      N   13   -0.34184      0.99972     2.82965    0.01247     3.84184
      C   14   -0.01444      0.99958     2.00067    0.01419     3.01444
      C   15   -0.21552      0.99962     2.20804    0.00785     3.21552
      C   16   -0.20207      0.99962     2.19555    0.00689     3.20207
      H   17    0.09538      0.00000     0.40368    0.00094     0.40462
      H   18    0.09911      0.00000     0.39982    0.00107     0.40089
      H   19    0.10153      0.00000     0.39747    0.00099     0.39847
      H   20    0.09505      0.00000     0.40276    0.00219     0.40495
      H   21    0.09483      0.00000     0.40415    0.00102     0.40517
      H   22    0.10136      0.00000     0.39731    0.00133     0.39864
      H   23    0.09967      0.00000     0.39928    0.00106     0.40033
      H   24    0.10075      0.00000     0.39740    0.00184     0.39925
      H   25    0.09639      0.00000     0.40195    0.00166     0.40361
      H   26    0.08129      0.00000     0.41623    0.00248     0.41871
      H   27    0.10117      0.00000     0.39727    0.00155     0.39883
      H   28    0.10437      0.00000     0.39432    0.00130     0.39563
      H   29    0.10311      0.00000     0.39567    0.00122     0.39689
      H   30    0.08313      0.00000     0.41493    0.00194     0.41687
      H   31    0.08941      0.00000     0.40881    0.00177     0.41059
      H   32    0.10844      0.00000     0.38952    0.00204     0.39156
      H   33    0.20879      0.00000     0.28808    0.00313     0.29121
      H   34    0.19432      0.00000     0.30338    0.00231     0.30568
      H   35    0.18689      0.00000     0.31039    0.00272     0.31311
      H   36    0.09683      0.00000     0.40207    0.00110     0.40317
      H   37    0.09975      0.00000     0.39927    0.00098     0.40025
      H   38    0.11186      0.00000     0.38712    0.00102     0.38814
      H   39    0.10206      0.00000     0.39702    0.00092     0.39794
      H   40    0.10069      0.00000     0.39847    0.00084     0.39931
 =======================================================================
   * Total *    0.00000     15.99446    46.80467    0.20086    63.00000

 Normal termination of Gaussian 16 at Fri Dec 11 01:05:22 2020.
