 Gaussian 16, Revision A.03,

 -----------------------------------------------------------
 # opt freq B3LYP/6-31G(d) empiricaldispersion=gd3bj scf=xqc
 -----------------------------------------------------------

 ------------------------------
 CID_60886452_JID_1204_neutraal
 ------------------------------
 Symbolic Z-matrix:
 Charge =  0 Multiplicity = 1

 SCF Done:  E(RB3LYP) =  -483.150216790     A.U. after   13 cycles
 SCF Done:  E(RB3LYP) =  -483.156343762     A.U. after   11 cycles
 SCF Done:  E(RB3LYP) =  -483.156716035     A.U. after   10 cycles
 SCF Done:  E(RB3LYP) =  -483.157335626     A.U. after   10 cycles
 SCF Done:  E(RB3LYP) =  -483.157637690     A.U. after   11 cycles
 SCF Done:  E(RB3LYP) =  -483.157802990     A.U. after   11 cycles
 SCF Done:  E(RB3LYP) =  -483.157849925     A.U. after   10 cycles
 SCF Done:  E(RB3LYP) =  -483.157878861     A.U. after   10 cycles
 SCF Done:  E(RB3LYP) =  -483.157884824     A.U. after    8 cycles
 SCF Done:  E(RB3LYP) =  -483.157885542     A.U. after    8 cycles
 SCF Done:  E(RB3LYP) =  -483.157886568     A.U. after    8 cycles
 SCF Done:  E(RB3LYP) =  -483.157886901     A.U. after    7 cycles
 SCF Done:  E(RB3LYP) =  -483.157887336     A.U. after    8 cycles
 SCF Done:  E(RB3LYP) =  -483.157887582     A.U. after    7 cycles
 SCF Done:  E(RB3LYP) =  -483.157887669     A.U. after    7 cycles
 SCF Done:  E(RB3LYP) =  -483.157887689     A.U. after    6 cycles
 Optimization completed.
    -- Stationary point found.
 Normal termination of Gaussian 16 at Tue Dec  8 19:27:06 2020.

 --------------------------------------------------------------------
 #N Geom=AllCheck Guess=TCheck SCRF=Check GenChk RB3LYP/6-31G(d) Freq
 --------------------------------------------------------------------

 Structure from the checkpoint file:  "JID_1204.chk"
 ------------------------------
 CID_60886452_JID_1204_neutraal
 ------------------------------
 Charge =  0 Multiplicity = 1

 SCF Done:  E(RB3LYP) =  -483.157887689     A.U. after    1 cycles

  Exact polarizability: 116.462  -3.039  94.159   0.539   0.567  87.263
 Approx polarizability: 138.324  -1.433 134.576  -2.201  -3.123 135.687

                      1                      2                      3
                      A                      A                      A
 Frequencies --     28.6398                38.3155                78.5915
 Red. masses --      2.5473                 2.1024                 2.3805
 Frc consts  --      0.0012                 0.0018                 0.0087
 IR Inten    --      0.0798                 0.4985                 0.3994

                      4                      5                      6
                      A                      A                      A
 Frequencies --    107.5518               144.1192               190.1451
 Red. masses --      3.8769                 3.2408                 3.4602
 Frc consts  --      0.0264                 0.0397                 0.0737
 IR Inten    --      0.6535                 2.5808                 2.3403

                      7                      8                      9
                      A                      A                      A
 Frequencies --    243.0819               281.2558               294.3445
 Red. masses --      2.7009                 2.5250                 1.2982
 Frc consts  --      0.0940                 0.1177                 0.0663
 IR Inten    --      0.9763                24.0855                75.2879

                     10                     11                     12
                      A                      A                      A
 Frequencies --    340.6740               374.2388               402.7959
 Red. masses --      2.4345                 1.9548                 2.6740
 Frc consts  --      0.1665                 0.1613                 0.2556
 IR Inten    --     11.7687                 2.9154                 9.8144

                     13                     14                     15
                      A                      A                      A
 Frequencies --    506.1857               523.4302               641.8889
 Red. masses --      3.0439                 3.2806                 2.4375
 Frc consts  --      0.4595                 0.5296                 0.5917
 IR Inten    --      5.9985                 2.1136                16.3145

                     16                     17                     18
                      A                      A                      A
 Frequencies --    683.2008               731.7278               771.4172
 Red. masses --      1.5546                 2.3199                 1.3503
 Frc consts  --      0.4275                 0.7319                 0.4734
 IR Inten    --     95.5143                11.9078                 7.8735

                     19                     20                     21
                      A                      A                      A
 Frequencies --    783.4566               813.4618               841.6663
 Red. masses --      1.2468                 1.3037                 2.2696
 Frc consts  --      0.4509                 0.5083                 0.9473
 IR Inten    --      2.3989                 7.0023                12.6427

                     22                     23                     24
                      A                      A                      A
 Frequencies --    851.3413               878.3704               894.9506
 Red. masses --      2.4401                 2.0174                 2.2412
 Frc consts  --      1.0420                 0.9171                 1.0576
 IR Inten    --     12.5228                 6.3119                 2.6619

                     25                     26                     27
                      A                      A                      A
 Frequencies --    905.9922               949.0303               956.1615
 Red. masses --      1.9879                 2.0769                 2.3948
 Frc consts  --      0.9614                 1.1021                 1.2900
 IR Inten    --      5.6410                26.1839                10.1630

                     28                     29                     30
                      A                      A                      A
 Frequencies --    987.7781              1012.1508              1042.4153
 Red. masses --      1.8616                 2.2190                 2.4534
 Frc consts  --      1.0702                 1.3394                 1.5707
 IR Inten    --      8.1993                 7.0126                25.0070

                     31                     32                     33
                      A                      A                      A
 Frequencies --   1044.7162              1061.5500              1083.8273
 Red. masses --      2.2548                 1.3466                 1.3778
 Frc consts  --      1.4499                 0.8941                 0.9536
 IR Inten    --      6.5721                12.1881                 2.8529

                     34                     35                     36
                      A                      A                      A
 Frequencies --   1089.8698              1121.7851              1143.4370
 Red. masses --      1.9945                 2.2614                 1.1347
 Frc consts  --      1.3958                 1.6766                 0.8741
 IR Inten    --      5.3186                 8.2092                 1.5354

                     37                     38                     39
                      A                      A                      A
 Frequencies --   1157.2394              1184.1504              1205.7525
 Red. masses --      1.4278                 1.5521                 1.8066
 Frc consts  --      1.1266                 1.2822                 1.5475
 IR Inten    --     49.4909                38.1154                21.6413

                     40                     41                     42
                      A                      A                      A
 Frequencies --   1214.2808              1223.4830              1238.3100
 Red. masses --      1.5150                 1.7262                 1.8659
 Frc consts  --      1.3162                 1.5225                 1.6858
 IR Inten    --      4.0935                34.6624                10.0172

                     43                     44                     45
                      A                      A                      A
 Frequencies --   1254.0707              1264.5662              1296.5649
 Red. masses --      1.5155                 1.3207                 1.3135
 Frc consts  --      1.4043                 1.2444                 1.3010
 IR Inten    --      4.5274                 7.9558                 0.1609

                     46                     47                     48
                      A                      A                      A
 Frequencies --   1307.0931              1326.6861              1341.1107
 Red. masses --      1.4004                 1.4467                 1.3295
 Frc consts  --      1.4097                 1.5003                 1.4088
 IR Inten    --      2.7750                 1.6909                 3.5991

                     49                     50                     51
                      A                      A                      A
 Frequencies --   1350.4817              1359.5945              1386.9493
 Red. masses --      1.3897                 1.4674                 1.3008
 Frc consts  --      1.4933                 1.5982                 1.4743
 IR Inten    --      0.1831                 0.9793                11.3895

                     52                     53                     54
                      A                      A                      A
 Frequencies --   1399.2358              1437.4852              1444.3032
 Red. masses --      1.3490                 1.4574                 1.2214
 Frc consts  --      1.5561                 1.7743                 1.5011
 IR Inten    --      6.1020                11.5009                50.2962

                     55                     56                     57
                      A                      A                      A
 Frequencies --   1492.5590              1500.9224              1512.7382
 Red. masses --      1.0864                 1.0938                 1.0814
 Frc consts  --      1.4259                 1.4517                 1.4581
 IR Inten    --      0.6567                 5.1387                 1.0545

                     58                     59                     60
                      A                      A                      A
 Frequencies --   1522.7448              1529.2627              1537.5676
 Red. masses --      1.2252                 1.1351                 1.3352
 Frc consts  --      1.6738                 1.5640                 1.8599
 IR Inten    --     28.7758                20.4432                 4.3395

                     61                     62                     63
                      A                      A                      A
 Frequencies --   1546.1323              3012.7187              3016.6594
 Red. masses --      1.0988                 1.0713                 1.0725
 Frc consts  --      1.5476                 5.7288                 5.7503
 IR Inten    --      4.0001                15.7001                46.6368

                     64                     65                     66
                      A                      A                      A
 Frequencies --   3037.7515              3055.8546              3061.9967
 Red. masses --      1.0752                 1.1022                 1.0614
 Frc consts  --      5.8457                 6.0641                 5.8632
 IR Inten    --     39.5681                40.2859                26.2719

                     67                     68                     69
                      A                      A                      A
 Frequencies --   3071.3395              3095.1439              3115.3327
 Red. masses --      1.0644                 1.1027                 1.1034
 Frc consts  --      5.9158                 6.2242                 6.3097
 IR Inten    --     41.9639                10.2737                35.7010

                     70                     71                     72
                      A                      A                      A
 Frequencies --   3123.7263              3134.4244              3138.6233
 Red. masses --      1.0891                 1.0535                 1.0722
 Frc consts  --      6.2614                 6.0984                 6.2228
 IR Inten    --     42.0154                23.5455                30.0039

                     73                     74                     75
                      A                      A                      A
 Frequencies --   3142.7776              3154.4832              3209.5866
 Red. masses --      1.0729                 1.0913                 1.1185
 Frc consts  --      6.2436                 6.3981                 6.7887
 IR Inten    --      6.1489                21.7050                 1.0697

                     76                     77                     78
                      A                      A                      A
 Frequencies --   3224.8761              3534.4710              3738.9654
 Red. masses --      1.1155                 1.0735                 1.0658
 Frc consts  --      6.8354                 7.9015                 8.7785
 IR Inten    --     27.1254                 3.7946                 6.9543

 - Thermochemistry -
 -------------------
 Temperature   298.150 Kelvin.  Pressure   1.00000 Atm.
 Atom     1 has atomic number  6 and mass  12.00000

 Molecular mass:   155.13101 amu.
 Principal axes and moments of inertia in atomic units:
                           1         2         3
     Eigenvalues --   817.083002974.380183453.18578
           X            0.99993  -0.01162   0.00245
           Y            0.01159   0.99985   0.01277
           Z           -0.00259  -0.01274   0.99992
 This molecule is an asymmetric top.
 Rotational symmetry number  1.
 Warning -- assumption of classical behavior for rotation
           may cause significant error
 Rotational temperatures (Kelvin)      0.10600     0.02912     0.02508
 Rotational constants (GHZ):           2.20876     0.60676     0.52263
 Zero-point vibrational energy     668387.0 (Joules/Mol)
                                  159.74833 (Kcal/Mol)
 Warning -- explicit consideration of  14 degrees of freedom as
           vibrations may cause significant error
 Vibrational temperatures:     41.21    55.13   113.08   154.74   207.36
          (Kelvin)            273.58   349.74   404.66   423.50   490.15
                              538.45   579.53   728.29   753.10   923.53
                              982.97  1052.79  1109.90  1127.22  1170.39
                             1210.97  1224.89  1263.78  1287.63  1303.52
                             1365.44  1375.70  1421.19  1456.26  1499.80
                             1503.11  1527.33  1559.39  1568.08  1614.00
                             1645.15  1665.01  1703.73  1734.81  1747.08
                             1760.32  1781.65  1804.33  1819.43  1865.47
                             1880.62  1908.81  1929.56  1943.04  1956.15
                             1995.51  2013.19  2068.22  2078.03  2147.46
                             2159.49  2176.49  2190.89  2200.27  2212.22
                             2224.54  4334.63  4340.30  4370.65  4396.69
                             4405.53  4418.97  4453.22  4482.27  4494.35
                             4509.74  4515.78  4521.76  4538.60  4617.88
                             4639.88  5085.32  5379.54

 Zero-point correction=                           0.254575 (Hartree/Particle)
 Thermal correction to Energy=                    0.266179
 Thermal correction to Enthalpy=                  0.267124
 Thermal correction to Gibbs Free Energy=         0.215749
 Sum of electronic and zero-point Energies=           -482.903313
 Sum of electronic and thermal Energies=              -482.891708
 Sum of electronic and thermal Enthalpies=            -482.890764
 Sum of electronic and thermal Free Energies=         -482.942138

                     E (Thermal)             CV                S
                      KCal/Mol        Cal/Mol-Kelvin    Cal/Mol-Kelvin
 Total                  167.030             43.987            108.126
 Electronic               0.000              0.000              0.000
 Translational            0.889              2.981             41.027
 Rotational               0.889              2.981             30.507
 Vibrational            165.253             38.026             36.592
 Vibration     1          0.593              1.984              5.921
 Vibration     2          0.594              1.982              5.344
 Vibration     3          0.600              1.964              3.926
 Vibration     4          0.606              1.943              3.313
 Vibration     5          0.616              1.909              2.748
 Vibration     6          0.633              1.853              2.226
 Vibration     7          0.659              1.774              1.780
 Vibration     8          0.681              1.708              1.526
 Vibration     9          0.689              1.684              1.449
 Vibration    10          0.720              1.594              1.209
 Vibration    11          0.745              1.525              1.062
 Vibration    12          0.768              1.464              0.952
 Vibration    13          0.861              1.236              0.643
 Vibration    14          0.878              1.198              0.602

 Optimization completed.
    -- Stationary point found.
 Normal termination of Gaussian 16 at Tue Dec  8 19:32:55 2020.

 ----------------------------------------------------------------------
 # B3LYP/6-311++G(d,p) empiricaldispersion=gd3bj scf=xqc pop=npa geom=c
 heck
 ----------------------------------------------------------------------

 --------------------------------------
 CID_60886452_JID_1204_Energie_neutraal
 --------------------------------------
 Structure from the checkpoint file:  "JID_1204.chk"
 Charge =  0 Multiplicity = 1

 SCF Done:  E(RB3LYP) =  -483.305568738     A.U. after   14 cycles
 Normal termination of Gaussian 16 at Tue Dec  8 19:35:35 2020.

 ----------------------------------------------------------------------
 # B3LYP/6-311++G(d,p) empiricaldispersion=gd3bj scf=xqc pop=npa geom=c
 heck
 ----------------------------------------------------------------------

 ------------------------------------
 CID_60886452_JID_1204_Energie_kation
 ------------------------------------
 Structure from the checkpoint file:  "JID_1204.chk"
 Charge =  1 Multiplicity = 2

 SCF Done:  E(UB3LYP) =  -483.016143097     A.U. after   18 cycles
 Normal termination of Gaussian 16 at Tue Dec  8 19:40:25 2020.
 Gaussian 16:  ES64L-G16RevA.03 25-Dec-2016

 ----------------------------------------------------------------------
 # B3LYP/6-311++G(d,p) empiricaldispersion=gd3bj scf=xqc pop=npa geom=c
 heck
 ----------------------------------------------------------------------

 -----------------------------------
 CID_60886452_JID_1204_Energie_anion
 -----------------------------------
 Structure from the checkpoint file:  "JID_1204.chk"
 Charge = -1 Multiplicity = 2

                         Standard orientation:
 ---------------------------------------------------------------------
 Center     Atomic      Atomic             Coordinates (Angstroms)
 Number     Number       Type             X           Y           Z
 ---------------------------------------------------------------------
      1          6           0       -2.009169    1.720606    0.117161
      2          6           0       -0.637279    1.046727    0.376933
      3          6           0       -0.653939   -0.237621   -0.497035
      4          6           0       -2.124009   -0.689441   -0.371852
      5          6           0       -2.919268    0.613977   -0.501799
      6          8           0       -2.345749   -1.337780    0.889472
      7          7           0        0.236770   -1.335484   -0.196185
      8          6           0        1.665386   -1.179604   -0.407989
      9          6           0        2.422312   -0.167586    0.444849
     10          6           0        3.836429    0.190675    0.058614
     11          6           0        2.735127    1.212261   -0.077897
     12          1           0       -2.435345    2.134887    1.036962
     13          1           0       -1.905748    2.560269   -0.577307
     14          1           0       -0.532709    0.755439    1.431157
     15          1           0        0.205138    1.700999    0.151166
     16          1           0       -0.480531    0.056729   -1.543375
     17          1           0       -2.382405   -1.440824   -1.121150
     18          1           0       -3.109542    0.823303   -1.560371
     19          1           0       -3.894512    0.527155   -0.012233
     20          1           0       -2.354586   -0.650152    1.573544
     21          1           0        0.014813   -1.716490    0.719045
     22          1           0        2.116631   -2.169360   -0.254972
     23          1           0        1.826825   -0.931204   -1.467641
     24          1           0        2.222768   -0.245104    1.513264
     25          1           0        4.574484    0.325133    0.844262
     26          1           0        4.235393   -0.249897   -0.852514
     27          1           0        2.395236    1.459131   -1.081526
     28          1           0        2.719154    2.050639    0.613305
 ---------------------------------------------------------------------

 SCF Done:  E(UB3LYP) =  -483.289355693     A.U. after   29 cycles

 The electronic state is 2-A.
 Alpha  occ. eigenvalues --  -19.01475 -14.18575 -10.10829 -10.09280 -10.08575
 Alpha  occ. eigenvalues --  -10.07225 -10.07020 -10.06718 -10.05770 -10.05466
 Alpha  occ. eigenvalues --  -10.04902  -0.91729  -0.80144  -0.75370  -0.70742
 Alpha  occ. eigenvalues --   -0.61149  -0.59806  -0.55420  -0.50101  -0.47772
 Alpha  occ. eigenvalues --   -0.47285  -0.46326  -0.40906  -0.39719  -0.37219
 Alpha  occ. eigenvalues --   -0.36960  -0.34964  -0.34653  -0.31818  -0.29984
 Alpha  occ. eigenvalues --   -0.28231  -0.27591  -0.26830  -0.26121  -0.24600
 Alpha  occ. eigenvalues --   -0.24276  -0.23305  -0.21969  -0.20969  -0.19778
 Alpha  occ. eigenvalues --   -0.18467  -0.16919  -0.11034   0.04826
 Alpha virt. eigenvalues --    0.06962   0.07214   0.08339   0.08922   0.09311
 Alpha virt. eigenvalues --    0.09942   0.10479   0.11071   0.11547   0.11817
 Alpha virt. eigenvalues --    0.12596   0.13206   0.13546   0.14687   0.15266

  Beta  occ. eigenvalues --  -19.01439 -14.18567 -10.10824 -10.09273 -10.08567
  Beta  occ. eigenvalues --  -10.07216 -10.07004 -10.06691 -10.05750 -10.05426
  Beta  occ. eigenvalues --  -10.04879  -0.91651  -0.80125  -0.75347  -0.70702
  Beta  occ. eigenvalues --   -0.61112  -0.59749  -0.55375  -0.50033  -0.47709
  Beta  occ. eigenvalues --   -0.47242  -0.46244  -0.40856  -0.39682  -0.37180
  Beta  occ. eigenvalues --   -0.36906  -0.34906  -0.34609  -0.31786  -0.29947
  Beta  occ. eigenvalues --   -0.28194  -0.27550  -0.26799  -0.26092  -0.24563
  Beta  occ. eigenvalues --   -0.24237  -0.23254  -0.21925  -0.20924  -0.19749
  Beta  occ. eigenvalues --   -0.18441  -0.16887  -0.11018
  Beta virt. eigenvalues --    0.07137   0.07769   0.08107   0.08740   0.09467
  Beta virt. eigenvalues --    0.09777   0.10382   0.11034   0.11444   0.11882
  Beta virt. eigenvalues --    0.12208   0.13031   0.13591   0.13711   0.14996

 Mulliken charges and spin densities:
               1          2
     1  C    1.425003  -1.948901
     2  C    0.334327  -0.432936
     3  C   -1.765130   1.178779
     4  C    0.027686  -0.014868
     5  C    0.055853  -0.568091
     6  O   -0.150086  -0.082378
     7  N    0.118650  -0.039057
     8  C    1.018283  -1.649798
     9  C   -1.615373   2.146106
    10  C    0.616304  -1.101670
    11  C    0.763406  -1.243222
    12  H   -0.424772   0.581098
    13  H   -0.498630   0.662577
    14  H   -0.249493   0.441021
    15  H    0.322946  -0.169830
    16  H   -0.091449   0.246122
    17  H    0.018886   0.201928
    18  H   -0.031173   0.156383
    19  H   -0.131822   0.318233
    20  H    0.003604   0.241057
    21  H    0.241193  -0.000172
    22  H    0.116121   0.034781
    23  H   -0.158059   0.315138
    24  H   -0.313222   0.523648
    25  H   -0.252333   0.402742
    26  H    0.036033   0.074744
    27  H   -0.219485   0.377099
    28  H   -0.197268   0.349468
 Sum of Mulliken charges =  -1.00000   1.00000

 Dipole moment (field-independent basis, Debye):
    X=              1.0306    Y=             -3.7312    Z=             -1.9197  Tot=              4.3208
 Quadrupole moment (field-independent basis, Debye-Ang):
   XX=           -132.3557   YY=           -111.4143   ZZ=           -103.7038
   XY=             -2.2865   XZ=              1.2304   YZ=             -0.8576

 Summary of Natural Population Analysis:

                                       Natural Population
                Natural  -----------------------------------------------
    Atom  No    Charge         Core      Valence    Rydberg      Total
 -----------------------------------------------------------------------
      C    1   -0.19712      0.99965     2.18911    0.00836     3.19712
      C    2   -0.20674      0.99962     2.19673    0.01039     3.20674
      C    3   -0.01763      0.99956     2.00461    0.01346     3.01763
      C    4    0.06553      0.99953     1.91971    0.01523     2.93447
      C    5   -0.20709      0.99962     2.19893    0.00853     3.20709
      O    6   -0.37704      0.99990     3.37034    0.00680     4.37704
      N    7   -0.34112      0.99972     2.82970    0.01169     3.84112
      C    8   -0.08111      0.99960     2.07045    0.01106     3.08111
      C    9   -0.12673      0.99959     2.11581    0.01133     3.12673
      C   10   -0.20026      0.99962     2.19269    0.00794     3.20026
      C   11   -0.19975      0.99962     2.18993    0.01020     3.19975
      H   12    0.10114      0.00000     0.39656    0.00230     0.39886
      H   13    0.10061      0.00000     0.39761    0.00178     0.39939
      H   14    0.09427      0.00000     0.40329    0.00244     0.40573
      H   15    0.10750      0.00000     0.39054    0.00196     0.39250
      H   16    0.09271      0.00000     0.40579    0.00150     0.40729
      H   17    0.08962      0.00000     0.40910    0.00128     0.41038
      H   18    0.10176      0.00000     0.39700    0.00124     0.39824
      H   19    0.10306      0.00000     0.39583    0.00111     0.39694
      H   20    0.22992      0.00000     0.26621    0.00388     0.27008
      H   21    0.17971      0.00000     0.31733    0.00296     0.32029
      H   22    0.09128      0.00000     0.40766    0.00106     0.40872
      H   23    0.08814      0.00000     0.41036    0.00150     0.41186
      H   24    0.10244      0.00000     0.39604    0.00152     0.39756
      H   25    0.10241      0.00000     0.39653    0.00107     0.39759
      H   26    0.09760      0.00000     0.40142    0.00098     0.40240
      H   27    0.10135      0.00000     0.39729    0.00137     0.39865
      H   28    0.10554      0.00000     0.39298    0.00148     0.39446
 =======================================================================
   * Total *   -0.00000     10.99603    31.85956    0.14441    43.00000

 Normal termination of Gaussian 16 at Tue Dec  8 19:48:08 2020.
