 Gaussian 16, Revision A.03,

 -----------------------------------------------------------
 # opt freq B3LYP/6-31G(d) empiricaldispersion=gd3bj scf=xqc
 -----------------------------------------------------------

 ------------------------------
 CID_88356190_JID_1274_neutraal
 ------------------------------
 Symbolic Z-matrix:
 Charge =  0 Multiplicity = 1

 SCF Done:  E(RB3LYP) =  -588.222770015     A.U. after   12 cycles
 SCF Done:  E(RB3LYP) =  -588.229727162     A.U. after   11 cycles
 SCF Done:  E(RB3LYP) =  -588.231735364     A.U. after   11 cycles
 SCF Done:  E(RB3LYP) =  -588.233348520     A.U. after   11 cycles
 SCF Done:  E(RB3LYP) =  -588.234277883     A.U. after   10 cycles
 SCF Done:  E(RB3LYP) =  -588.234664680     A.U. after   11 cycles
 SCF Done:  E(RB3LYP) =  -588.234796811     A.U. after   10 cycles
 SCF Done:  E(RB3LYP) =  -588.234828683     A.U. after    9 cycles
 SCF Done:  E(RB3LYP) =  -588.234901467     A.U. after   10 cycles
 SCF Done:  E(RB3LYP) =  -588.234911212     A.U. after    9 cycles
 SCF Done:  E(RB3LYP) =  -588.234914246     A.U. after    8 cycles
 SCF Done:  E(RB3LYP) =  -588.234915597     A.U. after    7 cycles
 SCF Done:  E(RB3LYP) =  -588.234916072     A.U. after    7 cycles
 SCF Done:  E(RB3LYP) =  -588.234916331     A.U. after    7 cycles
 Optimization completed.
    -- Stationary point found.
 Normal termination of Gaussian 16 at Tue Dec  8 19:35:43 2020.

 --------------------------------------------------------------------
 #N Geom=AllCheck Guess=TCheck SCRF=Check GenChk RB3LYP/6-31G(d) Freq
 --------------------------------------------------------------------

 Structure from the checkpoint file:  "JID_1274.chk"
 ------------------------------
 CID_88356190_JID_1274_neutraal
 ------------------------------
 Charge =  0 Multiplicity = 1

 SCF Done:  E(RB3LYP) =  -588.234916331     A.U. after    1 cycles

  Exact polarizability:  89.429  -1.438  77.811   1.222  -0.124  75.500
 Approx polarizability: 115.734  -3.325 113.197   2.432   0.358 115.096

                      1                      2                      3
                      A                      A                      A
 Frequencies --     41.8241                82.4748               144.1415
 Red. masses --      4.6140                 5.0457                 1.9427
 Frc consts  --      0.0048                 0.0202                 0.0238
 IR Inten    --      1.0862                 0.0196                72.3508

                      4                      5                      6
                      A                      A                      A
 Frequencies --    159.7176               188.8176               239.3141
 Red. masses --      1.8210                 3.6430                 4.2499
 Frc consts  --      0.0274                 0.0765                 0.1434
 IR Inten    --     59.8695                13.2996                 0.3374

                      7                      8                      9
                      A                      A                      A
 Frequencies --    280.0810               303.1167               350.3507
 Red. masses --      1.1563                 2.9526                 1.6674
 Frc consts  --      0.0534                 0.1598                 0.1206
 IR Inten    --     30.8510                 8.1966                36.1895

                     10                     11                     12
                      A                      A                      A
 Frequencies --    373.1161               404.5960               454.4084
 Red. masses --      2.0387                 1.9637                 2.5072
 Frc consts  --      0.1672                 0.1894                 0.3050
 IR Inten    --      6.2002                28.3550                49.3427

                     13                     14                     15
                      A                      A                      A
 Frequencies --    501.4853               508.8435               527.9193
 Red. masses --      3.7285                 2.4104                 3.2504
 Frc consts  --      0.5525                 0.3677                 0.5337
 IR Inten    --     16.6586                 8.2722                21.0249

                     16                     17                     18
                      A                      A                      A
 Frequencies --    549.4730               565.7347               649.2318
 Red. masses --      2.9585                 2.9522                 4.7896
 Frc consts  --      0.5263                 0.5567                 1.1895
 IR Inten    --      8.1619                38.2352                26.3109

                     19                     20                     21
                      A                      A                      A
 Frequencies --    700.8107               781.1109               804.4723
 Red. masses --      1.7620                 3.1635                 3.6063
 Frc consts  --      0.5099                 1.1372                 1.3751
 IR Inten    --     44.2347                38.3314                 4.2423

                     22                     23                     24
                      A                      A                      A
 Frequencies --    842.8329               849.9783               900.7917
 Red. masses --      2.1790                 4.2964                 2.2428
 Frc consts  --      0.9120                 1.8288                 1.0723
 IR Inten    --     73.7780                 2.6820                 4.6303

                     25                     26                     27
                      A                      A                      A
 Frequencies --    923.4614               951.5180               984.5174
 Red. masses --      2.2832                 1.9909                 1.9389
 Frc consts  --      1.1472                 1.0620                 1.1073
 IR Inten    --      6.5182                78.8841                96.5613

                     28                     29                     30
                      A                      A                      A
 Frequencies --   1013.1870              1033.4419              1072.8470
 Red. masses --      2.4272                 2.1446                 2.2752
 Frc consts  --      1.4681                 1.3495                 1.5429
 IR Inten    --     58.7233                69.5313               124.9799

                     31                     32                     33
                      A                      A                      A
 Frequencies --   1076.9524              1097.8610              1111.3752
 Red. masses --      3.1503                 1.9817                 2.1900
 Frc consts  --      2.1527                 1.4073                 1.5937
 IR Inten    --     20.6090                33.7325                65.6335

                     34                     35                     36
                      A                      A                      A
 Frequencies --   1147.9834              1171.8817              1198.7262
 Red. masses --      1.8579                 2.6150                 1.7963
 Frc consts  --      1.4426                 2.1158                 1.5208
 IR Inten    --     62.4115                63.8318                85.0416

                     37                     38                     39
                      A                      A                      A
 Frequencies --   1247.7687              1253.9578              1269.0094
 Red. masses --      1.2586                 1.2739                 1.1859
 Frc consts  --      1.1545                 1.1801                 1.1252
 IR Inten    --     34.2108                15.6798                24.8863

                     40                     41                     42
                      A                      A                      A
 Frequencies --   1309.2353              1333.7176              1372.8284
 Red. masses --      1.4654                 1.2552                 1.3379
 Frc consts  --      1.4800                 1.3155                 1.4856
 IR Inten    --      8.9598                23.2189                12.4216

                     43                     44                     45
                      A                      A                      A
 Frequencies --   1387.0954              1393.0501              1405.6685
 Red. masses --      1.6178                 1.3749                 1.4924
 Frc consts  --      1.8339                 1.5720                 1.7374
 IR Inten    --     84.2831                17.2811                21.4487

                     46                     47                     48
                      A                      A                      A
 Frequencies --   1425.1200              1456.3882              1463.0573
 Red. masses --      1.5006                 1.8398                 1.1367
 Frc consts  --      1.7956                 2.2992                 1.4336
 IR Inten    --     18.0021               148.1963                17.2028

                     49                     50                     51
                      A                      A                      A
 Frequencies --   1497.7960              1506.2387              1512.0873
 Red. masses --      1.0955                 1.1815                 1.0926
 Frc consts  --      1.4480                 1.5793                 1.4718
 IR Inten    --      2.6715                 0.4140                 5.8843

                     52                     53                     54
                      A                      A                      A
 Frequencies --   1513.4224              1533.5830              3040.0303
 Red. masses --      1.0952                 1.2006                 1.0640
 Frc consts  --      1.4779                 1.6637                 5.7934
 IR Inten    --      2.8688                16.8294                13.1135

                     55                     56                     57
                      A                      A                      A
 Frequencies --   3050.5734              3057.0614              3081.1853
 Red. masses --      1.0708                 1.0755                 1.0714
 Frc consts  --      5.8709                 5.9219                 5.9927
 IR Inten    --     29.9684                40.4827                30.0256

                     58                     59                     60
                      A                      A                      A
 Frequencies --   3090.9644              3111.6508              3162.7615
 Red. masses --      1.0980                 1.1014                 1.0967
 Frc consts  --      6.1807                 6.2831                 6.4634
 IR Inten    --     39.7826                26.1079                14.2012

                     61                     62                     63
                      A                      A                      A
 Frequencies --   3305.0665              3338.9016              3533.2603
 Red. masses --      1.0717                 1.0733                 1.0762
 Frc consts  --      6.8974                 7.0499                 7.9159
 IR Inten    --     48.7228                13.1707                 1.0267

                     64                     65                     66
                      A                      A                      A
 Frequencies --   3715.6323              3749.8704              3756.1659
 Red. masses --      1.0646                 1.0663                 1.0646
 Frc consts  --      8.6600                 8.8341                 8.8497
 IR Inten    --     34.7297                32.9855                46.5554

 - Thermochemistry -
 -------------------
 Temperature   298.150 Kelvin.  Pressure   1.00000 Atm.
 Atom     1 has atomic number  6 and mass  12.00000

 Molecular mass:   163.09569 amu.
 Principal axes and moments of inertia in atomic units:
                           1         2         3
     Eigenvalues --   834.445442645.002962826.35899
           X            1.00000   0.00250  -0.00155
           Y           -0.00251   0.99997  -0.00780
           Z            0.00153   0.00781   0.99997
 This molecule is an asymmetric top.
 Rotational symmetry number  1.
 Warning -- assumption of classical behavior for rotation
           may cause significant error
 Rotational temperatures (Kelvin)      0.10380     0.03275     0.03065
 Rotational constants (GHZ):           2.16280     0.68232     0.63854
 Zero-point vibrational energy     543472.7 (Joules/Mol)
                                  129.89310 (Kcal/Mol)
 Warning -- explicit consideration of  17 degrees of freedom as
           vibrations may cause significant error
 Vibrational temperatures:     60.18   118.66   207.39   229.80   271.67
          (Kelvin)            344.32   402.97   436.12   504.08   536.83
                              582.12   653.79   721.53   732.11   759.56
                              790.57   813.97   934.10  1008.31  1123.84
                             1157.46  1212.65  1222.93  1296.04  1328.66
                             1369.02  1416.50  1457.75  1486.89  1543.59
                             1549.49  1579.58  1599.02  1651.69  1686.08
                             1724.70  1795.26  1804.17  1825.82  1883.70
                             1918.92  1975.19  1995.72  2004.29  2022.44
                             2050.43  2095.42  2105.01  2154.99  2167.14
                             2175.56  2177.48  2206.48  4373.93  4389.09
                             4398.43  4433.14  4447.21  4476.97  4550.51
                             4755.25  4803.93  5083.57  5345.97  5395.23
                             5404.28

 Zero-point correction=                           0.206998 (Hartree/Particle)
 Thermal correction to Energy=                    0.218039
 Thermal correction to Enthalpy=                  0.218983
 Thermal correction to Gibbs Free Energy=         0.170331
 Sum of electronic and zero-point Energies=           -588.027919
 Sum of electronic and thermal Energies=              -588.016878
 Sum of electronic and thermal Enthalpies=            -588.015934
 Sum of electronic and thermal Free Energies=         -588.064585

                     E (Thermal)             CV                S
                      KCal/Mol        Cal/Mol-Kelvin    Cal/Mol-Kelvin
 Total                  136.821             42.964            102.395
 Electronic               0.000              0.000              0.000
 Translational            0.889              2.981             41.176
 Rotational               0.889              2.981             30.213
 Vibrational            135.044             37.002             31.007
 Vibration     1          0.594              1.980              5.171
 Vibration     2          0.600              1.961              3.831
 Vibration     3          0.616              1.909              2.748
 Vibration     4          0.622              1.892              2.553
 Vibration     5          0.633              1.855              2.239
 Vibration     6          0.657              1.780              1.808
 Vibration     7          0.680              1.710              1.533
 Vibration     8          0.695              1.668              1.400
 Vibration     9          0.727              1.575              1.165
 Vibration    10          0.745              1.527              1.067
 Vibration    11          0.770              1.460              0.946
 Vibration    12          0.813              1.351              0.783
 Vibration    13          0.857              1.247              0.654
 Vibration    14          0.864              1.230              0.636
 Vibration    15          0.883              1.188              0.592
 Vibration    16          0.905              1.141              0.545
 Vibration    17          0.922              1.105              0.513

                           ! Non-Optimized Parameters !
 Normal termination of Gaussian 16 at Tue Dec  8 19:40:25 2020.

 ----------------------------------------------------------------------
 # B3LYP/6-311++G(d,p) empiricaldispersion=gd3bj scf=xqc pop=npa geom=c
 heck
 ----------------------------------------------------------------------

 --------------------------------------
 CID_88356190_JID_1274_Energie_neutraal
 --------------------------------------
 Structure from the checkpoint file:  "JID_1274.chk"
 Charge =  0 Multiplicity = 1

 SCF Done:  E(RB3LYP) =  -588.442873715     A.U. after   13 cycles
 Normal termination of Gaussian 16 at Tue Dec  8 19:41:56 2020.

 ----------------------------------------------------------------------
 # B3LYP/6-311++G(d,p) empiricaldispersion=gd3bj scf=xqc pop=npa geom=c
 heck
 ----------------------------------------------------------------------

 ------------------------------------
 CID_88356190_JID_1274_Energie_kation
 ------------------------------------
 Structure from the checkpoint file:  "JID_1274.chk"
 Charge =  1 Multiplicity = 2

 SCF Done:  E(UB3LYP) =  -588.139751982     A.U. after   24 cycles
 Normal termination of Gaussian 16 at Tue Dec  8 19:45:28 2020.
 Gaussian 16:  ES64L-G16RevA.03 25-Dec-2016

 ----------------------------------------------------------------------
 # B3LYP/6-311++G(d,p) empiricaldispersion=gd3bj scf=xqc pop=npa geom=c
 heck
 ----------------------------------------------------------------------

 -----------------------------------
 CID_88356190_JID_1274_Energie_anion
 -----------------------------------
 Structure from the checkpoint file:  "JID_1274.chk"
 Charge = -1 Multiplicity = 2

                         Standard orientation:
 ---------------------------------------------------------------------
 Center     Atomic      Atomic             Coordinates (Angstroms)
 Number     Number       Type             X           Y           Z
 ---------------------------------------------------------------------
      1          6           0       -0.879810    0.862429    0.982159
      2          6           0       -0.489424   -0.620875    0.781811
      3          6           0       -1.762021   -1.399452    0.366358
      4          7           0       -2.497575   -0.758994   -0.732077
      5          7           0       -2.794015    0.579748   -0.315054
      6          7           0       -1.647207    1.417448   -0.136461
      7          6           0        0.627691   -0.882753   -0.248750
      8          6           0        1.882003   -0.010632   -0.137155
      9          8           0        2.297344    0.200882    1.185221
     10          8           0        2.995385   -0.613105   -0.776536
     11          8           0        1.583987    1.228285   -0.712239
     12          1           0       -0.000710    1.486514    1.142635
     13          1           0       -1.521393    0.936594    1.866764
     14          1           0       -0.135865   -1.004277    1.746790
     15          1           0       -2.454487   -1.455859    1.211983
     16          1           0       -1.517047   -2.423603    0.058074
     17          1           0       -1.888052   -0.734989   -1.561877
     18          1           0       -3.384381    1.001771   -1.025980
     19          1           0       -1.048956    1.395827   -0.972900
     20          1           0        0.946886   -1.926664   -0.150838
     21          1           0        0.250695   -0.765345   -1.273504
     22          1           0        2.973032   -0.469351    1.375188
     23          1           0        2.754760   -0.751772   -1.706356
     24          1           0        2.312735    1.822940   -0.462946
 ---------------------------------------------------------------------

 SCF Done:  E(UB3LYP) =  -588.434092974     A.U. after   24 cycles

 The electronic state is 2-A.
 Alpha  occ. eigenvalues --  -19.02688 -19.02675 -19.02070 -14.24419 -14.22075
 Alpha  occ. eigenvalues --  -14.21488 -10.21738 -10.08810 -10.07777 -10.06749
 Alpha  occ. eigenvalues --  -10.06013  -1.00010  -0.90571  -0.90425  -0.89493
 Alpha  occ. eigenvalues --   -0.77034  -0.71224  -0.63817  -0.57732  -0.54999
 Alpha  occ. eigenvalues --   -0.51980  -0.46551  -0.45499  -0.43327  -0.42481
 Alpha  occ. eigenvalues --   -0.40809  -0.37429  -0.34791  -0.33499  -0.32506
 Alpha  occ. eigenvalues --   -0.31085  -0.29953  -0.28496  -0.27687  -0.26283
 Alpha  occ. eigenvalues --   -0.25456  -0.24968  -0.23672  -0.21687  -0.18863
 Alpha  occ. eigenvalues --   -0.18602  -0.17117  -0.13830  -0.11853   0.04604
 Alpha virt. eigenvalues --    0.07728   0.08251   0.08772   0.09681   0.10233
 Alpha virt. eigenvalues --    0.11121   0.11709   0.12080   0.13797   0.13930
 Alpha virt. eigenvalues --    0.14631   0.15467   0.17382   0.17450   0.18246

  Beta  occ. eigenvalues --  -19.02655 -19.02630 -19.02013 -14.24407 -14.22051
  Beta  occ. eigenvalues --  -14.21474 -10.21735 -10.08801 -10.07772 -10.06743
  Beta  occ. eigenvalues --  -10.05960  -0.99942  -0.90536  -0.90346  -0.89378
  Beta  occ. eigenvalues --   -0.76995  -0.71192  -0.63751  -0.57670  -0.54972
  Beta  occ. eigenvalues --   -0.51883  -0.46490  -0.45391  -0.43255  -0.42439
  Beta  occ. eigenvalues --   -0.40759  -0.37383  -0.34756  -0.33451  -0.32473
  Beta  occ. eigenvalues --   -0.31035  -0.29918  -0.28467  -0.27633  -0.26238
  Beta  occ. eigenvalues --   -0.25420  -0.24930  -0.23625  -0.21636  -0.18808
  Beta  occ. eigenvalues --   -0.18546  -0.17094  -0.13781  -0.11832
  Beta virt. eigenvalues --    0.07396   0.08494   0.08749   0.09577   0.10409
  Beta virt. eigenvalues --    0.11078   0.11577   0.12075   0.12281   0.13975
  Beta virt. eigenvalues --    0.14330   0.14830   0.16155   0.17501   0.17760

 Mulliken charges and spin densities:
               1          2
     1  C    0.121400  -0.883129
     2  C   -0.148013   1.072168
     3  C    0.013565  -0.834030
     4  N    0.028547  -0.115926
     5  N   -0.596647   0.249081
     6  N    0.020801  -0.130267
     7  C   -0.512784  -0.316927
     8  C    1.907574  -2.189044
     9  O   -0.283356   0.047127
    10  O   -0.342155   0.102559
    11  O   -0.259807   0.075969
    12  H    0.210358   0.009048
    13  H    0.115794   0.039326
    14  H    0.001026   0.206685
    15  H    0.132463   0.020756
    16  H   -0.224228   0.400275
    17  H    0.021835   0.203090
    18  H    0.188109   0.097566
    19  H    0.124640   0.133325
    20  H   -0.195450   0.400069
    21  H   -0.563599   0.795092
    22  H   -0.162900   0.461462
    23  H   -0.480119   0.772996
    24  H   -0.117054   0.382728
 Sum of Mulliken charges =  -1.00000   1.00000

 Dipole moment (field-independent basis, Debye):
    X=             -3.7084    Y=              1.5979    Z=              3.2607  Tot=              5.1902
 Quadrupole moment (field-independent basis, Debye-Ang):
   XX=           -120.3260   YY=            -98.7925   ZZ=            -98.9900
   XY=              3.9852   XZ=              3.5738   YZ=             -5.1586

 Summary of Natural Population Analysis:

                                       Natural Population
                Natural  -----------------------------------------------
    Atom  No    Charge         Core      Valence    Rydberg      Total
 -----------------------------------------------------------------------
      C    1   -0.09359      0.99960     2.08203    0.01195     3.09359
      C    2   -0.12765      0.99959     2.11710    0.01096     3.12765
      C    3   -0.09158      0.99961     2.07846    0.01351     3.09158
      N    4   -0.25053      0.99976     2.73584    0.01493     3.75053
      N    5   -0.17163      0.99976     2.65546    0.01641     3.67163
      N    6   -0.25150      0.99976     2.73738    0.01436     3.75150
      C    7   -0.22297      0.99954     2.20816    0.01527     3.22297
      C    8    0.41581      0.99967     1.55971    0.02480     2.58419
      O    9   -0.37965      0.99987     3.37306    0.00671     4.37965
      O   10   -0.38451      0.99988     3.37847    0.00616     4.38451
      O   11   -0.37480      0.99988     3.36788    0.00704     4.37480
      H   12    0.10749      0.00000     0.39087    0.00164     0.39251
      H   13    0.09227      0.00000     0.40650    0.00123     0.40773
      H   14    0.10342      0.00000     0.39536    0.00122     0.39658
      H   15    0.09525      0.00000     0.40344    0.00131     0.40475
      H   16    0.09646      0.00000     0.40251    0.00102     0.40354
      H   17    0.15920      0.00000     0.33719    0.00360     0.34080
      H   18    0.17312      0.00000     0.32524    0.00164     0.32688
      H   19    0.16471      0.00000     0.33177    0.00353     0.33529
      H   20    0.11012      0.00000     0.38740    0.00247     0.38988
      H   21    0.10415      0.00000     0.39117    0.00468     0.39585
      H   22    0.24377      0.00000     0.25097    0.00526     0.25623
      H   23    0.24571      0.00000     0.23436    0.01993     0.25429
      H   24    0.23690      0.00000     0.25905    0.00404     0.26310
 =======================================================================
   * Total *   -0.00000     10.99693    32.80939    0.19368    44.00000

 Normal termination of Gaussian 16 at Tue Dec  8 19:49:16 2020.
