 Gaussian 16, Revision A.03,

 -----------------------------------------------------------
 # opt freq B3LYP/6-31G(d) empiricaldispersion=gd3bj scf=xqc
 -----------------------------------------------------------

 ------------------------------
 CID_64524221_JID_4354_neutraal
 ------------------------------
 Symbolic Z-matrix:
 Charge =  0 Multiplicity = 1

 SCF Done:  E(RB3LYP) =  -646.858368357     A.U. after   16 cycles
 SCF Done:  E(RB3LYP) =  -646.865961993     A.U. after   13 cycles
 SCF Done:  E(RB3LYP) =  -646.867300192     A.U. after   12 cycles
 SCF Done:  E(RB3LYP) =  -646.867988610     A.U. after   13 cycles
 SCF Done:  E(RB3LYP) =  -646.868421356     A.U. after   11 cycles
 SCF Done:  E(RB3LYP) =  -646.868530022     A.U. after   11 cycles
 SCF Done:  E(RB3LYP) =  -646.868597168     A.U. after   11 cycles
 SCF Done:  E(RB3LYP) =  -646.868645286     A.U. after   11 cycles
 SCF Done:  E(RB3LYP) =  -646.868674637     A.U. after   10 cycles
 SCF Done:  E(RB3LYP) =  -646.868691778     A.U. after   10 cycles
 SCF Done:  E(RB3LYP) =  -646.868702182     A.U. after    9 cycles
 SCF Done:  E(RB3LYP) =  -646.868704906     A.U. after    8 cycles
 SCF Done:  E(RB3LYP) =  -646.868705782     A.U. after    8 cycles
 Optimization completed.
    -- Stationary point found.
 Normal termination of Gaussian 16 at Thu Dec 10 09:24:49 2020.

 --------------------------------------------------------------------
 #N Geom=AllCheck Guess=TCheck SCRF=Check GenChk RB3LYP/6-31G(d) Freq
 --------------------------------------------------------------------

 Structure from the checkpoint file:  "JID_4354.chk"
 ------------------------------
 CID_64524221_JID_4354_neutraal
 ------------------------------
 Charge =  0 Multiplicity = 1

 SCF Done:  E(RB3LYP) =  -646.868705782     A.U. after    1 cycles

  Exact polarizability: 175.198   1.362 117.066   0.385   4.937  80.665
 Approx polarizability: 218.240   1.374 207.147  -2.933  11.823 117.076

                      1                      2                      3
                      A                      A                      A
 Frequencies --     41.2843                56.8130                60.9641
 Red. masses --      4.2357                 3.4852                 3.2850
 Frc consts  --      0.0043                 0.0066                 0.0072
 IR Inten    --      0.2645                 0.8125                 1.7638

                      4                      5                      6
                      A                      A                      A
 Frequencies --     87.4556               117.1780               149.8782
 Red. masses --      1.8901                 2.8715                 4.1214
 Frc consts  --      0.0085                 0.0232                 0.0545
 IR Inten    --      0.8823                 1.1981                 2.1890

                      7                      8                      9
                      A                      A                      A
 Frequencies --    155.3088               200.3284               212.6457
 Red. masses --      3.0936                 1.4317                 1.2920
 Frc consts  --      0.0440                 0.0339                 0.0344
 IR Inten    --      2.3562                 1.2036                 3.7597

                     10                     11                     12
                      A                      A                      A
 Frequencies --    232.8851               248.3574               255.1203
 Red. masses --      2.1474                 1.2156                 1.4816
 Frc consts  --      0.0686                 0.0442                 0.0568
 IR Inten    --      7.2410                30.6100                 0.7757

                     13                     14                     15
                      A                      A                      A
 Frequencies --    285.9434               312.0696               333.1433
 Red. masses --      2.0103                 4.0412                 5.8826
 Frc consts  --      0.0968                 0.2319                 0.3847
 IR Inten    --      3.7018                 3.3610                 7.0620

                     16                     17                     18
                      A                      A                      A
 Frequencies --    357.6206               392.3605               420.5522
 Red. masses --      2.1139                 4.8837                 3.2656
 Frc consts  --      0.1593                 0.4430                 0.3403
 IR Inten    --      1.0142                10.5150                 1.4138

                     19                     20                     21
                      A                      A                      A
 Frequencies --    465.6120               508.6370               541.8861
 Red. masses --      3.4984                 3.0713                 2.2561
 Frc consts  --      0.4469                 0.4682                 0.3903
 IR Inten    --      3.6780                 3.3181                35.8008

                     22                     23                     24
                      A                      A                      A
 Frequencies --    577.2888               652.4607               671.8803
 Red. masses --      2.5964                 2.6236                 4.2418
 Frc consts  --      0.5098                 0.6580                 1.1282
 IR Inten    --     43.5380                34.3811                31.1252

                     25                     26                     27
                      A                      A                      A
 Frequencies --    681.6567               736.7448               759.9924
 Red. masses --      2.9310                 5.6027                 2.6243
 Frc consts  --      0.8024                 1.7918                 0.8931
 IR Inten    --     37.9287                34.7937                47.0234

                     28                     29                     30
                      A                      A                      A
 Frequencies --    775.2393               788.8324               806.9425
 Red. masses --      1.6790                 1.3811                 1.8101
 Frc consts  --      0.5945                 0.5064                 0.6944
 IR Inten    --     51.3648                16.7904               167.8600

                     31                     32                     33
                      A                      A                      A
 Frequencies --    843.2327               900.2705               983.4258
 Red. masses --      1.7736                 2.4522                 1.3475
 Frc consts  --      0.7430                 1.1710                 0.7678
 IR Inten    --      5.4224                 4.8031                 7.5371

                     34                     35                     36
                      A                      A                      A
 Frequencies --    999.4192              1015.9042              1032.7362
 Red. masses --      1.6543                 3.2468                 3.4855
 Frc consts  --      0.9735                 1.9743                 2.1902
 IR Inten    --      8.9950                55.5210                 0.6821

                     37                     38                     39
                      A                      A                      A
 Frequencies --   1056.3207              1109.5321              1122.6412
 Red. masses --      2.9150                 1.5018                 1.5906
 Frc consts  --      1.9164                 1.0893                 1.1811
 IR Inten    --      5.2307                84.9028                45.9424

                     40                     41                     42
                      A                      A                      A
 Frequencies --   1141.2862              1155.8130              1171.9121
 Red. masses --      1.8881                 1.4060                 2.1242
 Frc consts  --      1.4490                 1.1067                 1.7188
 IR Inten    --      4.2145                 4.2707                 2.4945

                     43                     44                     45
                      A                      A                      A
 Frequencies --   1193.6831              1203.0081              1238.0289
 Red. masses --      2.1617                 2.2147                 2.3637
 Frc consts  --      1.8148                 1.8884                 2.1346
 IR Inten    --      9.6038                62.3840                14.6800

                     46                     47                     48
                      A                      A                      A
 Frequencies --   1249.4613              1307.1315              1314.9295
 Red. masses --      2.8878                 1.4508                 1.7546
 Frc consts  --      2.6563                 1.4605                 1.7875
 IR Inten    --     18.8202                 0.6217                 8.4640

                     49                     50                     51
                      A                      A                      A
 Frequencies --   1359.2022              1388.9341              1400.9447
 Red. masses --      1.3545                 1.5669                 1.6947
 Frc consts  --      1.4743                 1.7809                 1.9596
 IR Inten    --     40.0299                69.9198                79.2695

                     52                     53                     54
                      A                      A                      A
 Frequencies --   1430.5002              1441.3615              1443.1326
 Red. masses --      1.4582                 1.7175                 1.7208
 Frc consts  --      1.7581                 2.1023                 2.1116
 IR Inten    --     11.6142                31.6078                61.4600

                     55                     56                     57
                      A                      A                      A
 Frequencies --   1466.5500              1495.9058              1513.7997
 Red. masses --      1.4683                 3.2317                 1.5967
 Frc consts  --      1.8606                 4.2608                 2.1558
 IR Inten    --     52.5402                21.6400                44.1210

                     58                     59                     60
                      A                      A                      A
 Frequencies --   1517.0427              1523.0289              1532.3351
 Red. masses --      1.0550                 1.0573                 1.1329
 Frc consts  --      1.4305                 1.4449                 1.5673
 IR Inten    --     13.1200                 5.6033                33.0714

                     61                     62                     63
                      A                      A                      A
 Frequencies --   1533.7037              1540.8495              1543.1111
 Red. masses --      1.0550                 1.0655                 1.9525
 Frc consts  --      1.4621                 1.4905                 2.7393
 IR Inten    --      3.8227                 6.3028                50.1929

                     64                     65                     66
                      A                      A                      A
 Frequencies --   1544.7235              1549.5022              1610.3015
 Red. masses --      1.2301                 1.3499                 3.9173
 Frc consts  --      1.7294                 1.9095                 5.9848
 IR Inten    --     57.3257               166.1956                38.7265

                     67                     68                     69
                      A                      A                      A
 Frequencies --   1682.3683              1709.5392              3031.6601
 Red. masses --      1.2438                 8.8861                 1.0497
 Frc consts  --      2.0742                15.3009                 5.6843
 IR Inten    --    105.8932               208.0260                24.9917

                     70                     71                     72
                      A                      A                      A
 Frequencies --   3039.6885              3042.8662              3045.0280
 Red. masses --      1.0727                 1.0542                 1.0619
 Frc consts  --      5.8396                 5.7508                 5.8011
 IR Inten    --     31.1968                24.2925                50.3465

                     73                     74                     75
                      A                      A                      A
 Frequencies --   3068.0815              3094.1056              3102.2372
 Red. masses --      1.0395                 1.0975                 1.0958
 Frc consts  --      5.7650                 6.1904                 6.2132
 IR Inten    --     24.2314                28.7323                15.3798

                     76                     77                     78
                      A                      A                      A
 Frequencies --   3120.8731              3127.8302              3131.6751
 Red. masses --      1.1009                 1.0983                 1.0993
 Frc consts  --      6.3175                 6.3308                 6.3522
 IR Inten    --     43.3089                21.9511                32.2193

                     79                     80                     81
                      A                      A                      A
 Frequencies --   3176.4634              3182.6860              3292.1169
 Red. masses --      1.0997                 1.0965                 1.0966
 Frc consts  --      6.5374                 6.5441                 7.0023
 IR Inten    --      7.1477                 5.9138                 1.3780

                     82                     83                     84
                      A                      A                      A
 Frequencies --   3526.5720              3624.1572              3659.9274
 Red. masses --      1.0482                 1.0963                 1.0809
 Frc consts  --      7.6806                 8.4839                 8.5308
 IR Inten    --      8.6337                10.5648               105.7114

 - Thermochemistry -
 -------------------
 Temperature   298.150 Kelvin.  Pressure   1.00000 Atm.
 Atom     1 has atomic number  6 and mass  12.00000

 Molecular mass:   196.13241 amu.
 Principal axes and moments of inertia in atomic units:
                           1         2         3
     Eigenvalues --   974.899035678.362126087.19828
           X            0.99998   0.00492   0.00383
           Y           -0.00491   0.99998  -0.00362
           Z           -0.00385   0.00360   0.99999
 This molecule is an asymmetric top.
 Rotational symmetry number  1.
 Warning -- assumption of classical behavior for rotation
           may cause significant error
 Rotational temperatures (Kelvin)      0.08884     0.01525     0.01423
 Rotational constants (GHZ):           1.85121     0.31783     0.29648
 Zero-point vibrational energy     678394.0 (Joules/Mol)
                                  162.14006 (Kcal/Mol)
 Warning -- explicit consideration of  22 degrees of freedom as
           vibrations may cause significant error
 Vibrational temperatures:     59.40    81.74    87.71   125.83   168.59
          (Kelvin)            215.64   223.45   288.23   305.95   335.07
                              357.33   367.06   411.41   449.00   479.32
                              514.54   564.52   605.08   669.91   731.82
                              779.65   830.59   938.75   966.69   980.75
                             1060.01  1093.46  1115.40  1134.95  1161.01
                             1213.22  1295.29  1414.93  1437.94  1461.66
                             1485.88  1519.81  1596.37  1615.23  1642.06
                             1662.96  1686.12  1717.44  1730.86  1781.25
                             1797.70  1880.67  1891.89  1955.59  1998.37
                             2015.65  2058.17  2073.80  2076.35  2110.04
                             2152.27  2178.02  2182.69  2191.30  2204.69
                             2206.66  2216.94  2220.19  2222.51  2229.39
                             2316.86  2420.55  2459.65  4361.88  4373.43
                             4378.01  4381.12  4414.28  4451.73  4463.43
                             4490.24  4500.25  4505.78  4570.22  4579.18
                             4736.62  5073.95  5214.35  5265.82

 Zero-point correction=                           0.258387 (Hartree/Particle)
 Thermal correction to Energy=                    0.273439
 Thermal correction to Enthalpy=                  0.274383
 Thermal correction to Gibbs Free Energy=         0.216138
 Sum of electronic and zero-point Energies=           -646.610319
 Sum of electronic and thermal Energies=              -646.595267
 Sum of electronic and thermal Enthalpies=            -646.594322
 Sum of electronic and thermal Free Energies=         -646.652568

                     E (Thermal)             CV                S
                      KCal/Mol        Cal/Mol-Kelvin    Cal/Mol-Kelvin
 Total                  171.586             55.606            122.588
 Electronic               0.000              0.000              0.000
 Translational            0.889              2.981             41.726
 Rotational               0.889              2.981             31.888
 Vibrational            169.808             49.644             48.974
 Vibration     1          0.594              1.981              5.196
 Vibration     2          0.596              1.975              4.565
 Vibration     3          0.597              1.973              4.426
 Vibration     4          0.601              1.958              3.716
 Vibration     5          0.608              1.935              3.146
 Vibration     6          0.618              1.903              2.674
 Vibration     7          0.620              1.897              2.606
 Vibration     8          0.638              1.839              2.130
 Vibration     9          0.644              1.822              2.021
 Vibration    10          0.654              1.791              1.857
 Vibration    11          0.662              1.765              1.742
 Vibration    12          0.665              1.754              1.695
 Vibration    13          0.684              1.700              1.498
 Vibration    14          0.700              1.651              1.351
 Vibration    15          0.715              1.609              1.245
 Vibration    16          0.733              1.560              1.132
 Vibration    17          0.760              1.487              0.991
 Vibration    18          0.783              1.426              0.890
 Vibration    19          0.823              1.326              0.750
 Vibration    20          0.864              1.231              0.637
 Vibration    21          0.897              1.157              0.561
 Vibration    22          0.934              1.080              0.490

                           ! Non-Optimized Parameters !
 Normal termination of Gaussian 16 at Thu Dec 10 09:33:24 2020.

 ----------------------------------------------------------------------
 # B3LYP/6-311++G(d,p) empiricaldispersion=gd3bj scf=xqc pop=npa geom=c
 heck
 ----------------------------------------------------------------------

 --------------------------------------
 CID_64524221_JID_4354_Energie_neutraal
 --------------------------------------
 Structure from the checkpoint file:  "JID_4354.chk"
 Charge =  0 Multiplicity = 1

 SCF Done:  E(RB3LYP) =  -647.059094718     A.U. after   16 cycles
 Normal termination of Gaussian 16 at Thu Dec 10 09:37:53 2020.

 ----------------------------------------------------------------------
 # B3LYP/6-311++G(d,p) empiricaldispersion=gd3bj scf=xqc pop=npa geom=c
 heck
 ----------------------------------------------------------------------

 ------------------------------------
 CID_64524221_JID_4354_Energie_kation
 ------------------------------------
 Structure from the checkpoint file:  "JID_4354.chk"
 Charge =  1 Multiplicity = 2

 SCF Done:  E(UB3LYP) =  -646.764223362     A.U. after   33 cycles
 SCF Done:  E(UB3LYP) =  -646.764223362     a.u. after    1 cycles
 Normal termination of Gaussian 16 at Thu Dec 10 09:50:54 2020.
 Gaussian 16:  ES64L-G16RevA.03 25-Dec-2016

 ----------------------------------------------------------------------
 # B3LYP/6-311++G(d,p) empiricaldispersion=gd3bj scf=xqc pop=npa geom=c
 heck
 ----------------------------------------------------------------------

 -----------------------------------
 CID_64524221_JID_4354_Energie_anion
 -----------------------------------
 Structure from the checkpoint file:  "JID_4354.chk"
 Charge = -1 Multiplicity = 2

                         Standard orientation:
 ---------------------------------------------------------------------
 Center     Atomic      Atomic             Coordinates (Angstroms)
 Number     Number       Type             X           Y           Z
 ---------------------------------------------------------------------
      1          6           0       -4.677498   -0.177455   -0.714489
      2          6           0       -3.152029   -0.183919   -0.839790
      3          6           0       -2.437393    0.480848    0.350278
      4          6           0       -2.680766   -0.214984    1.693114
      5          7           0       -0.992618    0.659265    0.068961
      6          6           0       -0.597190    1.980818   -0.399765
      7          6           0       -0.166463   -0.426743    0.056375
      8          8           0       -0.583254   -1.588708    0.149104
      9          6           0        1.304559   -0.230126   -0.038040
     10          6           0        2.235809    0.786031    0.170449
     11          6           0        3.494513    0.162760   -0.011793
     12          7           0        3.363982   -1.136652   -0.305238
     13          7           0        2.031601   -1.338525   -0.325925
     14          7           0        4.755689    0.763368    0.019781
     15          1           0       -5.018721   -0.793651    0.123846
     16          1           0       -5.142204   -0.573718   -1.623615
     17          1           0       -5.062542    0.838961   -0.560629
     18          1           0       -2.777018   -1.206243   -0.938660
     19          1           0       -2.860243    0.352453   -1.752983
     20          1           0       -2.822728    1.503955    0.443058
     21          1           0       -2.392064   -1.265708    1.649862
     22          1           0       -2.100501    0.274546    2.482411
     23          1           0       -3.739514   -0.145236    1.960947
     24          1           0       -0.462549    2.687878    0.429944
     25          1           0        0.326604    1.924763   -0.973129
     26          1           0       -1.378249    2.373565   -1.059737
     27          1           0        2.051308    1.815564    0.432993
     28          1           0        1.638339   -2.261184   -0.443574
     29          1           0        5.491351    0.064881    0.053138
     30          1           0        4.862940    1.423263    0.782213
 ---------------------------------------------------------------------

 SCF Done:  E(UB3LYP) =  -647.050034775     A.U. after   33 cycles
 SCF Done:  E(UB3LYP) =  -647.050034775     a.u. after    1 cycles

 The electronic state is 2-A.
 Alpha  occ. eigenvalues --  -18.97588 -14.26933 -14.23729 -14.21854 -14.21553
 Alpha  occ. eigenvalues --  -10.16516 -10.12182 -10.11046 -10.10443 -10.09995
 Alpha  occ. eigenvalues --  -10.06555 -10.06529 -10.06018 -10.05632  -0.94691
 Alpha  occ. eigenvalues --   -0.92507  -0.83282  -0.81180  -0.70666  -0.69339
 Alpha  occ. eigenvalues --   -0.67064  -0.63051  -0.60475  -0.56229  -0.52520
 Alpha  occ. eigenvalues --   -0.50158  -0.48840  -0.45883  -0.41695  -0.40637
 Alpha  occ. eigenvalues --   -0.37996  -0.36667  -0.36411  -0.35991  -0.34252
 Alpha  occ. eigenvalues --   -0.33942  -0.33036  -0.32213  -0.31235  -0.29801
 Alpha  occ. eigenvalues --   -0.29342  -0.28898  -0.27677  -0.26608  -0.25711
 Alpha  occ. eigenvalues --   -0.23793  -0.23179  -0.22684  -0.19597  -0.15793
 Alpha  occ. eigenvalues --   -0.14880  -0.14003  -0.11391   0.04221
 Alpha virt. eigenvalues --    0.06003   0.06445   0.07376   0.07995   0.08910
 Alpha virt. eigenvalues --    0.09302   0.10279   0.10547   0.10687   0.11597
 Alpha virt. eigenvalues --    0.12295   0.13132   0.13202   0.13505   0.14329

  Beta  occ. eigenvalues --  -18.97508 -14.26852 -14.23703 -14.21796 -14.21522
  Beta  occ. eigenvalues --  -10.16415 -10.12203 -10.11036 -10.10407 -10.09958
  Beta  occ. eigenvalues --  -10.06536 -10.06513 -10.05960 -10.05613  -0.94565
  Beta  occ. eigenvalues --   -0.92364  -0.83200  -0.81124  -0.70557  -0.69267
  Beta  occ. eigenvalues --   -0.66957  -0.63011  -0.60361  -0.56152  -0.52376
  Beta  occ. eigenvalues --   -0.50088  -0.48785  -0.45782  -0.41627  -0.40566
  Beta  occ. eigenvalues --   -0.37897  -0.36591  -0.36340  -0.35870  -0.34166
  Beta  occ. eigenvalues --   -0.33737  -0.32964  -0.32143  -0.31184  -0.29715
  Beta  occ. eigenvalues --   -0.29251  -0.28831  -0.27456  -0.26552  -0.25627
  Beta  occ. eigenvalues --   -0.23727  -0.23150  -0.22548  -0.19511  -0.15668
  Beta  occ. eigenvalues --   -0.14501  -0.13750  -0.11137
  Beta virt. eigenvalues --    0.06569   0.06969   0.07504   0.08076   0.08415
  Beta virt. eigenvalues --    0.09242   0.09783   0.10577   0.10722   0.11237
  Beta virt. eigenvalues --    0.11809   0.12427   0.13271   0.13401   0.13775

 Mulliken charges and spin densities:
               1          2
     1  C    0.373474  -0.989135
     2  C   -0.270234   0.427799
     3  C   -0.864912   0.414013
     4  C    0.473032  -0.961892
     5  N    0.292956   0.145659
     6  C    0.826016  -1.190862
     7  C   -0.122544  -0.127593
     8  O   -0.330611   0.030122
     9  C    0.935651  -1.204372
    10  C   -0.672040   1.061894
    11  C    0.026603  -0.471559
    12  N   -0.099007  -0.075703
    13  N   -0.238619   0.104839
    14  N   -0.350923   0.014741
    15  H    0.004580   0.131751
    16  H   -0.101404   0.238500
    17  H   -0.236512   0.379377
    18  H    0.208843  -0.024855
    19  H    0.016110   0.110833
    20  H   -0.200113   0.366667
    21  H    0.098435   0.084042
    22  H    0.025022   0.110721
    23  H   -0.054513   0.202765
    24  H   -0.316282   0.505798
    25  H    0.027308   0.115541
    26  H   -0.311762   0.473882
    27  H   -0.342108   0.524797
    28  H    0.309637   0.006581
    29  H    0.138049   0.107255
    30  H   -0.244130   0.488395
 Sum of Mulliken charges =  -1.00000   1.00000

 Dipole moment (field-independent basis, Debye):
    X=             -0.2051    Y=             -3.7355    Z=             -0.5117  Tot=              3.7760
 Quadrupole moment (field-independent basis, Debye-Ang):
   XX=           -168.8858   YY=           -124.5202   ZZ=           -112.5012
   XY=              0.6645   XZ=             -3.0620   YZ=             -0.0406

 Summary of Natural Population Analysis:

                                       Natural Population
                Natural  -----------------------------------------------
    Atom  No    Charge         Core      Valence    Rydberg      Total
 -----------------------------------------------------------------------
      C    1   -0.28717      0.99967     2.28260    0.00490     3.28717
      C    2   -0.19774      0.99960     2.18929    0.00884     3.19774
      C    3    0.00188      0.99958     1.98506    0.01348     2.99812
      C    4   -0.29426      0.99964     2.28821    0.00642     3.29426
      N    5   -0.24575      0.99964     2.73367    0.01244     3.74575
      C    6   -0.17565      0.99963     2.16815    0.00787     3.17565
      C    7    0.33823      0.99958     1.63975    0.02243     2.66177
      O    8   -0.33406      0.99989     3.32955    0.00462     4.33406
      C    9    0.04287      0.99954     1.94502    0.01257     2.95713
      C   10   -0.16148      0.99948     2.15374    0.00825     3.16148
      C   11    0.15552      0.99959     1.82830    0.01659     2.84448
      N   12   -0.17533      0.99970     2.66285    0.01278     3.67533
      N   13   -0.14859      0.99965     2.63802    0.01092     3.64859
      N   14   -0.40686      0.99972     2.89664    0.01051     3.90686
      H   15    0.09589      0.00000     0.40325    0.00086     0.40411
      H   16    0.09844      0.00000     0.40085    0.00072     0.40156
      H   17    0.09698      0.00000     0.40177    0.00124     0.40302
      H   18    0.10822      0.00000     0.39050    0.00128     0.39178
      H   19    0.09649      0.00000     0.40242    0.00110     0.40351
      H   20    0.09460      0.00000     0.40322    0.00218     0.40540
      H   21    0.11249      0.00000     0.38661    0.00090     0.38751
      H   22    0.10182      0.00000     0.39726    0.00092     0.39818
      H   23    0.09825      0.00000     0.40106    0.00069     0.40175
      H   24    0.09354      0.00000     0.40502    0.00144     0.40646
      H   25    0.10578      0.00000     0.39293    0.00129     0.39422
      H   26    0.09875      0.00000     0.39946    0.00179     0.40125
      H   27    0.11137      0.00000     0.38749    0.00114     0.38863
      H   28    0.20535      0.00000     0.29308    0.00157     0.29465
      H   29    0.18400      0.00000     0.31399    0.00201     0.31600
      H   30    0.18641      0.00000     0.31033    0.00327     0.31359
 =======================================================================
   * Total *   -0.00000     13.99490    38.83007    0.17503    53.00000

 Normal termination of Gaussian 16 at Thu Dec 10 10:04:09 2020.
