 Gaussian 16, Revision A.03,

 -----------------------------------------------------------
 # opt freq B3LYP/6-31G(d) empiricaldispersion=gd3bj scf=xqc
 -----------------------------------------------------------

 ------------------------------
 CID_79514493_JID_9996_neutraal
 ------------------------------
 Symbolic Z-matrix:
 Charge =  0 Multiplicity = 1

 SCF Done:  E(RB3LYP) =  -823.779050225     A.U. after   14 cycles
 SCF Done:  E(RB3LYP) =  -823.786272383     A.U. after   12 cycles
 SCF Done:  E(RB3LYP) =  -823.787014786     A.U. after   12 cycles
 SCF Done:  E(RB3LYP) =  -823.787223713     A.U. after   11 cycles
 SCF Done:  E(RB3LYP) =  -823.787369851     A.U. after   12 cycles
 SCF Done:  E(RB3LYP) =  -823.787474283     A.U. after   11 cycles
 SCF Done:  E(RB3LYP) =  -823.787592925     A.U. after   11 cycles
 SCF Done:  E(RB3LYP) =  -823.787648766     A.U. after   11 cycles
 SCF Done:  E(RB3LYP) =  -823.787638921     A.U. after   10 cycles
 SCF Done:  E(RB3LYP) =  -823.787770021     A.U. after   11 cycles
 SCF Done:  E(RB3LYP) =  -823.788997089     A.U. after    8 cycles
 SCF Done:  E(RB3LYP) =  -823.788997452     A.U. after    9 cycles
 SCF Done:  E(RB3LYP) =  -823.788997451     A.U. after    8 cycles
 SCF Done:  E(RB3LYP) =  -823.788997505     A.U. after    8 cycles
 SCF Done:  E(RB3LYP) =  -823.788997508     A.U. after    6 cycles
 Optimization completed.
    -- Stationary point found.
 Normal termination of Gaussian 16 at Sat Dec 12 11:10:35 2020.

 --------------------------------------------------------------------
 #N Geom=AllCheck Guess=TCheck SCRF=Check GenChk RB3LYP/6-31G(d) Freq
 --------------------------------------------------------------------

 Structure from the checkpoint file:  "JID_9996.chk"
 ------------------------------
 CID_79514493_JID_9996_neutraal
 ------------------------------
 Charge =  0 Multiplicity = 1

 SCF Done:  E(RB3LYP) =  -823.788997508     A.U. after    1 cycles

  Exact polarizability: 212.558 -13.668 143.373   2.127  13.609 163.130
 Approx polarizability: 324.811 -29.096 201.150   4.921  30.328 262.446

                      1                      2                      3
                      A                      A                      A
 Frequencies --     13.5744                22.0619                49.1008
 Red. masses --      3.7813                 4.5683                 3.8059
 Frc consts  --      0.0004                 0.0013                 0.0054
 IR Inten    --      0.0593                 0.0724                 2.2417

                      4                      5                      6
                      A                      A                      A
 Frequencies --     66.0600                91.0455               100.3349
 Red. masses --      2.7335                 3.3305                 3.8782
 Frc consts  --      0.0070                 0.0163                 0.0230
 IR Inten    --      0.0238                 1.6301                 1.2616

                      7                      8                      9
                      A                      A                      A
 Frequencies --    110.0845               182.1173               193.9063
 Red. masses --      3.5777                 4.0675                 2.8924
 Frc consts  --      0.0255                 0.0795                 0.0641
 IR Inten    --      3.2045                 1.8334                 1.1153

                     10                     11                     12
                      A                      A                      A
 Frequencies --    223.4100               230.2477               253.5930
 Red. masses --      2.5076                 2.2129                 2.9174
 Frc consts  --      0.0737                 0.0691                 0.1105
 IR Inten    --      1.9644                 0.1411                 8.5471

                     13                     14                     15
                      A                      A                      A
 Frequencies --    270.4582               286.4156               291.5694
 Red. masses --      1.8285                 2.4407                 2.5335
 Frc consts  --      0.0788                 0.1180                 0.1269
 IR Inten    --      2.0836                 2.2736                 0.7368

                     16                     17                     18
                      A                      A                      A
 Frequencies --    307.8706               382.3040               391.5277
 Red. masses --      2.8166                 1.9864                 1.9854
 Frc consts  --      0.1573                 0.1711                 0.1793
 IR Inten    --      0.8575                28.4706                25.9738

                     19                     20                     21
                      A                      A                      A
 Frequencies --    405.2880               460.9493               470.2996
 Red. masses --      2.7043                 3.9993                 3.2233
 Frc consts  --      0.2617                 0.5007                 0.4201
 IR Inten    --      9.8644                 1.6074                 0.4162

                     22                     23                     24
                      A                      A                      A
 Frequencies --    494.6638               537.7520               568.1815
 Red. masses --      3.3838                 1.9683                 4.6217
 Frc consts  --      0.4878                 0.3353                 0.8791
 IR Inten    --      2.5128                 7.0940                 5.1386

                     25                     26                     27
                      A                      A                      A
 Frequencies --    582.5905               616.7406               632.1288
 Red. masses --      3.0706                 2.6614                 2.3869
 Frc consts  --      0.6140                 0.5964                 0.5619
 IR Inten    --      3.1098                 1.4418                89.8499

                     28                     29                     30
                      A                      A                      A
 Frequencies --    640.0546               678.1223               707.9567
 Red. masses --      4.5946                 5.4647                 2.7049
 Frc consts  --      1.1090                 1.4806                 0.7988
 IR Inten    --      4.8392                 2.2719                13.8370

                     31                     32                     33
                      A                      A                      A
 Frequencies --    716.6634               740.2278               768.3201
 Red. masses --      3.5559                 2.4928                 2.2436
 Frc consts  --      1.0760                 0.8048                 0.7803
 IR Inten    --     13.9141                38.8842                94.7565

                     34                     35                     36
                      A                      A                      A
 Frequencies --    789.3463               812.0951               851.4051
 Red. masses --      1.5492                 3.3113                 1.9077
 Frc consts  --      0.5687                 1.2866                 0.8148
 IR Inten    --     32.6832                 9.2446                 1.6517

                     37                     38                     39
                      A                      A                      A
 Frequencies --    872.3335               875.6947               880.6224
 Red. masses --      1.4771                 2.2145                 2.4608
 Frc consts  --      0.6623                 1.0006                 1.1244
 IR Inten    --     28.1634                 1.8184                 4.7626

                     40                     41                     42
                      A                      A                      A
 Frequencies --    883.8347               919.0428               931.4323
 Red. masses --      1.6989                 2.4972                 2.0074
 Frc consts  --      0.7819                 1.2427                 1.0261
 IR Inten    --      4.0124                 0.4405                 0.1588

                     43                     44                     45
                      A                      A                      A
 Frequencies --    947.9489               967.5659               968.2093
 Red. masses --      2.4158                 1.3889                 1.3484
 Frc consts  --      1.2790                 0.7661                 0.7448
 IR Inten    --      1.7444                 0.7310                 2.1244

                     46                     47                     48
                      A                      A                      A
 Frequencies --   1003.3708              1017.5249              1030.1238
 Red. masses --      2.6948                 5.9983                 2.2529
 Frc consts  --      1.5985                 3.6591                 1.4085
 IR Inten    --     16.9860                 1.1538                37.9031

                     49                     50                     51
                      A                      A                      A
 Frequencies --   1037.7372              1042.6389              1061.7641
 Red. masses --      2.0842                 1.5629                 3.2178
 Frc consts  --      1.3224                 1.0010                 2.1373
 IR Inten    --     16.1368                15.3455                 9.4163

                     52                     53                     54
                      A                      A                      A
 Frequencies --   1076.8722              1087.7178              1113.3294
 Red. masses --      2.4423                 2.5957                 1.7428
 Frc consts  --      1.6687                 1.8094                 1.2728
 IR Inten    --      6.0459                32.7249                10.9893

                     55                     56                     57
                      A                      A                      A
 Frequencies --   1123.5956              1137.2123              1180.7732
 Red. masses --      2.1037                 2.4273                 1.5312
 Frc consts  --      1.5648                 1.8495                 1.2578
 IR Inten    --      6.1464                16.0261                 4.7420

                     58                     59                     60
                      A                      A                      A
 Frequencies --   1185.9093              1193.7054              1203.3929
 Red. masses --      1.2722                 1.1259                 1.5483
 Frc consts  --      1.0542                 0.9452                 1.3211
 IR Inten    --      0.7190                19.4918                 1.0698

                     61                     62                     63
                      A                      A                      A
 Frequencies --   1211.2653              1219.5065              1232.3827
 Red. masses --      1.9768                 1.4091                 1.1469
 Frc consts  --      1.7088                 1.2347                 1.0263
 IR Inten    --     19.7141                 8.7983                 2.7646

                     64                     65                     66
                      A                      A                      A
 Frequencies --   1259.4153              1273.0067              1275.7629
 Red. masses --      1.3549                 2.5118                 1.3456
 Frc consts  --      1.2662                 2.3982                 1.2904
 IR Inten    --      1.3722               214.0043                14.1830

                     67                     68                     69
                      A                      A                      A
 Frequencies --   1309.0497              1319.0844              1330.3249
 Red. masses --      1.4016                 1.3412                 1.8493
 Frc consts  --      1.4151                 1.3749                 1.9283
 IR Inten    --     18.1612                 3.6071                 1.5550

                     70                     71                     72
                      A                      A                      A
 Frequencies --   1341.2478              1344.0705              1348.9212
 Red. masses --      1.5698                 1.4713                 1.2796
 Frc consts  --      1.6638                 1.5660                 1.3719
 IR Inten    --     16.9015                16.3229                 5.8861

                     73                     74                     75
                      A                      A                      A
 Frequencies --   1361.0910              1367.6912              1371.4717
 Red. masses --      1.3234                 1.3665                 2.3552
 Frc consts  --      1.4445                 1.5060                 2.6101
 IR Inten    --     23.3985                 4.4093                 8.9975

                     76                     77                     78
                      A                      A                      A
 Frequencies --   1383.6460              1388.3081              1402.1610
 Red. masses --      1.8750                 2.2489                 1.4973
 Frc consts  --      2.1149                 2.5538                 1.7344
 IR Inten    --     23.0487                19.5932                41.4740

                     79                     80                     81
                      A                      A                      A
 Frequencies --   1468.2739              1487.0984              1511.0884
 Red. masses --      2.9965                 2.1194                 1.5674
 Frc consts  --      3.8061                 2.7615                 2.1087
 IR Inten    --    173.1374                69.3699                13.9102

                     82                     83                     84
                      A                      A                      A
 Frequencies --   1517.8910              1521.2191              1522.7073
 Red. masses --      1.1207                 1.0504                 1.0964
 Frc consts  --      1.5213                 1.4322                 1.4978
 IR Inten    --      3.0313                 4.6581                 0.6757

                     85                     86                     87
                      A                      A                      A
 Frequencies --   1524.4801              1533.4119              1538.2411
 Red. masses --      1.0947                 1.1331                 1.1020
 Frc consts  --      1.4989                 1.5697                 1.5364
 IR Inten    --      5.8446                74.8850                 8.7759

                     88                     89                     90
                      A                      A                      A
 Frequencies --   1545.5235              1553.2225              1646.9208
 Red. masses --      1.1320                 2.1351                 4.7501
 Frc consts  --      1.5932                 3.0348                 7.5910
 IR Inten    --      3.9502                91.5547               125.2272

                     91                     92                     93
                      A                      A                      A
 Frequencies --   1654.5126              1658.1777              1740.8377
 Red. masses --      1.7723                 2.6631                 5.3874
 Frc consts  --      2.8584                 4.3142                 9.6194
 IR Inten    --    158.7242               138.7298               297.3282

                     94                     95                     96
                      A                      A                      A
 Frequencies --   3026.9487              3028.3720              3029.0053
 Red. masses --      1.0846                 1.0352                 1.0680
 Frc consts  --      5.8550                 5.5938                 5.7735
 IR Inten    --     16.5610                40.5354                45.5314

                     97                     98                     99
                      A                      A                      A
 Frequencies --   3038.0215              3048.5971              3058.6476
 Red. masses --      1.0669                 1.0785                 1.0747
 Frc consts  --      5.8014                 5.9054                 5.9235
 IR Inten    --     41.0945                39.1985                73.1112

                    100                    101                    102
                      A                      A                      A
 Frequencies --   3062.9913              3064.5783              3071.8030
 Red. masses --      1.0609                 1.1013                 1.0644
 Frc consts  --      5.8644                 6.0942                 5.9173
 IR Inten    --     23.6513                44.7390                15.0787

                    103                    104                    105
                      A                      A                      A
 Frequencies --   3087.6376              3093.6807              3106.6356
 Red. masses --      1.1066                 1.0930                 1.1036
 Frc consts  --      6.2159                 6.1634                 6.2757
 IR Inten    --     39.8677                33.1866                39.8466

                    106                    107                    108
                      A                      A                      A
 Frequencies --   3116.5843              3131.5637              3161.9530
 Red. masses --      1.1047                 1.0951                 1.1001
 Frc consts  --      6.3221                 6.3274                 6.4802
 IR Inten    --     50.1689                29.7545                28.6842

                    109                    110                    111
                      A                      A                      A
 Frequencies --   3193.3274              3216.7913              3224.9756
 Red. masses --      1.0874                 1.0917                 1.0947
 Frc consts  --      6.5334                 6.6560                 6.7082
 IR Inten    --     13.1220                10.0488                 6.5104

                    112                    113                    114
                      A                      A                      A
 Frequencies --   3253.3112              3543.4098              3648.4923
 Red. masses --      1.0897                 1.0477                 1.0980
 Frc consts  --      6.7955                 7.7506                 8.6113
 IR Inten    --      0.4776                14.6873                25.6068

 - Thermochemistry -
 -------------------
 Temperature   298.150 Kelvin.  Pressure   1.00000 Atm.
 Atom     1 has atomic number  6 and mass  12.00000

 Molecular mass:   259.16846 amu.
 Principal axes and moments of inertia in atomic units:
                           1         2         3
     Eigenvalues --  3583.286795702.532206577.23540
           X            0.99960   0.02501   0.01309
           Y           -0.02501   0.99969  -0.00048
           Z           -0.01310   0.00015   0.99991
 This molecule is an asymmetric top.
 Rotational symmetry number  1.
 Warning -- assumption of classical behavior for rotation
           may cause significant error
 Rotational temperatures (Kelvin)      0.02417     0.01519     0.01317
 Rotational constants (GHZ):           0.50366     0.31648     0.27439
 Zero-point vibrational energy     915443.3 (Joules/Mol)
                                  218.79619 (Kcal/Mol)
 Warning -- explicit consideration of  26 degrees of freedom as
           vibrations may cause significant error
 Vibrational temperatures:     19.53    31.74    70.65    95.05   130.99
          (Kelvin)            144.36   158.39   262.03   278.99   321.44
                              331.28   364.86   389.13   412.09   419.50
                              442.96   550.05   563.32   583.12   663.20
                              676.66   711.71   773.71   817.49   838.22
                              887.35   909.49   920.90   975.67  1018.59
                             1031.12  1065.02  1105.44  1135.69  1168.42
                             1224.98  1255.09  1259.93  1267.02  1271.64
                             1322.30  1340.12  1363.89  1392.11  1393.04
                             1443.63  1463.99  1482.12  1493.07  1500.12
                             1527.64  1549.38  1564.98  1601.83  1616.60
                             1636.19  1698.87  1706.26  1717.48  1731.41
                             1742.74  1754.60  1773.12  1812.02  1831.57
                             1835.54  1883.43  1897.87  1914.04  1929.76
                             1933.82  1940.80  1958.31  1967.80  1973.24
                             1990.76  1997.47  2017.40  2112.52  2139.60
                             2174.12  2183.91  2188.70  2190.84  2193.39
                             2206.24  2213.19  2223.66  2234.74  2369.55
                             2380.47  2385.75  2504.68  4355.10  4357.15
                             4358.06  4371.04  4386.25  4400.71  4406.96
                             4409.24  4419.64  4442.42  4451.12  4469.76
                             4484.07  4505.62  4549.35  4594.49  4628.25
                             4640.02  4680.79  5098.18  5249.37

 Zero-point correction=                           0.348674 (Hartree/Particle)
 Thermal correction to Energy=                    0.366074
 Thermal correction to Enthalpy=                  0.367018
 Thermal correction to Gibbs Free Energy=         0.301572
 Sum of electronic and zero-point Energies=           -823.440324
 Sum of electronic and thermal Energies=              -823.422924
 Sum of electronic and thermal Enthalpies=            -823.421980
 Sum of electronic and thermal Free Energies=         -823.487426

                     E (Thermal)             CV                S
                      KCal/Mol        Cal/Mol-Kelvin    Cal/Mol-Kelvin
 Total                  229.715             68.075            137.743
 Electronic               0.000              0.000              0.000
 Translational            0.889              2.981             42.557
 Rotational               0.889              2.981             33.263
 Vibrational            227.937             62.114             61.923
 Vibration     1          0.593              1.986              7.404
 Vibration     2          0.593              1.985              6.439
 Vibration     3          0.595              1.978              4.853
 Vibration     4          0.597              1.970              4.267
 Vibration     5          0.602              1.956              3.637
 Vibration     6          0.604              1.949              3.448
 Vibration     7          0.606              1.941              3.267
 Vibration     8          0.630              1.864              2.307
 Vibration     9          0.635              1.848              2.190
 Vibration    10          0.649              1.805              1.931
 Vibration    11          0.652              1.795              1.877
 Vibration    12          0.665              1.757              1.705
 Vibration    13          0.674              1.728              1.593
 Vibration    14          0.684              1.699              1.495
 Vibration    15          0.687              1.689              1.465
 Vibration    16          0.698              1.659              1.374
 Vibration    17          0.752              1.508              1.030
 Vibration    18          0.759              1.488              0.994
 Vibration    19          0.770              1.459              0.943
 Vibration    20          0.819              1.337              0.763
 Vibration    21          0.827              1.316              0.737
 Vibration    22          0.850              1.262              0.672
 Vibration    23          0.893              1.167              0.570
 Vibration    24          0.924              1.100              0.508
 Vibration    25          0.939              1.069              0.481
 Vibration    26          0.976              0.996              0.422

 Optimization completed.
    -- Stationary point found.
 Normal termination of Gaussian 16 at Sat Dec 12 11:33:14 2020.

 ----------------------------------------------------------------------
 # B3LYP/6-311++G(d,p) empiricaldispersion=gd3bj scf=xqc pop=npa geom=c
 heck
 ----------------------------------------------------------------------

 --------------------------------------
 CID_79514493_JID_9996_Energie_neutraal
 --------------------------------------
 Structure from the checkpoint file:  "JID_9996.chk"
 Charge =  0 Multiplicity = 1

 SCF Done:  E(RB3LYP) =  -824.014259782     A.U. after   15 cycles
 Normal termination of Gaussian 16 at Sat Dec 12 11:43:27 2020.

 ----------------------------------------------------------------------
 # B3LYP/6-311++G(d,p) empiricaldispersion=gd3bj scf=xqc pop=npa geom=c
 heck
 ----------------------------------------------------------------------

 ------------------------------------
 CID_79514493_JID_9996_Energie_kation
 ------------------------------------
 Structure from the checkpoint file:  "JID_9996.chk"
 Charge =  1 Multiplicity = 2

 SCF Done:  E(UB3LYP) =  -823.752993259     A.U. after   22 cycles
 Normal termination of Gaussian 16 at Sat Dec 12 12:04:23 2020.
 Gaussian 16:  ES64L-G16RevA.03 25-Dec-2016

 ----------------------------------------------------------------------
 # B3LYP/6-311++G(d,p) empiricaldispersion=gd3bj scf=xqc pop=npa geom=c
 heck
 ----------------------------------------------------------------------

 -----------------------------------
 CID_79514493_JID_9996_Energie_anion
 -----------------------------------
 Structure from the checkpoint file:  "JID_9996.chk"
 Charge = -1 Multiplicity = 2

                         Standard orientation:
 ---------------------------------------------------------------------
 Center     Atomic      Atomic             Coordinates (Angstroms)
 Number     Number       Type             X           Y           Z
 ---------------------------------------------------------------------
      1          6           0       -3.452545   -0.286592   -2.151639
      2          8           0       -3.734144    0.046997   -0.801583
      3          6           0       -2.718666   -0.044145    0.103452
      4          6           0       -3.032863    0.332426    1.416193
      5          6           0       -2.047407    0.272731    2.394953
      6          6           0       -0.757834   -0.168123    2.095502
      7          6           0       -0.439565   -0.532244    0.781893
      8          6           0       -1.424209   -0.460941   -0.219852
      9          7           0        0.864843   -0.953286    0.459381
     10          6           0        2.104904   -0.243764    0.834488
     11          6           0        3.177083   -1.252682    0.310080
     12          7           0        2.476946   -2.295532   -0.441216
     13          6           0        1.221003   -2.064021   -0.304740
     14          7           0        0.233717   -2.835009   -0.898464
     15          6           0        2.249420    1.152266    0.196933
     16          6           0        1.988364    1.168917   -1.333347
     17          6           0        1.338413    2.532997   -1.614009
     18          6           0        0.453674    2.758793   -0.379352
     19          6           0        1.335662    2.274756    0.786317
     20          1           0       -4.389587   -0.153596   -2.694505
     21          1           0       -3.118709   -1.327888   -2.248519
     22          1           0       -2.686966    0.375165   -2.577152
     23          1           0       -4.040866    0.665135    1.638402
     24          1           0       -2.290197    0.560514    3.413916
     25          1           0       -0.002716   -0.234193    2.871038
     26          1           0       -1.150331   -0.716410   -1.234100
     27          1           0        2.160878   -0.140410    1.924658
     28          1           0        3.907831   -0.741558   -0.328845
     29          1           0        3.739806   -1.705883    1.137123
     30          1           0        0.607610   -3.732853   -1.183114
     31          1           0       -0.619614   -2.919470   -0.358048
     32          1           0        3.294628    1.432612    0.383031
     33          1           0        2.897321    0.995457   -1.917321
     34          1           0        1.282967    0.372302   -1.593203
     35          1           0        0.782432    2.552916   -2.557946
     36          1           0        2.107309    3.315702   -1.669875
     37          1           0       -0.445720    2.136129   -0.449982
     38          1           0        0.128147    3.797970   -0.262037
     39          1           0        0.744007    1.936039    1.639562
     40          1           0        1.963766    3.100876    1.140445
 ---------------------------------------------------------------------

 SCF Done:  E(UB3LYP) =  -824.001957232     A.U. after   33 cycles
 SCF Done:  E(UB3LYP) =  -824.001957232     a.u. after    1 cycles

 The electronic state is 2-A.
 Alpha  occ. eigenvalues --  -19.06566 -14.24879 -14.23353 -14.17803 -10.17289
 Alpha  occ. eigenvalues --  -10.14931 -10.13319 -10.12884 -10.12108 -10.10056
 Alpha  occ. eigenvalues --  -10.09131 -10.08343 -10.08204 -10.08134 -10.08110
 Alpha  occ. eigenvalues --  -10.07045 -10.06872 -10.06794 -10.06649  -0.98178
 Alpha  occ. eigenvalues --   -0.91446  -0.81947  -0.79309  -0.75447  -0.74308
 Alpha  occ. eigenvalues --   -0.67413  -0.66726  -0.65209  -0.61626  -0.60895
 Alpha  occ. eigenvalues --   -0.59739  -0.54684  -0.53429  -0.50504  -0.48947
 Alpha  occ. eigenvalues --   -0.47988  -0.46601  -0.45090  -0.42829  -0.41216
 Alpha  occ. eigenvalues --   -0.40123  -0.39817  -0.39085  -0.38803  -0.37959
 Alpha  occ. eigenvalues --   -0.37102  -0.35234  -0.33829  -0.32994  -0.32404
 Alpha  occ. eigenvalues --   -0.32010  -0.31348  -0.29943  -0.29864  -0.28989
 Alpha  occ. eigenvalues --   -0.28438  -0.27742  -0.25063  -0.24809  -0.24626
 Alpha  occ. eigenvalues --   -0.24278  -0.23722  -0.23617  -0.23222  -0.22521
 Alpha  occ. eigenvalues --   -0.19153  -0.17428  -0.15783  -0.14200  -0.11128
 Alpha  occ. eigenvalues --    0.04003
 Alpha virt. eigenvalues --    0.05654   0.06240   0.06605   0.06872   0.07377
 Alpha virt. eigenvalues --    0.08125   0.08280   0.08324   0.08927   0.09725
 Alpha virt. eigenvalues --    0.10026   0.10468   0.10673   0.10947   0.11574

  Beta  occ. eigenvalues --  -19.06560 -14.24877 -14.23324 -14.17799 -10.17288
  Beta  occ. eigenvalues --  -10.14932 -10.13320 -10.12834 -10.12100 -10.10049
  Beta  occ. eigenvalues --  -10.09118 -10.08327 -10.08200 -10.08127 -10.08098
  Beta  occ. eigenvalues --  -10.07032 -10.06863 -10.06781 -10.06640  -0.98163
  Beta  occ. eigenvalues --   -0.91435  -0.81918  -0.79290  -0.75432  -0.74291
  Beta  occ. eigenvalues --   -0.67392  -0.66697  -0.65185  -0.61599  -0.60840
  Beta  occ. eigenvalues --   -0.59714  -0.54664  -0.53403  -0.50468  -0.48914
  Beta  occ. eigenvalues --   -0.47949  -0.46571  -0.45055  -0.42801  -0.41183
  Beta  occ. eigenvalues --   -0.40098  -0.39785  -0.39055  -0.38777  -0.37930
  Beta  occ. eigenvalues --   -0.37084  -0.35202  -0.33809  -0.32965  -0.32386
  Beta  occ. eigenvalues --   -0.31990  -0.31327  -0.29922  -0.29838  -0.28962
  Beta  occ. eigenvalues --   -0.28419  -0.27718  -0.25034  -0.24785  -0.24604
  Beta  occ. eigenvalues --   -0.24257  -0.23702  -0.23594  -0.23200  -0.22500
  Beta  occ. eigenvalues --   -0.19131  -0.17413  -0.15756  -0.14182  -0.11120
  Beta virt. eigenvalues --    0.05949   0.06599   0.06783   0.06875   0.07247
  Beta virt. eigenvalues --    0.07947   0.08212   0.08540   0.08694   0.09106
  Beta virt. eigenvalues --    0.09976   0.10474   0.10732   0.10817   0.11475

 Mulliken charges and spin densities:
               1          2
     1  C    0.909217  -1.263614
     2  O   -0.129178   0.024652
     3  C   -2.405724   1.315610
     4  C   -0.159624   0.005985
     5  C   -0.224664  -0.083899
     6  C    0.000062  -0.130382
     7  C    1.153057  -1.028820
     8  C    1.124448  -0.785255
     9  N    0.175271   0.000688
    10  C    0.435955  -0.190316
    11  C   -0.263791  -0.481321
    12  N   -0.177493   0.016878
    13  C    0.044760   0.055912
    14  N   -0.311880  -0.045374
    15  C   -0.375512   0.321981
    16  C    0.158759  -0.260262
    17  C   -0.098148  -0.575731
    18  C   -0.255359  -0.057514
    19  C    0.003709  -0.360469
    20  H   -0.637278   0.820892
    21  H   -0.396503   0.562558
    22  H   -0.229500   0.390721
    23  H   -0.034595   0.213647
    24  H   -0.386773   0.573597
    25  H   -0.179996   0.333610
    26  H    1.042561  -0.807397
    27  H   -0.006016   0.237141
    28  H    0.148480   0.029856
    29  H   -0.046635   0.203195
    30  H    0.000887   0.294528
    31  H    0.001882   0.275238
    32  H   -0.125128   0.338517
    33  H    0.106467   0.065912
    34  H   -0.146446   0.325964
    35  H   -0.106151   0.264266
    36  H    0.022446   0.099242
    37  H    0.564871  -0.377889
    38  H   -0.075958   0.243462
    39  H   -0.014039   0.160054
    40  H   -0.106440   0.274136
 Sum of Mulliken charges =  -1.00000   1.00000

 Dipole moment (field-independent basis, Debye):
    X=              2.6812    Y=              0.9559    Z=              2.0846  Tot=              3.5282
 Quadrupole moment (field-independent basis, Debye-Ang):
   XX=           -184.2503   YY=           -166.4682   ZZ=           -169.4019
   XY=             -0.6703   XZ=             -9.8616   YZ=             -5.6975

 Summary of Natural Population Analysis:

                                       Natural Population
                Natural  -----------------------------------------------
    Atom  No    Charge         Core      Valence    Rydberg      Total
 -----------------------------------------------------------------------
      C    1   -0.10119      0.99960     2.09256    0.00903     3.10119
      O    2   -0.27115      0.99986     3.26131    0.00999     4.27115
      C    3    0.16673      0.99938     1.81956    0.01432     2.83327
      C    4   -0.12595      0.99952     2.11711    0.00933     3.12595
      C    5   -0.08841      0.99957     2.07883    0.01002     3.08841
      C    6   -0.12593      0.99951     2.11667    0.00975     3.12593
      C    7    0.08931      0.99948     1.89761    0.01359     2.91069
      C    8   -0.16258      0.99947     2.15386    0.00924     3.16258
      N    9   -0.26920      0.99960     2.75568    0.01392     3.76920
      C   10    0.00329      0.99957     1.98532    0.01182     2.99671
      C   11   -0.09128      0.99961     2.08143    0.01024     3.09128
      N   12   -0.30042      0.99967     2.79040    0.01035     3.80042
      C   13    0.30952      0.99957     1.67271    0.01820     2.69048
      N   14   -0.40274      0.99971     2.89379    0.00924     3.90274
      C   15   -0.11332      0.99958     2.10242    0.01132     3.11332
      C   16   -0.19480      0.99962     2.18699    0.00819     3.19480
      C   17   -0.18736      0.99964     2.18105    0.00667     3.18736
      C   18   -0.19370      0.99963     2.18654    0.00752     3.19370
      C   19   -0.19358      0.99962     2.18552    0.00844     3.19358
      H   20    0.09566      0.00000     0.40276    0.00158     0.40434
      H   21    0.08740      0.00000     0.41038    0.00222     0.41260
      H   22    0.08597      0.00000     0.41228    0.00176     0.41403
      H   23    0.10671      0.00000     0.39216    0.00112     0.39329
      H   24    0.10233      0.00000     0.39667    0.00099     0.39767
      H   25    0.10604      0.00000     0.39265    0.00130     0.39396
      H   26    0.11705      0.00000     0.38004    0.00291     0.38295
      H   27    0.09572      0.00000     0.40261    0.00167     0.40428
      H   28    0.09094      0.00000     0.40756    0.00150     0.40906
      H   29    0.09019      0.00000     0.40847    0.00134     0.40981
      H   30    0.19392      0.00000     0.30380    0.00227     0.30608
      H   31    0.19312      0.00000     0.30482    0.00205     0.30688
      H   32    0.09922      0.00000     0.39954    0.00124     0.40078
      H   33    0.10025      0.00000     0.39885    0.00090     0.39975
      H   34    0.09966      0.00000     0.39822    0.00212     0.40034
      H   35    0.09980      0.00000     0.39925    0.00095     0.40020
      H   36    0.09083      0.00000     0.40795    0.00122     0.40917
      H   37    0.09969      0.00000     0.39802    0.00229     0.40031
      H   38    0.09720      0.00000     0.40190    0.00090     0.40280
      H   39    0.10490      0.00000     0.39367    0.00143     0.39510
      H   40    0.09614      0.00000     0.40267    0.00118     0.40386
 =======================================================================
   * Total *   -0.00000     18.99220    50.77366    0.23414    70.00000

 Normal termination of Gaussian 16 at Sat Dec 12 12:35:45 2020.
