 Gaussian 16, Revision A.03,

 -----------------------------------------------------------
 # opt freq B3LYP/6-31G(d) empiricaldispersion=gd3bj scf=xqc
 -----------------------------------------------------------

 -----------------------------
 CID_2764168_JID_3198_neutraal
 -----------------------------
 Symbolic Z-matrix:
 Charge =  0 Multiplicity = 1

 SCF Done:  E(RB3LYP) =  -926.900175871     A.U. after   15 cycles
 SCF Done:  E(RB3LYP) =  -926.904361436     A.U. after   12 cycles
 SCF Done:  E(RB3LYP) =  -926.904745740     A.U. after   13 cycles
 SCF Done:  E(RB3LYP) =  -926.905872816     A.U. after   13 cycles
 SCF Done:  E(RB3LYP) =  -926.906205359     A.U. after   12 cycles
 SCF Done:  E(RB3LYP) =  -926.906510775     A.U. after   12 cycles
 SCF Done:  E(RB3LYP) =  -926.906579036     A.U. after   11 cycles
 SCF Done:  E(RB3LYP) =  -926.906634581     A.U. after   11 cycles
 SCF Done:  E(RB3LYP) =  -926.906642737     A.U. after    9 cycles
 SCF Done:  E(RB3LYP) =  -926.906647233     A.U. after    9 cycles
 SCF Done:  E(RB3LYP) =  -926.906650312     A.U. after    9 cycles
 SCF Done:  E(RB3LYP) =  -926.906651075     A.U. after    8 cycles
 SCF Done:  E(RB3LYP) =  -926.906651192     A.U. after    7 cycles
 Optimization completed.
    -- Stationary point found.
 Normal termination of Gaussian 16 at Wed Dec  9 22:28:31 2020.

 --------------------------------------------------------------------
 #N Geom=AllCheck Guess=TCheck SCRF=Check GenChk RB3LYP/6-31G(d) Freq
 --------------------------------------------------------------------

 Structure from the checkpoint file:  "JID_3198.chk"
 -----------------------------
 CID_2764168_JID_3198_neutraal
 -----------------------------
 Charge =  0 Multiplicity = 1

 SCF Done:  E(RB3LYP) =  -926.906651192     A.U. after    1 cycles

  Exact polarizability: 225.670  -5.477 119.566   8.645   1.776  55.808
 Approx polarizability: 339.796 -24.781 219.565  18.575   6.052  88.511

                      1                      2                      3
                      A                      A                      A
 Frequencies --     47.3467                57.4952                99.5916
 Red. masses --      7.4664                 5.0357                 6.4600
 Frc consts  --      0.0099                 0.0098                 0.0378
 IR Inten    --      5.2668                 3.1846                 2.4258

                      4                      5                      6
                      A                      A                      A
 Frequencies --    189.2067               240.5601               265.8734
 Red. masses --      7.0628                 4.6790                11.7414
 Frc consts  --      0.1490                 0.1595                 0.4890
 IR Inten    --      4.7931                 1.5125                 3.6279

                      7                      8                      9
                      A                      A                      A
 Frequencies --    318.7264               344.4276               416.7393
 Red. masses --      5.0340                 4.3252                 1.6346
 Frc consts  --      0.3013                 0.3023                 0.1673
 IR Inten    --      1.7891                15.0571                40.1247

                     10                     11                     12
                      A                      A                      A
 Frequencies --    429.9730               431.7818               471.4424
 Red. masses --      3.1572                 1.9488                 1.4564
 Frc consts  --      0.3439                 0.2141                 0.1907
 IR Inten    --      8.4182                70.1770                98.2506

                     13                     14                     15
                      A                      A                      A
 Frequencies --    476.9055               531.8075               564.8826
 Red. masses --      3.7032                 1.2447                 6.4702
 Frc consts  --      0.4962                 0.2074                 1.2164
 IR Inten    --      3.3878                63.4091                 7.6466

                     16                     17                     18
                      A                      A                      A
 Frequencies --    594.7510               620.1071               633.7650
 Red. masses --      1.0963                 5.0950                 9.2611
 Frc consts  --      0.2285                 1.1543                 2.1916
 IR Inten    --    125.3271                 7.1580                24.4561

                     19                     20                     21
                      A                      A                      A
 Frequencies --    655.2829               668.7242               763.0360
 Red. masses --      4.1246                 3.4567                 3.7279
 Frc consts  --      1.0435                 0.9108                 1.2788
 IR Inten    --      8.9720                31.3079                 3.5549

                     22                     23                     24
                      A                      A                      A
 Frequencies --    787.9672               817.3810               832.1869
 Red. masses --      4.9546                 1.5472                 3.8502
 Frc consts  --      1.8125                 0.6090                 1.5710
 IR Inten    --     12.5405                16.0042                24.4965

                     25                     26                     27
                      A                      A                      A
 Frequencies --    863.1891               867.9686               879.3643
 Red. masses --      2.0496                 2.1628                 1.4760
 Frc consts  --      0.8998                 0.9600                 0.6725
 IR Inten    --     11.3680                 7.2875                32.9725

                     28                     29                     30
                      A                      A                      A
 Frequencies --    954.9949               958.1120               988.7699
 Red. masses --      1.2895                 3.9212                 3.1709
 Frc consts  --      0.6929                 2.1208                 1.8265
 IR Inten    --      0.2692                62.1446                 1.0059

                     31                     32                     33
                      A                      A                      A
 Frequencies --   1075.8340              1109.0104              1166.2414
 Red. masses --      2.0250                 4.0448                 1.4016
 Frc consts  --      1.3809                 2.9310                 1.1232
 IR Inten    --     91.7968                16.6276                12.5654

                     34                     35                     36
                      A                      A                      A
 Frequencies --   1216.2952              1238.1958              1266.0477
 Red. masses --      2.0380                 1.6117                 1.5180
 Frc consts  --      1.7763                 1.4559                 1.4336
 IR Inten    --     58.3443                 5.9462               122.2131

                     37                     38                     39
                      A                      A                      A
 Frequencies --   1286.8029              1327.5481              1358.9866
 Red. masses --      2.3807                 2.7300                 3.1192
 Frc consts  --      2.3226                 2.8347                 3.3941
 IR Inten    --     34.1899                24.7544                13.5485

                     40                     41                     42
                      A                      A                      A
 Frequencies --   1394.4812              1411.6410              1453.1235
 Red. masses --      2.1848                 4.2864                 3.5167
 Frc consts  --      2.5032                 5.0326                 4.3751
 IR Inten    --     71.5549                39.6081               162.2518

                     43                     44                     45
                      A                      A                      A
 Frequencies --   1478.3580              1533.8140              1554.5680
 Red. masses --      3.2244                 3.1779                 2.5426
 Frc consts  --      4.1520                 4.4049                 3.6203
 IR Inten    --     26.1294               100.9739               411.9303

                     46                     47                     48
                      A                      A                      A
 Frequencies --   1563.9326              1632.9706              1662.1357
 Red. masses --      2.7693                 5.1148                 1.2698
 Frc consts  --      3.9907                 8.0359                 2.0668
 IR Inten    --    145.6792                48.9194               139.6296

                     49                     50                     51
                      A                      A                      A
 Frequencies --   1685.2804              3195.9845              3212.7398
 Red. masses --      6.4442                 1.0875                 1.0952
 Frc consts  --     10.7836                 6.5449                 6.6606
 IR Inten    --     75.8347                 4.3800                12.0118

                     52                     53                     54
                      A                      A                      A
 Frequencies --   3228.9179              3263.3841              3548.9151
 Red. masses --      1.0916                 1.0961                 1.0493
 Frc consts  --      6.7056                 6.8778                 7.7864
 IR Inten    --      0.4848                 8.1622                23.8713

                     55                     56                     57
                      A                      A                      A
 Frequencies --   3612.0041              3674.9890              3687.0463
 Red. masses --      1.0767                 1.0811                 1.0993
 Frc consts  --      8.2762                 8.6022                 8.8053
 IR Inten    --     45.2557                78.1000                69.8247

 - Thermochemistry -
 -------------------
 Temperature   298.150 Kelvin.  Pressure   1.00000 Atm.
 Atom     1 has atomic number  6 and mass  12.00000

 Molecular mass:   192.04697 amu.
 Principal axes and moments of inertia in atomic units:
                           1         2         3
     Eigenvalues --   819.026235433.015326099.73953
           X            0.99998   0.00603  -0.00182
           Y           -0.00604   0.99998  -0.00339
           Z            0.00180   0.00340   0.99999
 This molecule is an asymmetric top.
 Rotational symmetry number  1.
 Warning -- assumption of classical behavior for rotation
           may cause significant error
 Rotational temperatures (Kelvin)      0.10575     0.01594     0.01420
 Rotational constants (GHZ):           2.20352     0.33218     0.29587
 Zero-point vibrational energy     422351.2 (Joules/Mol)
                                  100.94436 (Kcal/Mol)
 Warning -- explicit consideration of  17 degrees of freedom as
           vibrations may cause significant error
 Vibrational temperatures:     68.12    82.72   143.29   272.23   346.11
          (Kelvin)            382.53   458.58   495.55   599.59   618.64
                              621.24   678.30   686.16   765.15   812.74
                              855.71   892.20   911.85   942.81   962.14
                             1097.84  1133.71  1176.03  1197.33  1241.94
                             1248.81  1265.21  1374.02  1378.51  1422.62
                             1547.89  1595.62  1677.96  1749.98  1781.49
                             1821.56  1851.42  1910.05  1955.28  2006.35
                             2031.04  2090.72  2127.03  2206.82  2236.68
                             2250.15  2349.48  2391.44  2424.74  4598.31
                             4622.42  4645.69  4695.28  5106.10  5196.87
                             5287.49  5304.84

 Zero-point correction=                           0.160865 (Hartree/Particle)
 Thermal correction to Energy=                    0.171648
 Thermal correction to Enthalpy=                  0.172592
 Thermal correction to Gibbs Free Energy=         0.123337
 Sum of electronic and zero-point Energies=           -926.745786
 Sum of electronic and thermal Energies=              -926.735003
 Sum of electronic and thermal Enthalpies=            -926.734059
 Sum of electronic and thermal Free Energies=         -926.783314

                     E (Thermal)             CV                S
                      KCal/Mol        Cal/Mol-Kelvin    Cal/Mol-Kelvin
 Total                  107.711             42.325            103.665
 Electronic               0.000              0.000              0.000
 Translational            0.889              2.981             41.663
 Rotational               0.889              2.981             31.674
 Vibrational            105.933             36.363             30.329
 Vibration     1          0.595              1.979              4.925
 Vibration     2          0.596              1.975              4.541
 Vibration     3          0.604              1.949              3.462
 Vibration     4          0.633              1.855              2.236
 Vibration     5          0.658              1.778              1.799
 Vibration     6          0.672              1.736              1.623
 Vibration     7          0.705              1.638              1.317
 Vibration     8          0.723              1.587              1.192
 Vibration     9          0.780              1.434              0.903
 Vibration    10          0.791              1.405              0.859
 Vibration    11          0.793              1.401              0.853
 Vibration    12          0.828              1.313              0.734
 Vibration    13          0.833              1.301              0.718
 Vibration    14          0.887              1.180              0.583
 Vibration    15          0.921              1.107              0.514
 Vibration    16          0.952              1.043              0.459
 Vibration    17          0.980              0.989              0.416

                           ! Non-Optimized Parameters !
 Normal termination of Gaussian 16 at Wed Dec  9 22:33:45 2020.

 ----------------------------------------------------------------------
 # B3LYP/6-311++G(d,p) empiricaldispersion=gd3bj scf=xqc pop=npa geom=c
 heck
 ----------------------------------------------------------------------

 -------------------------------------
 CID_2764168_JID_3198_Energie_neutraal
 -------------------------------------
 Structure from the checkpoint file:  "JID_3198.chk"
 Charge =  0 Multiplicity = 1

 SCF Done:  E(RB3LYP) =  -927.081726977     A.U. after   15 cycles
 Normal termination of Gaussian 16 at Wed Dec  9 22:35:59 2020.

 ----------------------------------------------------------------------
 # B3LYP/6-311++G(d,p) empiricaldispersion=gd3bj scf=xqc pop=npa geom=c
 heck
 ----------------------------------------------------------------------

 -----------------------------------
 CID_2764168_JID_3198_Energie_kation
 -----------------------------------
 Structure from the checkpoint file:  "JID_3198.chk"
 Charge =  1 Multiplicity = 2

 SCF Done:  E(UB3LYP) =  -926.788230859     A.U. after   33 cycles
 SCF Done:  E(UB3LYP) =  -926.794734020     a.u. after   13 cycles
 Normal termination of Gaussian 16 at Wed Dec  9 23:32:06 2020.
 Gaussian 16:  ES64L-G16RevA.03 25-Dec-2016

 ----------------------------------------------------------------------
 # B3LYP/6-311++G(d,p) empiricaldispersion=gd3bj scf=xqc pop=npa geom=c
 heck
 ----------------------------------------------------------------------

 ----------------------------------
 CID_2764168_JID_3198_Energie_anion
 ----------------------------------
 Structure from the checkpoint file:  "JID_3198.chk"
 Charge = -1 Multiplicity = 2

                         Standard orientation:
 ---------------------------------------------------------------------
 Center     Atomic      Atomic             Coordinates (Angstroms)
 Number     Number       Type             X           Y           Z
 ---------------------------------------------------------------------
      1          6           0        0.364749    1.790448    0.139194
      2          6           0        1.740476    1.844670    0.252711
      3          6           0        2.480700    0.658679    0.104227
      4          6           0        1.793368   -0.551104   -0.174899
      5          6           0        0.400369   -0.618575   -0.315486
      6          6           0       -0.306847    0.569119   -0.139086
      7          7           0       -1.712080    0.625308   -0.274630
      8          6           0       -2.670792   -0.266231    0.123860
      9         16           0       -4.287734   -0.005807   -0.240924
     10          7           0       -2.242866   -1.363096    0.810531
     11          7           0        2.763840   -1.506599   -0.275337
     12          7           0        4.018448   -1.007494   -0.087519
     13          6           0        3.858754    0.283457    0.143234
     14          1           0       -0.231338    2.688034    0.274228
     15          1           0        2.236699    2.787281    0.462974
     16          1           0       -0.106009   -1.536734   -0.588859
     17          1           0       -2.102945    1.464266   -0.682612
     18          1           0       -1.353441   -1.329787    1.295018
     19          1           0       -2.979070   -1.901510    1.244290
     20          1           0        2.660874   -2.485406   -0.492929
     21          1           0        4.722919    0.907158    0.328827
 ---------------------------------------------------------------------

 SCF Done:  E(UB3LYP) =  -927.089705186     A.U. after   28 cycles

 The electronic state is 2-A.
 Alpha  occ. eigenvalues --  -88.65520 -14.24258 -14.22392 -14.21383 -14.18897
 Alpha  occ. eigenvalues --  -10.14149 -10.07777 -10.07082 -10.05425 -10.03976
 Alpha  occ. eigenvalues --  -10.03245 -10.03173 -10.02431  -7.74301  -5.70715
 Alpha  occ. eigenvalues --   -5.70096  -5.69889  -0.90599  -0.85827  -0.78046
 Alpha  occ. eigenvalues --   -0.71393  -0.69083  -0.63398  -0.61205  -0.58170
 Alpha  occ. eigenvalues --   -0.51647  -0.48482  -0.47589  -0.47102  -0.42376
 Alpha  occ. eigenvalues --   -0.41817  -0.37550  -0.36897  -0.33996  -0.32280
 Alpha  occ. eigenvalues --   -0.31235  -0.30499  -0.30301  -0.28030  -0.25815
 Alpha  occ. eigenvalues --   -0.23854  -0.22809  -0.21734  -0.17331  -0.16314
 Alpha  occ. eigenvalues --   -0.15526  -0.11376  -0.09884  -0.08720  -0.08172
 Alpha  occ. eigenvalues --    0.04784
 Alpha virt. eigenvalues --    0.08344   0.09260   0.09499   0.10494   0.10794
 Alpha virt. eigenvalues --    0.11743   0.12596   0.13194   0.13652   0.13923
 Alpha virt. eigenvalues --    0.14625   0.15522   0.15794   0.16539   0.17207

  Beta  occ. eigenvalues --  -88.65501 -14.24182 -14.22490 -14.21352 -14.18467
  Beta  occ. eigenvalues --  -10.13797 -10.07852 -10.06818 -10.05415 -10.04075
  Beta  occ. eigenvalues --  -10.03113 -10.02927 -10.02109  -7.74284  -5.70716
  Beta  occ. eigenvalues --   -5.70025  -5.69878  -0.90230  -0.85581  -0.77913
  Beta  occ. eigenvalues --   -0.71035  -0.68763  -0.62973  -0.60807  -0.57806
  Beta  occ. eigenvalues --   -0.51253  -0.48315  -0.47293  -0.46970  -0.42185
  Beta  occ. eigenvalues --   -0.41592  -0.37285  -0.36752  -0.33901  -0.32000
  Beta  occ. eigenvalues --   -0.30475  -0.30286  -0.30061  -0.27362  -0.25617
  Beta  occ. eigenvalues --   -0.23539  -0.22041  -0.21198  -0.16610  -0.15732
  Beta  occ. eigenvalues --   -0.14715  -0.10467  -0.09102  -0.08608  -0.07055
  Beta virt. eigenvalues --    0.08320   0.09174   0.09482   0.10266   0.10534
  Beta virt. eigenvalues --    0.11709   0.11828   0.12902   0.13206   0.13901
  Beta virt. eigenvalues --    0.14365   0.14774   0.15543   0.15833   0.16689

 Mulliken charges and spin densities:
               1          2
     1  C   -0.301327   0.000782
     2  C   -1.226854   0.272709
     3  C    1.107598   0.023427
     4  C    0.121504  -0.039595
     5  C   -0.677989   0.253910
     6  C   -0.157425   0.026957
     7  N    0.028798  -0.022960
     8  C    0.098701   0.108056
     9  S   -0.882696   0.107937
    10  N   -0.319581   0.043111
    11  N   -0.063943   0.013955
    12  N   -0.260873   0.200595
    13  C    0.019511   0.006436
    14  H    0.078125   0.039719
    15  H    0.104592  -0.019650
    16  H    0.179041  -0.021067
    17  H    0.240274   0.013428
    18  H    0.269530  -0.006378
    19  H    0.245279  -0.000180
    20  H    0.272663   0.000758
    21  H    0.125071  -0.001950
 Sum of Mulliken charges =  -1.00000   1.00000

 Dipole moment (field-independent basis, Debye):
    X=              2.3233    Y=             -0.7693    Z=              1.3373  Tot=              2.7889
 Quadrupole moment (field-independent basis, Debye-Ang):
   XX=           -167.5323   YY=            -86.0033   ZZ=            -92.1056
   XY=              4.7643   XZ=             -3.9363   YZ=             -1.8857

 Summary of Natural Population Analysis:

                                       Natural Population
                Natural  -----------------------------------------------
    Atom  No    Charge         Core      Valence    Rydberg      Total
 -----------------------------------------------------------------------
      C    1   -0.14623      0.99955     2.13795    0.00873     3.14623
      C    2   -0.03515      0.99955     2.02697    0.00864     3.03515
      C    3   -0.06407      0.99949     2.05668    0.00790     3.06407
      C    4    0.07047      0.99950     1.91992    0.01011     2.92953
      C    5   -0.09254      0.99950     2.08503    0.00801     3.09254
      C    6    0.11071      0.99950     1.87916    0.01063     2.88929
      N    7   -0.31281      0.99962     2.80176    0.01143     3.81281
      C    8    0.20133      0.99971     1.77956    0.01941     2.79867
      S    9   -0.18393      4.99960     3.16939    0.01494     8.18393
      N   10   -0.40197      0.99968     2.89181    0.01048     3.90197
      N   11   -0.18067      0.99966     2.66864    0.01238     3.68067
      N   12   -0.09563      0.99973     2.58038    0.01552     3.59563
      C   13   -0.02089      0.99962     2.00565    0.01563     3.02089
      H   14    0.09338      0.00000     0.40512    0.00150     0.40662
      H   15    0.08876      0.00000     0.40964    0.00160     0.41124
      H   16    0.10109      0.00000     0.39736    0.00155     0.39891
      H   17    0.20032      0.00000     0.29795    0.00174     0.29968
      H   18    0.19700      0.00000     0.30145    0.00155     0.30300
      H   19    0.19413      0.00000     0.30441    0.00146     0.30587
      H   20    0.18808      0.00000     0.30970    0.00222     0.31192
      H   21    0.08863      0.00000     0.41017    0.00120     0.41137
 =======================================================================
   * Total *    0.00000     16.99469    32.83869    0.16662    50.00000

 Normal termination of Gaussian 16 at Wed Dec  9 23:38:07 2020.
