 Gaussian 16, Revision A.03,

 -----------------------------------------------------------
 # opt freq B3LYP/6-31G(d) empiricaldispersion=gd3bj scf=xqc
 -----------------------------------------------------------

 ------------------------------
 CID_134604121_JID_634_neutraal
 ------------------------------
 Symbolic Z-matrix:
 Charge =  0 Multiplicity = 1

 SCF Done:  E(RB3LYP) =  -438.850680928     A.U. after   14 cycles
 SCF Done:  E(RB3LYP) =  -438.853601520     A.U. after   12 cycles
 SCF Done:  E(RB3LYP) =  -438.854310043     A.U. after   11 cycles
 SCF Done:  E(RB3LYP) =  -438.854711148     A.U. after   11 cycles
 SCF Done:  E(RB3LYP) =  -438.854913487     A.U. after   11 cycles
 SCF Done:  E(RB3LYP) =  -438.855088960     A.U. after   11 cycles
 SCF Done:  E(RB3LYP) =  -438.855305711     A.U. after   11 cycles
 SCF Done:  E(RB3LYP) =  -438.855568217     A.U. after   12 cycles
 SCF Done:  E(RB3LYP) =  -438.855544753     A.U. after   11 cycles
 SCF Done:  E(RB3LYP) =  -438.855811976     A.U. after   11 cycles
 SCF Done:  E(RB3LYP) =  -438.856839236     A.U. after    8 cycles
 SCF Done:  E(RB3LYP) =  -438.856840150     A.U. after    9 cycles
 SCF Done:  E(RB3LYP) =  -438.856840593     A.U. after    9 cycles
 SCF Done:  E(RB3LYP) =  -438.856840769     A.U. after    8 cycles
 SCF Done:  E(RB3LYP) =  -438.856840849     A.U. after    7 cycles
 SCF Done:  E(RB3LYP) =  -438.856840866     A.U. after    7 cycles
 Optimization completed.
    -- Stationary point found.

 1\1\GINC-NODE313\FOpt\RB3LYP\6-31G(d)\C7H13N3\VSC10255\08-Dec-2020\0\\
 # opt freq B3LYP/6-31G(d) empiricaldispersion=gd3bj scf=xqc\\CID_13460
 4121_JID_634_neutraal\\0,1\C,0.9223186047,0.1694260677,0.5856612644\C,
 0.4525177334,-1.1655164666,-0.0044349853\C,0.9979576181,-2.356213405,0
 .808806002\C,-1.0482373811,-1.2173493612,-0.0723446343\N,-1.889262696,
 -0.6565963159,0.7748802368\C,-3.1530720829,-1.044684193,0.3740248493\C
 ,-3.0836403564,-1.843990513,-0.7426878257\N,-1.7276250222,-1.951621646
 7,-1.0132733627\N,-4.0278555365,-2.4740524902,-1.5722641795\C,-4.29440

 Normal termination of Gaussian 16 at Tue Dec  8 12:29:38 2020.

 --------------------------------------------------------------------
 #N Geom=AllCheck Guess=TCheck SCRF=Check GenChk RB3LYP/6-31G(d) Freq
 --------------------------------------------------------------------

 Structure from the checkpoint file:  "JID_634.chk"
 ------------------------------
 CID_134604121_JID_634_neutraal
 ------------------------------
 Charge =  0 Multiplicity = 1

 SCF Done:  E(RB3LYP) =  -438.856840866     A.U. after    1 cycles

  Exact polarizability: 121.353  -1.346  83.682  -0.636   7.963  67.579
 Approx polarizability: 153.253  -0.658 127.313   3.575  22.700 105.147

                      1                      2                      3
                      A                      A                      A
 Frequencies --     19.3928                47.2795               104.1378
 Red. masses --      3.0720                 2.5440                 3.3676
 Frc consts  --      0.0007                 0.0034                 0.0215
 IR Inten    --      1.0845                 5.1662                 0.8522

                      4                      5                      6
                      A                      A                      A
 Frequencies --    163.1885               170.6023               203.8695
 Red. masses --      1.5018                 3.2868                 1.5633
 Frc consts  --      0.0236                 0.0564                 0.0383
 IR Inten    --      1.1665                 0.3516                 1.6006

                      7                      8                      9
                      A                      A                      A
 Frequencies --    223.3721               263.9580               296.8049
 Red. masses --      1.0393                 1.2253                 2.5709
 Frc consts  --      0.0306                 0.0503                 0.1334
 IR Inten    --      0.2287                 0.3365                 1.3828

                     10                     11                     12
                      A                      A                      A
 Frequencies --    360.4066               391.3165               454.5793
 Red. masses --      3.5798                 2.6389                 4.1391
 Frc consts  --      0.2740                 0.2381                 0.5039
 IR Inten    --      4.9274                 7.6909                 7.8438

                     13                     14                     15
                      A                      A                      A
 Frequencies --    493.7592               525.8674               632.8422
 Red. masses --      2.6167                 1.2703                 3.3436
 Frc consts  --      0.3759                 0.2070                 0.7890
 IR Inten    --      8.8052                55.8905                15.8120

                     16                     17                     18
                      A                      A                      A
 Frequencies --    677.7687               695.4783               749.0840
 Red. masses --      3.4932                 2.7859                 5.2534
 Frc consts  --      0.9454                 0.7939                 1.7368
 IR Inten    --      2.4655                24.5770                 2.0204

                     19                     20                     21
                      A                      A                      A
 Frequencies --    783.9583               814.0675               893.9031
 Red. masses --      1.4557                 1.4170                 2.6970
 Frc consts  --      0.5271                 0.5533                 1.2697
 IR Inten    --     76.1436                 9.5598                 0.2250

                     22                     23                     24
                      A                      A                      A
 Frequencies --    944.6142               977.5699               997.3735
 Red. masses --      1.1499                 1.5530                 3.4449
 Frc consts  --      0.6045                 0.8744                 2.0190
 IR Inten    --      1.5620                 0.0251                22.4860

                     25                     26                     27
                      A                      A                      A
 Frequencies --   1027.8594              1072.8620              1106.5570
 Red. masses --      3.6335                 2.4397                 1.6560
 Frc consts  --      2.2617                 1.6545                 1.1947
 IR Inten    --      7.5394                15.1079                11.4234

                     28                     29                     30
                      A                      A                      A
 Frequencies --   1135.7387              1152.1162              1165.4704
 Red. masses --      2.2366                 1.6193                 1.5010
 Frc consts  --      1.6998                 1.2664                 1.2012
 IR Inten    --      1.7512                34.3922                 0.9922

                     31                     32                     33
                      A                      A                      A
 Frequencies --   1181.1134              1198.4386              1225.2080
 Red. masses --      1.8512                 2.0767                 1.7211
 Frc consts  --      1.5215                 1.7573                 1.5222
 IR Inten    --      3.3148                 3.8498                 2.3092

                     34                     35                     36
                      A                      A                      A
 Frequencies --   1297.7843              1352.9355              1356.6530
 Red. masses --      2.4818                 1.4022                 1.8310
 Frc consts  --      2.4628                 1.5122                 1.9856
 IR Inten    --     10.9873                 6.2975                16.0580

                     37                     38                     39
                      A                      A                      A
 Frequencies --   1403.3319              1424.1113              1444.0543
 Red. masses --      2.4575                 1.2514                 1.2450
 Frc consts  --      2.8514                 1.4953                 1.5296
 IR Inten    --     31.6750                 7.6322                 5.0537

                     40                     41                     42
                      A                      A                      A
 Frequencies --   1465.9689              1473.8284              1503.4089
 Red. masses --      2.6136                 1.3187                 1.5003
 Frc consts  --      3.3094                 1.6877                 1.9980
 IR Inten    --     15.3376                 3.6587                 2.1883

                     43                     44                     45
                      A                      A                      A
 Frequencies --   1514.4679              1518.0092              1520.4688
 Red. masses --      1.0435                 1.0685                 1.0525
 Frc consts  --      1.4102                 1.4507                 1.4336
 IR Inten    --      0.8742                12.8124                 1.5122

                     46                     47                     48
                      A                      A                      A
 Frequencies --   1529.2704              1535.5922              1543.0187
 Red. masses --      1.0459                 1.2390                 1.0736
 Frc consts  --      1.4412                 1.7214                 1.5060
 IR Inten    --      8.3640                 0.6810                 6.6229

                     49                     50                     51
                      A                      A                      A
 Frequencies --   1565.3453              1641.5159              3006.9488
 Red. masses --      2.9211                 4.6180                 1.0502
 Frc consts  --      4.2171                 7.3315                 5.5949
 IR Inten    --     15.1714                98.5803                77.1751

                     52                     53                     54
                      A                      A                      A
 Frequencies --   3010.6403              3046.2807              3059.3443
 Red. masses --      1.0831                 1.0344                 1.0362
 Frc consts  --      5.7839                 5.6558                 5.7142
 IR Inten    --     29.6145                30.2631                30.0558

                     55                     56                     57
                      A                      A                      A
 Frequencies --   3096.9845              3113.6778              3125.0962
 Red. masses --      1.0843                 1.1029                 1.1026
 Frc consts  --      6.1275                 6.3000                 6.3446
 IR Inten    --     38.4814                38.8576                16.0509

                     58                     59                     60
                      A                      A                      A
 Frequencies --   3126.9262              3134.5365              3144.4016
 Red. masses --      1.1028                 1.1045                 1.1018
 Frc consts  --      6.3530                 6.3940                 6.4184
 IR Inten    --     44.8508                33.1052                22.3360

                     61                     62                     63
                      A                      A                      A
 Frequencies --   3251.3393              3539.2566              3643.6754
 Red. masses --      1.0965                 1.0741                 1.0801
 Frc consts  --      6.8297                 7.9275                 8.4491
 IR Inten    --     14.4999                 3.6324                35.3085

 - Thermochemistry -
 -------------------
 Temperature   298.150 Kelvin.  Pressure   1.00000 Atm.
 Atom     1 has atomic number  6 and mass  12.00000

 Molecular mass:   139.11095 amu.
 Principal axes and moments of inertia in atomic units:
                           1         2         3
     Eigenvalues --   581.199322504.174272785.14472
           X            0.99998   0.00181  -0.00636
           Y           -0.00198   0.99963  -0.02727
           Z            0.00631   0.02728   0.99961
 This molecule is an asymmetric top.
 Rotational symmetry number  1.
 Warning -- assumption of classical behavior for rotation
           may cause significant error
 Rotational temperatures (Kelvin)      0.14903     0.03459     0.03110
 Rotational constants (GHZ):           3.10520     0.72069     0.64799
 Zero-point vibrational energy     529583.4 (Joules/Mol)
                                  126.57347 (Kcal/Mol)
 Warning -- explicit consideration of  14 degrees of freedom as
           vibrations may cause significant error
 Vibrational temperatures:     27.90    68.02   149.83   234.79   245.46
          (Kelvin)            293.32   321.38   379.78   427.04   518.54
                              563.02   654.04   710.41   756.61   910.52
                              975.16  1000.64  1077.76  1127.94  1171.26
                             1286.13  1359.09  1406.51  1435.00  1478.86
                             1543.61  1592.09  1634.07  1657.64  1676.85
                             1699.36  1724.29  1762.80  1867.22  1946.57
                             1951.92  2019.08  2048.98  2077.67  2109.20
                             2120.51  2163.07  2178.98  2184.08  2187.62
                             2200.28  2209.37  2220.06  2252.18  2361.78
                             4326.33  4331.64  4382.92  4401.71  4455.87
                             4479.89  4496.32  4498.95  4509.90  4524.09
                             4677.95  5092.20  5242.44

 Zero-point correction=                           0.201708 (Hartree/Particle)
 Thermal correction to Energy=                    0.212675
 Thermal correction to Enthalpy=                  0.213619
 Thermal correction to Gibbs Free Energy=         0.163925
 Sum of electronic and zero-point Energies=           -438.655133
 Sum of electronic and thermal Energies=              -438.644166
 Sum of electronic and thermal Enthalpies=            -438.643222
 Sum of electronic and thermal Free Energies=         -438.692916

                     E (Thermal)             CV                S
                      KCal/Mol        Cal/Mol-Kelvin    Cal/Mol-Kelvin
 Total                  133.455             39.698            104.588
 Electronic               0.000              0.000              0.000
 Translational            0.889              2.981             40.702
 Rotational               0.889              2.981             29.784
 Vibrational            131.678             33.736             34.102
 Vibration     1          0.593              1.986              6.695
 Vibration     2          0.595              1.979              4.928
 Vibration     3          0.605              1.946              3.375
 Vibration     4          0.623              1.888              2.513
 Vibration     5          0.626              1.879              2.429
 Vibration     6          0.640              1.834              2.098
 Vibration     7          0.649              1.805              1.932
 Vibration     8          0.671              1.739              1.635
 Vibration     9          0.690              1.680              1.435
 Vibration    10          0.735              1.554              1.120
 Vibration    11          0.759              1.489              0.995
 Vibration    12          0.813              1.351              0.782
 Vibration    13          0.849              1.264              0.674
 Vibration    14          0.881              1.193              0.597

 Optimization completed.
    -- Stationary point found.

 1\1\GINC-NODE313\Freq\RB3LYP\6-31G(d)\C7H13N3\VSC10255\08-Dec-2020\0\\
 #N Geom=AllCheck Guess=TCheck SCRF=Check GenChk RB3LYP/6-31G(d) Freq\\
 CID_134604121_JID_634_neutraal\\0,1\C,0.9223186047,0.1694260677,0.5856
 612644\C,0.4525177334,-1.1655164666,-0.0044349853\C,0.9979576181,-2.35
 6213405,0.808806002\C,-1.0482373811,-1.2173493612,-0.0723446343\N,-1.8
 89262696,-0.6565963159,0.7748802368\C,-3.1530720829,-1.044684193,0.374
 0248493\C,-3.0836403564,-1.843990513,-0.7426878257\N,-1.7276250222,-1.
 9516216467,-1.0132733627\N,-4.0278555365,-2.4740524902,-1.5722641795\C

 Normal termination of Gaussian 16 at Tue Dec  8 12:39:32 2020.

 ----------------------------------------------------------------------
 # B3LYP/6-311++G(d,p) empiricaldispersion=gd3bj scf=xqc pop=npa geom=c
 heck
 ----------------------------------------------------------------------

 --------------------------------------
 CID_134604121_JID_634_Energie_neutraal
 --------------------------------------
 Structure from the checkpoint file:  "JID_634.chk"
 Charge =  0 Multiplicity = 1

 SCF Done:  E(RB3LYP) =  -438.984459442     A.U. after   14 cycles
 Normal termination of Gaussian 16 at Tue Dec  8 12:43:20 2020.

 ----------------------------------------------------------------------
 # B3LYP/6-311++G(d,p) empiricaldispersion=gd3bj scf=xqc pop=npa geom=c
 heck
 ----------------------------------------------------------------------

 ------------------------------------
 CID_134604121_JID_634_Energie_kation
 ------------------------------------
 Structure from the checkpoint file:  "JID_634.chk"
 Charge =  1 Multiplicity = 2

 SCF Done:  E(UB3LYP) =  -438.702371779     A.U. after   17 cycles
 Normal termination of Gaussian 16 at Tue Dec  8 12:49:38 2020.
 Gaussian 16:  ES64L-G16RevA.03 25-Dec-2016

 -----------------------------------
 CID_134604121_JID_634_Energie_anion
 -----------------------------------
 Structure from the checkpoint file:  "JID_634.chk"
 Charge = -1 Multiplicity = 2

                         Standard orientation:
 ---------------------------------------------------------------------
 Center     Atomic      Atomic             Coordinates (Angstroms)
 Number     Number       Type             X           Y           Z
 ---------------------------------------------------------------------
      1          6           0        3.182729    0.651987   -0.389271
      2          6           0        2.095633   -0.429171   -0.371398
      3          6           0        2.390007   -1.496746    0.701101
      4          6           0        0.741239    0.183171   -0.147307
      5          7           0        0.476377    1.250858    0.580327
      6          6           0       -0.898475    1.386055    0.576432
      7          6           0       -1.481347    0.393432   -0.175710
      8          7           0       -0.418336   -0.374235   -0.627676
      9          7           0       -2.799610    0.071813   -0.543762
     10          6           0       -3.450825   -0.940668    0.300762
     11          1           0        3.177381    1.205264    0.553990
     12          1           0        3.010333    1.371634   -1.195620
     13          1           0        4.170511    0.199240   -0.529096
     14          1           0        2.081881   -0.929215   -1.351605
     15          1           0        2.414280   -1.034065    1.693523
     16          1           0        1.619806   -2.276170    0.711263
     17          1           0        3.359234   -1.974796    0.517685
     18          1           0       -1.389635    2.194214    1.102415
     19          1           0       -0.503662   -1.142211   -1.277880
     20          1           0       -3.361702    0.916847   -0.574214
     21          1           0       -3.508304   -0.656487    1.363120
     22          1           0       -4.461669   -1.123089   -0.076988
     23          1           0       -2.891231   -1.878571    0.233528
 ---------------------------------------------------------------------

 SCF Done:  E(UB3LYP) =  -438.971977664     A.U. after   30 cycles

 The electronic state is 2-A.
 Alpha  occ. eigenvalues --  -14.24585 -14.21132 -14.17911 -10.11535 -10.11350
 Alpha  occ. eigenvalues --  -10.08386 -10.08216 -10.06741 -10.05836 -10.05771
 Alpha  occ. eigenvalues --   -0.90487  -0.81069  -0.75182  -0.70306  -0.61931
 Alpha  occ. eigenvalues --   -0.58422  -0.56413  -0.51352  -0.49299  -0.47213
 Alpha  occ. eigenvalues --   -0.41259  -0.38458  -0.36207  -0.34128  -0.33418
 Alpha  occ. eigenvalues --   -0.32879  -0.31341  -0.30777  -0.28958  -0.28254
 Alpha  occ. eigenvalues --   -0.27637  -0.25002  -0.24298  -0.23697  -0.18191
 Alpha  occ. eigenvalues --   -0.16801  -0.14675  -0.09979   0.04514
 Alpha virt. eigenvalues --    0.06609   0.08020   0.08484   0.09133   0.09509
 Alpha virt. eigenvalues --    0.10467   0.11508   0.11591   0.12236   0.13008
 Alpha virt. eigenvalues --    0.13467   0.13679   0.14094   0.15274   0.15456

  Beta  occ. eigenvalues --  -14.24531 -14.21111 -14.17911 -10.11534 -10.11347
  Beta  occ. eigenvalues --  -10.08331 -10.08197 -10.06729 -10.05807 -10.05762
  Beta  occ. eigenvalues --   -0.90452  -0.81033  -0.75124  -0.70272  -0.61890
  Beta  occ. eigenvalues --   -0.58380  -0.56320  -0.51293  -0.49224  -0.47156
  Beta  occ. eigenvalues --   -0.41213  -0.38396  -0.36149  -0.34088  -0.33358
  Beta  occ. eigenvalues --   -0.32843  -0.31292  -0.30746  -0.28926  -0.28221
  Beta  occ. eigenvalues --   -0.27580  -0.24972  -0.24265  -0.23650  -0.18164
  Beta  occ. eigenvalues --   -0.16765  -0.14644  -0.09947
  Beta virt. eigenvalues --    0.07047   0.07594   0.08866   0.09260   0.09697
  Beta virt. eigenvalues --    0.10011   0.10853   0.11853   0.12117   0.12510
  Beta virt. eigenvalues --    0.13348   0.13745   0.13907   0.14220   0.15338

 Mulliken charges and spin densities:
               1          2
     1  C   -0.027308  -0.664716
     2  C   -1.056496   1.555586
     3  C    0.380262  -0.937112
     4  C    0.905064  -1.377051
     5  N   -0.074740  -0.018549
     6  C   -0.253146   0.437106
     7  C    0.821528  -1.175459
     8  N   -0.134778  -0.078117
     9  N   -0.390757   0.284964
    10  C    1.305339  -1.668112
    11  H    0.165143  -0.006804
    12  H    0.080942   0.056012
    13  H   -0.097058   0.239499
    14  H   -0.515327   0.681462
    15  H    0.043821   0.099744
    16  H   -0.052955   0.186788
    17  H   -0.241238   0.386973
    18  H   -0.186389   0.334155
    19  H   -0.276264   0.598693
    20  H   -0.136839   0.385061
    21  H   -0.178100   0.307316
    22  H   -0.651453   0.794984
    23  H   -0.429252   0.577578
 Sum of Mulliken charges =  -1.00000   1.00000

 Dipole moment (field-independent basis, Debye):
    X=              3.8096    Y=              3.2989    Z=              1.5338  Tot=              5.2676
 Quadrupole moment (field-independent basis, Debye-Ang):
   XX=           -129.8987   YY=            -99.8295   ZZ=            -90.9385
   XY=             -1.7966   XZ=              0.1115   YZ=             -4.8721

 Summary of Natural Population Analysis:

                                       Natural Population
                Natural  -----------------------------------------------
    Atom  No    Charge         Core      Valence    Rydberg      Total
 -----------------------------------------------------------------------
      C    1   -0.28026      0.99966     2.27410    0.00650     3.28026
      C    2   -0.13251      0.99958     2.12189    0.01104     3.13251
      C    3   -0.27825      0.99965     2.27246    0.00615     3.27825
      C    4    0.19172      0.99961     1.78915    0.01953     2.80828
      N    5   -0.26614      0.99969     2.75749    0.00896     3.76614
      C    6   -0.05223      0.99950     2.03982    0.01291     3.05223
      C    7    0.14319      0.99949     1.84082    0.01650     2.85681
      N    8   -0.27511      0.99962     2.76577    0.00972     3.77511
      N    9   -0.33591      0.99972     2.82415    0.01205     3.83591
      C   10   -0.17113      0.99964     2.16468    0.00681     3.17113
      H   11    0.10481      0.00000     0.39402    0.00117     0.39519
      H   12    0.10065      0.00000     0.39857    0.00078     0.39935
      H   13    0.09441      0.00000     0.40484    0.00075     0.40559
      H   14    0.10097      0.00000     0.39572    0.00331     0.39903
      H   15    0.09839      0.00000     0.40066    0.00095     0.40161
      H   16    0.10294      0.00000     0.39573    0.00133     0.39706
      H   17    0.09635      0.00000     0.40261    0.00104     0.40365
      H   18    0.09418      0.00000     0.40467    0.00115     0.40582
      H   19    0.21004      0.00000     0.28328    0.00668     0.28996
      H   20    0.18223      0.00000     0.31364    0.00413     0.31777
      H   21    0.08098      0.00000     0.41638    0.00265     0.41902
      H   22    0.09568      0.00000     0.40128    0.00304     0.40432
      H   23    0.09501      0.00000     0.40235    0.00264     0.40499
 =======================================================================
   * Total *   -0.00000      9.99616    27.86407    0.13977    38.00000

 Normal termination of Gaussian 16 at Tue Dec  8 13:04:39 2020.
