 Gaussian 16, Revision A.03,

 -----------------------------------------------------------
 # opt freq B3LYP/6-31G(d) empiricaldispersion=gd3bj scf=xqc
 -----------------------------------------------------------

 -------------------------------
 CID_113749737_JID_8793_neutraal
 -------------------------------
 Symbolic Z-matrix:
 Charge =  0 Multiplicity = 1

 SCF Done:  E(RB3LYP) =  -827.867345502     A.U. after   14 cycles
 SCF Done:  E(RB3LYP) =  -827.873391254     A.U. after   12 cycles
 SCF Done:  E(RB3LYP) =  -827.873123694     A.U. after   13 cycles
 SCF Done:  E(RB3LYP) =  -827.875121096     A.U. after   12 cycles
 SCF Done:  E(RB3LYP) =  -827.875693596     A.U. after   12 cycles
 SCF Done:  E(RB3LYP) =  -827.875512625     A.U. after   12 cycles
 SCF Done:  E(RB3LYP) =  -827.876224096     A.U. after   11 cycles
 SCF Done:  E(RB3LYP) =  -827.876194949     A.U. after   12 cycles
 SCF Done:  E(RB3LYP) =  -827.876347297     A.U. after   10 cycles
 SCF Done:  E(RB3LYP) =  -827.876344067     A.U. after   10 cycles
 SCF Done:  E(RB3LYP) =  -827.878366881     A.U. after   11 cycles
 SCF Done:  E(RB3LYP) =  -827.878362565     A.U. after   10 cycles
 SCF Done:  E(RB3LYP) =  -827.878375836     A.U. after   10 cycles
 SCF Done:  E(RB3LYP) =  -827.878376427     A.U. after    8 cycles
 SCF Done:  E(RB3LYP) =  -827.878376998     A.U. after    8 cycles
 SCF Done:  E(RB3LYP) =  -827.878377022     A.U. after    6 cycles
 Optimization completed.
    -- Stationary point found.
 Normal termination of Gaussian 16 at Fri Dec 11 21:47:36 2020.

 --------------------------------------------------------------------
 #N Geom=AllCheck Guess=TCheck SCRF=Check GenChk RB3LYP/6-31G(d) Freq
 --------------------------------------------------------------------

 Structure from the checkpoint file:  "JID_8793.chk"
 -------------------------------
 CID_113749737_JID_8793_neutraal
 -------------------------------
 Charge =  0 Multiplicity = 1

 SCF Done:  E(RB3LYP) =  -827.878377022     A.U. after    1 cycles

  Exact polarizability: 179.172   1.862 146.157  -0.279  -3.002 133.900
 Approx polarizability: 218.674   2.486 230.675   1.969 -10.911 201.652

                      1                      2                      3
                      A                      A                      A
 Frequencies --     26.5850                42.0080                65.9686
 Red. masses --      3.8325                 3.3216                 6.1234
 Frc consts  --      0.0016                 0.0035                 0.0157
 IR Inten    --      0.0706                 0.6016                 1.9083

                      4                      5                      6
                      A                      A                      A
 Frequencies --     75.6357                85.7802               108.0676
 Red. masses --      5.7857                 5.7373                 3.5939
 Frc consts  --      0.0195                 0.0249                 0.0247
 IR Inten    --      0.5844                 0.4099                 0.2974

                      7                      8                      9
                      A                      A                      A
 Frequencies --    124.0919               140.4709               153.0140
 Red. masses --      2.2181                 2.4689                 3.0781
 Frc consts  --      0.0201                 0.0287                 0.0425
 IR Inten    --      0.4752                 0.5120                 0.1642

                     10                     11                     12
                      A                      A                      A
 Frequencies --    177.4171               202.7659               216.1331
 Red. masses --      3.4467                 2.1171                 1.9437
 Frc consts  --      0.0639                 0.0513                 0.0535
 IR Inten    --      0.8277                 0.7133                 0.1672

                     13                     14                     15
                      A                      A                      A
 Frequencies --    225.0311               245.2870               280.8099
 Red. masses --      2.3313                 2.1183                 2.0508
 Frc consts  --      0.0696                 0.0751                 0.0953
 IR Inten    --      0.5511                 3.9160                 0.7334

                     16                     17                     18
                      A                      A                      A
 Frequencies --    293.6978               312.9217               327.2807
 Red. masses --      1.8759                 4.5837                 1.9043
 Frc consts  --      0.0953                 0.2644                 0.1202
 IR Inten    --      0.7441                 4.2996                 2.8468

                     19                     20                     21
                      A                      A                      A
 Frequencies --    371.5448               392.8523               400.9324
 Red. masses --      2.6150                 3.1226                 4.1909
 Frc consts  --      0.2127                 0.2839                 0.3969
 IR Inten    --      5.0647                 0.7547                 4.7841

                     22                     23                     24
                      A                      A                      A
 Frequencies --    438.3387               512.0338               526.0415
 Red. masses --      3.1559                 3.5157                 2.6646
 Frc consts  --      0.3573                 0.5431                 0.4344
 IR Inten    --      3.8009                 4.8405                10.5113

                     25                     26                     27
                      A                      A                      A
 Frequencies --    572.6578               595.9930               613.2754
 Red. masses --      1.8885                 3.2715                 2.2357
 Frc consts  --      0.3649                 0.6847                 0.4954
 IR Inten    --      2.1015                41.1128                31.5475

                     28                     29                     30
                      A                      A                      A
 Frequencies --    653.3501               693.0306               726.9418
 Red. masses --      2.3475                 3.5090                 3.2138
 Frc consts  --      0.5904                 0.9930                 1.0006
 IR Inten    --     48.3103                10.6242                30.8246

                     31                     32                     33
                      A                      A                      A
 Frequencies --    741.9102               759.8621               781.4578
 Red. masses --      3.3116                 2.5584                 1.5055
 Frc consts  --      1.0740                 0.8703                 0.5417
 IR Inten    --      5.3945                 3.3897                 2.2512

                     34                     35                     36
                      A                      A                      A
 Frequencies --    793.6611               823.5238               831.0194
 Red. masses --      1.9227                 2.7336                 2.5363
 Frc consts  --      0.7136                 1.0923                 1.0320
 IR Inten    --      9.8905                 9.8111                 6.8697

                     37                     38                     39
                      A                      A                      A
 Frequencies --    854.0684               870.0208               877.5550
 Red. masses --      1.9633                 4.1148                 2.0528
 Frc consts  --      0.8438                 1.8351                 0.9314
 IR Inten    --      5.8508                 9.0027                 0.7892

                     40                     41                     42
                      A                      A                      A
 Frequencies --    905.4805               915.8124               922.6296
 Red. masses --      2.5499                 2.2767                 2.4642
 Frc consts  --      1.2318                 1.1250                 1.2359
 IR Inten    --      1.8737                 1.9623                 1.4710

                     43                     44                     45
                      A                      A                      A
 Frequencies --    952.0355               989.8390              1011.6825
 Red. masses --      1.8819                 2.3863                 1.7017
 Frc consts  --      1.0050                 1.3776                 1.0262
 IR Inten    --     12.3392                 5.5883                 1.8136

                     46                     47                     48
                      A                      A                      A
 Frequencies --   1014.3281              1039.7327              1047.6720
 Red. masses --      2.2855                 1.8817                 1.7221
 Frc consts  --      1.3855                 1.1985                 1.1137
 IR Inten    --      1.6007                 2.4823                10.1913

                     49                     50                     51
                      A                      A                      A
 Frequencies --   1061.4210              1067.7899              1080.2588
 Red. masses --      2.0408                 1.8100                 1.4314
 Frc consts  --      1.3547                 1.2159                 0.9842
 IR Inten    --      3.2583                 2.2406                 1.7691

                     52                     53                     54
                      A                      A                      A
 Frequencies --   1088.3051              1122.9951              1137.7027
 Red. masses --      1.8464                 1.7736                 2.0642
 Frc consts  --      1.2885                 1.3179                 1.5742
 IR Inten    --      0.3425                12.4674                32.7239

                     55                     56                     57
                      A                      A                      A
 Frequencies --   1156.5540              1174.6737              1184.0056
 Red. masses --      1.9762                 1.8250                 1.6388
 Frc consts  --      1.5574                 1.4837                 1.3535
 IR Inten    --      7.1768                37.0022                14.9304

                     58                     59                     60
                      A                      A                      A
 Frequencies --   1199.7910              1207.9369              1215.9262
 Red. masses --      1.7655                 1.5543                 1.3892
 Frc consts  --      1.4974                 1.3362                 1.2102
 IR Inten    --     79.0874                10.1995                24.4343

                     61                     62                     63
                      A                      A                      A
 Frequencies --   1246.7929              1263.2698              1286.9268
 Red. masses --      2.8045                 1.4056                 1.4034
 Frc consts  --      2.5686                 1.3216                 1.3695
 IR Inten    --     27.2981                31.7661                 6.5747

                     64                     65                     66
                      A                      A                      A
 Frequencies --   1295.7665              1303.3565              1313.3073
 Red. masses --      1.3321                 1.7462                 1.1832
 Frc consts  --      1.3178                 1.7477                 1.2024
 IR Inten    --      3.2095                22.2904                 0.9323

                     67                     68                     69
                      A                      A                      A
 Frequencies --   1322.9841              1336.5791              1344.8295
 Red. masses --      1.3735                 1.4673                 1.3357
 Frc consts  --      1.4164                 1.5444                 1.4233
 IR Inten    --      0.7056                17.8063                 1.4048

                     70                     71                     72
                      A                      A                      A
 Frequencies --   1348.2044              1353.0779              1365.8320
 Red. masses --      1.4203                 1.4323                 1.4963
 Frc consts  --      1.5210                 1.5450                 1.6446
 IR Inten    --      3.1214                13.7906                44.0789

                     73                     74                     75
                      A                      A                      A
 Frequencies --   1370.4339              1374.3156              1385.8189
 Red. masses --      1.4360                 1.4048                 1.6428
 Frc consts  --      1.5890                 1.5633                 1.8589
 IR Inten    --      7.7821                13.4015                10.3819

                     76                     77                     78
                      A                      A                      A
 Frequencies --   1389.8621              1394.1958              1405.9137
 Red. masses --      1.3701                 1.3691                 1.4309
 Frc consts  --      1.5594                 1.5680                 1.6664
 IR Inten    --      8.6516                 8.7214                38.0643

                     79                     80                     81
                      A                      A                      A
 Frequencies --   1406.5986              1433.5662              1452.7721
 Red. masses --      1.4824                 1.3983                 1.2726
 Frc consts  --      1.7280                 1.6931                 1.5825
 IR Inten    --      8.2171                83.1157                17.4570

                     82                     83                     84
                      A                      A                      A
 Frequencies --   1464.0306              1513.0925              1521.1191
 Red. masses --      2.2479                 1.0813                 1.0674
 Frc consts  --      2.8388                 1.4585                 1.4552
 IR Inten    --    122.8329                 2.2085                 4.0604

                     85                     86                     87
                      A                      A                      A
 Frequencies --   1521.7839              1527.8014              1533.2063
 Red. masses --      1.0861                 1.0855                 1.0481
 Frc consts  --      1.4819                 1.4928                 1.4516
 IR Inten    --      2.7988                 2.8129                 2.1882

                     88                     89                     90
                      A                      A                      A
 Frequencies --   1535.4228              1542.8312              1545.5842
 Red. masses --      1.0656                 1.0839                 1.0628
 Frc consts  --      1.4801                 1.5201                 1.4959
 IR Inten    --     17.1617                 7.1861                 0.6170

                     91                     92                     93
                      A                      A                      A
 Frequencies --   1549.6449              1552.3830              1739.5014
 Red. masses --      1.0842                 1.0574                10.5905
 Frc consts  --      1.5339                 1.5013                18.8807
 IR Inten    --      3.0118                 4.6970               217.1325

                     94                     95                     96
                      A                      A                      A
 Frequencies --   1852.4685              3021.9691              3027.1839
 Red. masses --      9.7852                 1.0764                 1.0703
 Frc consts  --     19.7843                 5.7916                 5.7787
 IR Inten    --    275.6221                15.8052                17.0285

                     97                     98                     99
                      A                      A                      A
 Frequencies --   3036.9556              3047.3661              3053.4247
 Red. masses --      1.0677                 1.0649                 1.0629
 Frc consts  --      5.8021                 5.8265                 5.8390
 IR Inten    --     26.4399                58.2780                32.7936

                    100                    101                    102
                      A                      A                      A
 Frequencies --   3056.0332              3060.1071              3062.8442
 Red. masses --      1.0401                 1.0722                 1.0423
 Frc consts  --      5.7231                 5.9155                 5.7607
 IR Inten    --     29.5883                22.9578                32.1860

                    103                    104                    105
                      A                      A                      A
 Frequencies --   3067.6360              3076.0751              3079.0014
 Red. masses --      1.0619                 1.1012                 1.0985
 Frc consts  --      5.8877                 6.1389                 6.1356
 IR Inten    --     18.6822                33.7004                27.4015

                    106                    107                    108
                      A                      A                      A
 Frequencies --   3083.8335              3096.2772              3105.0134
 Red. masses --      1.0858                 1.1007                 1.0879
 Frc consts  --      6.0837                 6.2175                 6.1798
 IR Inten    --     12.6551                28.3212                20.9860

                    109                    110                    111
                      A                      A                      A
 Frequencies --   3110.6065              3114.2337              3120.5855
 Red. masses --      1.1008                 1.1010                 1.0938
 Frc consts  --      6.2756                 6.2912                 6.2755
 IR Inten    --     63.1742                59.4880                24.4430

                    112                    113                    114
                      A                      A                      A
 Frequencies --   3128.0898              3130.3006              3133.1547
 Red. masses --      1.0974                 1.0965                 1.0869
 Frc consts  --      6.3269                 6.3304                 6.2866
 IR Inten    --     20.0297                17.2777                13.2004

                    115                    116                    117
                      A                      A                      A
 Frequencies --   3158.2030              3164.0182              3684.6538
 Red. masses --      1.1007                 1.0997                 1.0641
 Frc consts  --      6.4685                 6.4865                 8.5119
 IR Inten    --     16.3579                12.2178                58.8679

 - Thermochemistry -
 -------------------
 Temperature   298.150 Kelvin.  Pressure   1.00000 Atm.
 Atom     1 has atomic number  6 and mass  12.00000

 Molecular mass:   253.16779 amu.
 Principal axes and moments of inertia in atomic units:
                           1         2         3
     Eigenvalues --  2407.721986309.676797032.93891
           X            0.99996   0.00772   0.00438
           Y           -0.00772   0.99997  -0.00143
           Z           -0.00439   0.00140   0.99999
 This molecule is an asymmetric top.
 Rotational symmetry number  1.
 Warning -- assumption of classical behavior for rotation
           may cause significant error
 Rotational temperatures (Kelvin)      0.03597     0.01373     0.01232
 Rotational constants (GHZ):           0.74956     0.28603     0.25661
 Zero-point vibrational energy     956058.2 (Joules/Mol)
                                  228.50339 (Kcal/Mol)
 Warning -- explicit consideration of  27 degrees of freedom as
           vibrations may cause significant error
 Vibrational temperatures:     38.25    60.44    94.91   108.82   123.42
          (Kelvin)            155.49   178.54   202.11   220.15   255.26
                              291.73   310.97   323.77   352.91   404.02
                              422.57   450.22   470.88   534.57   565.23
                              576.85   630.67   736.70   756.86   823.93
                              857.50   882.37   940.03   997.12  1045.91
                             1067.44  1093.27  1124.34  1141.90  1184.87
                             1195.65  1228.81  1251.77  1262.61  1302.78
                             1317.65  1327.46  1369.77  1424.16  1455.59
                             1459.39  1495.94  1507.37  1527.15  1536.31
                             1554.25  1565.83  1615.74  1636.90  1664.02
                             1690.09  1703.52  1726.23  1737.95  1749.45
                             1793.86  1817.56  1851.60  1864.32  1875.24
                             1889.56  1903.48  1923.04  1934.91  1939.77
                             1946.78  1965.13  1971.75  1977.33  1993.88
                             1999.70  2005.94  2022.80  2023.78  2062.58
                             2090.22  2106.41  2177.00  2188.55  2189.51
                             2198.17  2205.94  2209.13  2219.79  2223.75
                             2229.59  2233.53  2502.75  2665.29  4347.94
                             4355.44  4369.50  4384.48  4393.20  4396.95
                             4402.81  4406.75  4413.64  4425.79  4430.00
                             4436.95  4454.85  4467.42  4475.47  4480.69
                             4489.83  4500.62  4503.80  4507.91  4543.95
                             4552.32  5301.40

 Zero-point correction=                           0.364143 (Hartree/Particle)
 Thermal correction to Energy=                    0.382185
 Thermal correction to Enthalpy=                  0.383129
 Thermal correction to Gibbs Free Energy=         0.317714
 Sum of electronic and zero-point Energies=           -827.514234
 Sum of electronic and thermal Energies=              -827.496192
 Sum of electronic and thermal Enthalpies=            -827.495248
 Sum of electronic and thermal Free Energies=         -827.560663

                     E (Thermal)             CV                S
                      KCal/Mol        Cal/Mol-Kelvin    Cal/Mol-Kelvin
 Total                  239.825             68.998            137.677
 Electronic               0.000              0.000              0.000
 Translational            0.889              2.981             42.487
 Rotational               0.889              2.981             33.035
 Vibrational            238.047             63.036             62.155
 Vibration     1          0.593              1.984              6.069
 Vibration     2          0.595              1.980              5.162
 Vibration     3          0.597              1.971              4.270
 Vibration     4          0.599              1.965              4.001
 Vibration     5          0.601              1.959              3.754
 Vibration     6          0.606              1.943              3.303
 Vibration     7          0.610              1.929              3.036
 Vibration     8          0.615              1.913              2.797
 Vibration     9          0.619              1.899              2.634
 Vibration    10          0.628              1.870              2.355
 Vibration    11          0.639              1.836              2.108
 Vibration    12          0.645              1.816              1.991
 Vibration    13          0.650              1.803              1.918
 Vibration    14          0.660              1.771              1.764
 Vibration    15          0.680              1.709              1.529
 Vibration    16          0.688              1.685              1.453
 Vibration    17          0.701              1.649              1.347
 Vibration    18          0.711              1.621              1.273
 Vibration    19          0.743              1.531              1.073
 Vibration    20          0.760              1.485              0.989
 Vibration    21          0.767              1.468              0.959
 Vibration    22          0.799              1.387              0.832
 Vibration    23          0.867              1.223              0.629
 Vibration    24          0.881              1.192              0.596
 Vibration    25          0.929              1.090              0.499
 Vibration    26          0.954              1.040              0.457
 Vibration    27          0.973              1.004              0.427

 Optimization completed.
    -- Stationary point found.
 Normal termination of Gaussian 16 at Fri Dec 11 22:09:34 2020.

 ----------------------------------------------------------------------
 # B3LYP/6-311++G(d,p) empiricaldispersion=gd3bj scf=xqc pop=npa geom=c
 heck
 ----------------------------------------------------------------------

 ---------------------------------------
 CID_113749737_JID_8793_Energie_neutraal
 ---------------------------------------
 Structure from the checkpoint file:  "JID_8793.chk"
 Charge =  0 Multiplicity = 1

 SCF Done:  E(RB3LYP) =  -828.116611806     A.U. after   15 cycles
 Normal termination of Gaussian 16 at Fri Dec 11 22:19:47 2020.

 ----------------------------------------------------------------------
 # B3LYP/6-311++G(d,p) empiricaldispersion=gd3bj scf=xqc pop=npa geom=c
 heck
 ----------------------------------------------------------------------

 -------------------------------------
 CID_113749737_JID_8793_Energie_kation
 -------------------------------------
 Structure from the checkpoint file:  "JID_8793.chk"
 Charge =  1 Multiplicity = 2

 SCF Done:  E(UB3LYP) =  -827.800774563     A.U. after   28 cycles
 Normal termination of Gaussian 16 at Fri Dec 11 22:46:25 2020.
 Gaussian 16:  ES64L-G16RevA.03 25-Dec-2016

 ----------------------------------------------------------------------
 # B3LYP/6-311++G(d,p) empiricaldispersion=gd3bj scf=xqc pop=npa geom=c
 heck
 ----------------------------------------------------------------------

 ------------------------------------
 CID_113749737_JID_8793_Energie_anion
 ------------------------------------
 Structure from the checkpoint file:  "JID_8793.chk"
 Charge = -1 Multiplicity = 2

                         Standard orientation:
 ---------------------------------------------------------------------
 Center     Atomic      Atomic             Coordinates (Angstroms)
 Number     Number       Type             X           Y           Z
 ---------------------------------------------------------------------
      1          6           0        4.576341    0.469921   -0.370543
      2          6           0        3.723465   -0.629661   -1.009751
      3          6           0        2.371900   -0.959972   -0.338793
      4          6           0        2.479479   -1.255898    1.183522
      5          6           0        2.360273   -0.040288    2.110533
      6          6           0        1.329105    0.118122   -0.633441
      7          8           0        1.628785    1.278801   -0.910499
      8          7           0        0.009855   -0.256702   -0.614687
      9          6           0       -0.579192   -1.478068   -0.080493
     10          6           0       -1.975646   -1.543011   -0.723966
     11          6           0       -3.081990   -1.984395    0.253792
     12          6           0       -3.547051   -0.673360    0.907117
     13          6           0       -3.555337    0.313836   -0.271329
     14          6           0       -2.319461   -0.067764   -1.123912
     15          6           0       -1.003834    0.747813   -0.902328
     16          6           0       -1.123920    1.815911    0.176548
     17          8           0       -1.503037    2.946495   -0.018575
     18          8           0       -0.822368    1.351876    1.418393
     19          1           0        4.022717    1.409389   -0.324146
     20          1           0        5.482589    0.631262   -0.965715
     21          1           0        4.897528    0.197387    0.640692
     22          1           0        3.525703   -0.362816   -2.054576
     23          1           0        4.303894   -1.562219   -1.031473
     24          1           0        2.021200   -1.884757   -0.816436
     25          1           0        1.702468   -1.977586    1.462425
     26          1           0        3.436295   -1.765841    1.354399
     27          1           0        1.371329    0.419980    2.028320
     28          1           0        2.504556   -0.347038    3.152916
     29          1           0        3.100505    0.728558    1.878323
     30          1           0        0.031592   -2.349015   -0.328840
     31          1           0       -0.657893   -1.421691    1.014151
     32          1           0       -1.934789   -2.184292   -1.609056
     33          1           0       -2.729725   -2.730546    0.975050
     34          1           0       -3.912855   -2.435709   -0.302055
     35          1           0       -2.822458   -0.348200    1.662546
     36          1           0       -4.521289   -0.761251    1.398607
     37          1           0       -3.562991    1.363993    0.031384
     38          1           0       -4.457170    0.152016   -0.873487
     39          1           0       -2.564250   -0.001302   -2.185984
     40          1           0       -0.722157    1.298539   -1.800792
     41          1           0       -0.935617    2.111566    2.020267
 ---------------------------------------------------------------------

 SCF Done:  E(UB3LYP) =  -828.109058120     A.U. after   32 cycles

 The electronic state is 2-A.
 Alpha  occ. eigenvalues --  -19.08578 -19.02841 -18.99146 -14.24709 -10.21774
 Alpha  occ. eigenvalues --  -10.17331 -10.12860 -10.10934 -10.09180 -10.08849
 Alpha  occ. eigenvalues --  -10.08234 -10.07992 -10.07628 -10.07389 -10.07014
 Alpha  occ. eigenvalues --  -10.06992 -10.06376 -10.06293  -1.02507  -0.94530
 Alpha  occ. eigenvalues --   -0.93559  -0.85480  -0.74918  -0.72212  -0.67889
 Alpha  occ. eigenvalues --   -0.65741  -0.65100  -0.60974  -0.59953  -0.57099
 Alpha  occ. eigenvalues --   -0.53718  -0.52230  -0.49744  -0.48129  -0.46230
 Alpha  occ. eigenvalues --   -0.44975  -0.42259  -0.40320  -0.39803  -0.39459
 Alpha  occ. eigenvalues --   -0.38778  -0.38000  -0.36255  -0.35004  -0.34751
 Alpha  occ. eigenvalues --   -0.34025  -0.32899  -0.32406  -0.31594  -0.31015
 Alpha  occ. eigenvalues --   -0.30694  -0.29541  -0.28876  -0.27858  -0.27461
 Alpha  occ. eigenvalues --   -0.26263  -0.25329  -0.25024  -0.24565  -0.24503
 Alpha  occ. eigenvalues --   -0.23910  -0.23658  -0.23499  -0.23146  -0.22816
 Alpha  occ. eigenvalues --   -0.22269  -0.20103  -0.15886  -0.15118   0.03843
 Alpha virt. eigenvalues --    0.06007   0.06189   0.07249   0.07521   0.07766
 Alpha virt. eigenvalues --    0.08433   0.08705   0.09384   0.09808   0.10187
 Alpha virt. eigenvalues --    0.10352   0.10517   0.11154   0.11531   0.11915

  Beta  occ. eigenvalues --  -19.08555 -19.02828 -18.99142 -14.24710 -10.21765
  Beta  occ. eigenvalues --  -10.17326 -10.12853 -10.10905 -10.09167 -10.08839
  Beta  occ. eigenvalues --  -10.08216 -10.07977 -10.07619 -10.07375 -10.06994
  Beta  occ. eigenvalues --  -10.06972 -10.06372 -10.06281  -1.02473  -0.94521
  Beta  occ. eigenvalues --   -0.93528  -0.85467  -0.74887  -0.72186  -0.67852
  Beta  occ. eigenvalues --   -0.65720  -0.65069  -0.60938  -0.59915  -0.57048
  Beta  occ. eigenvalues --   -0.53678  -0.52195  -0.49707  -0.48072  -0.46176
  Beta  occ. eigenvalues --   -0.44934  -0.42207  -0.40288  -0.39775  -0.39424
  Beta  occ. eigenvalues --   -0.38737  -0.37969  -0.36229  -0.34981  -0.34717
  Beta  occ. eigenvalues --   -0.33996  -0.32870  -0.32375  -0.31571  -0.30993
  Beta  occ. eigenvalues --   -0.30662  -0.29519  -0.28856  -0.27835  -0.27438
  Beta  occ. eigenvalues --   -0.26234  -0.25300  -0.24999  -0.24528  -0.24476
  Beta  occ. eigenvalues --   -0.23877  -0.23615  -0.23452  -0.23107  -0.22778
  Beta  occ. eigenvalues --   -0.22248  -0.20076  -0.15872  -0.15105
  Beta virt. eigenvalues --    0.05996   0.06669   0.06825   0.07720   0.07870
  Beta virt. eigenvalues --    0.08127   0.08721   0.09018   0.09766   0.10066
  Beta virt. eigenvalues --    0.10496   0.10603   0.10863   0.11307   0.11687

 Mulliken charges and spin densities:
               1          2
     1  C   -0.409203  -0.199808
     2  C    0.087772  -0.544947
     3  C    0.904814   0.119028
     4  C   -0.633867   0.120552
     5  C   -0.173793  -0.331686
     6  C   -0.621135  -0.286094
     7  O   -0.242998   0.014382
     8  N    0.345791   0.071460
     9  C    0.499525  -1.178715
    10  C   -0.031877   0.179524
    11  C    0.329611  -0.847608
    12  C    0.201044  -0.536287
    13  C    0.032140  -0.338152
    14  C   -0.351242   0.354496
    15  C    0.457166  -0.533176
    16  C   -0.223943  -0.183038
    17  O   -0.212063   0.026169
    18  O   -0.151517   0.018124
    19  H    0.160379   0.047532
    20  H    0.108506   0.011970
    21  H    0.120873   0.006908
    22  H    0.121026   0.033315
    23  H   -0.172025   0.326703
    24  H   -0.177036   0.411772
    25  H   -0.213857   0.362234
    26  H   -0.044135   0.234823
    27  H    0.167729   0.011276
    28  H   -0.125840   0.269914
    29  H    0.122745   0.008483
    30  H   -0.201019   0.391050
    31  H    0.491241  -0.272957
    32  H   -0.561832   0.806832
    33  H   -0.369718   0.531143
    34  H   -0.237184   0.399748
    35  H   -0.058585   0.204645
    36  H   -0.104748   0.281309
    37  H    0.232072  -0.046258
    38  H   -0.257627   0.425537
    39  H   -0.103390   0.339176
    40  H    0.199139   0.084822
    41  H    0.097061   0.205800
 Sum of Mulliken charges =  -1.00000   1.00000

 Dipole moment (field-independent basis, Debye):
    X=              2.8537    Y=              3.3282    Z=              1.9954  Tot=              4.8169
 Quadrupole moment (field-independent basis, Debye-Ang):
   XX=           -178.9950   YY=           -169.5155   ZZ=           -147.4079
   XY=             -5.7264   XZ=             -3.7721   YZ=              0.7628

 Summary of Natural Population Analysis:

                                       Natural Population
                Natural  -----------------------------------------------
    Atom  No    Charge         Core      Valence    Rydberg      Total
 -----------------------------------------------------------------------
      C    1   -0.29068      0.99966     2.28657    0.00446     3.29068
      C    2   -0.18408      0.99963     2.17484    0.00961     3.18408
      C    3   -0.14695      0.99955     2.13576    0.01163     3.14695
      C    4   -0.18833      0.99962     2.17994    0.00877     3.18833
      C    5   -0.29377      0.99965     2.28838    0.00574     3.29377
      C    6    0.35873      0.99961     1.61736    0.02430     2.64127
      O    7   -0.32966      0.99988     3.32504    0.00474     4.32966
      N    8   -0.25638      0.99963     2.74421    0.01254     3.75638
      C    9   -0.08138      0.99958     2.07057    0.01122     3.08138
      C   10   -0.10942      0.99959     2.09761    0.01222     3.10942
      C   11   -0.18886      0.99962     2.18046    0.00878     3.18886
      C   12   -0.19512      0.99963     2.18751    0.00798     3.19512
      C   13   -0.19548      0.99962     2.18763    0.00824     3.19548
      C   14   -0.10187      0.99958     2.09073    0.01156     3.10187
      C   15   -0.04837      0.99951     2.03361    0.01524     3.04837
      C   16    0.41538      0.99967     1.55944    0.02551     2.58462
      O   17   -0.30433      0.99986     3.29859    0.00587     4.30433
      O   18   -0.34712      0.99987     3.34046    0.00679     4.34712
      H   19    0.11098      0.00000     0.38804    0.00097     0.38902
      H   20    0.09420      0.00000     0.40507    0.00072     0.40580
      H   21    0.09228      0.00000     0.40681    0.00091     0.40772
      H   22    0.10031      0.00000     0.39874    0.00094     0.39969
      H   23    0.09386      0.00000     0.40517    0.00096     0.40614
      H   24    0.11005      0.00000     0.38764    0.00231     0.38995
      H   25    0.10057      0.00000     0.39805    0.00138     0.39943
      H   26    0.09586      0.00000     0.40309    0.00105     0.40414
      H   27    0.10611      0.00000     0.39242    0.00146     0.39389
      H   28    0.09682      0.00000     0.40246    0.00072     0.40318
      H   29    0.09866      0.00000     0.40037    0.00098     0.40134
      H   30    0.10720      0.00000     0.39059    0.00221     0.39280
      H   31    0.09359      0.00000     0.40416    0.00225     0.40641
      H   32    0.10814      0.00000     0.38895    0.00290     0.39186
      H   33    0.10205      0.00000     0.39671    0.00124     0.39795
      H   34    0.10034      0.00000     0.39779    0.00187     0.39966
      H   35    0.09797      0.00000     0.40000    0.00203     0.40203
      H   36    0.10025      0.00000     0.39877    0.00098     0.39975
      H   37    0.10469      0.00000     0.39428    0.00104     0.39531
      H   38    0.10130      0.00000     0.39746    0.00124     0.39870
      H   39    0.10920      0.00000     0.38957    0.00123     0.39080
      H   40    0.12245      0.00000     0.37619    0.00136     0.37755
      H   41    0.24081      0.00000     0.25567    0.00352     0.25919
 =======================================================================
   * Total *   -0.00000     17.99377    50.77673    0.22951    69.00000

 Normal termination of Gaussian 16 at Fri Dec 11 23:17:16 2020.
