 Gaussian 16, Revision A.03,

 -----------------------------------------------------------
 # opt freq B3LYP/6-31G(d) empiricaldispersion=gd3bj scf=xqc
 -----------------------------------------------------------

 ------------------------------
 CID_142939026_JID_286_neutraal
 ------------------------------
 Symbolic Z-matrix:
 Charge =  0 Multiplicity = 1

 SCF Done:  E(RB3LYP) =  -458.738649452     A.U. after   14 cycles
 SCF Done:  E(RB3LYP) =  -458.742063764     A.U. after   12 cycles
 SCF Done:  E(RB3LYP) =  -458.742244797     A.U. after   11 cycles
 SCF Done:  E(RB3LYP) =  -458.742287434     A.U. after   10 cycles
 SCF Done:  E(RB3LYP) =  -458.742317974     A.U. after   10 cycles
 SCF Done:  E(RB3LYP) =  -458.742343814     A.U. after   10 cycles
 SCF Done:  E(RB3LYP) =  -458.742369365     A.U. after    9 cycles
 SCF Done:  E(RB3LYP) =  -458.742390515     A.U. after   10 cycles
 SCF Done:  E(RB3LYP) =  -458.742402906     A.U. after   10 cycles
 SCF Done:  E(RB3LYP) =  -458.742409302     A.U. after   10 cycles
 SCF Done:  E(RB3LYP) =  -458.742463150     A.U. after   10 cycles
 SCF Done:  E(RB3LYP) =  -458.742465891     A.U. after   10 cycles
 SCF Done:  E(RB3LYP) =  -458.742466938     A.U. after    8 cycles
 SCF Done:  E(RB3LYP) =  -458.742467186     A.U. after    7 cycles
 SCF Done:  E(RB3LYP) =  -458.742467211     A.U. after    7 cycles
 SCF Done:  E(RB3LYP) =  -458.742467226     A.U. after    6 cycles
 Optimization completed.
    -- Stationary point found.
 Normal termination of Gaussian 16 at Tue Dec  8 10:25:32 2020.

 --------------------------------------------------------------------
 #N Geom=AllCheck Guess=TCheck SCRF=Check GenChk RB3LYP/6-31G(d) Freq
 --------------------------------------------------------------------

 Structure from the checkpoint file:  "JID_286.chk"
 ------------------------------
 CID_142939026_JID_286_neutraal
 ------------------------------
 Charge =  0 Multiplicity = 1

 SCF Done:  E(RB3LYP) =  -458.742467226     A.U. after    1 cycles

  Exact polarizability: 107.817   8.498 104.789   0.002  -0.041  56.248
 Approx polarizability: 156.357  21.227 145.540  -0.006  -0.061  82.833

                      1                      2                      3
                      A                      A                      A
 Frequencies --     22.8014                61.1943               105.5245
 Red. masses --      1.9724                 1.3162                 3.6012
 Frc consts  --      0.0006                 0.0029                 0.0236
 IR Inten    --      0.5592                 0.4117                 0.5728

                      4                      5                      6
                      A                      A                      A
 Frequencies --    127.8235               148.8487               195.2136
 Red. masses --      2.1464                 1.6952                 1.4793
 Frc consts  --      0.0207                 0.0221                 0.0332
 IR Inten    --      6.1494                 1.0128                 1.7355

                      7                      8                      9
                      A                      A                      A
 Frequencies --    200.4078               266.5234               300.2553
 Red. masses --      1.2427                 2.5124                 3.1101
 Frc consts  --      0.0294                 0.1051                 0.1652
 IR Inten    --      0.2881                 0.1396                 0.2097

                     10                     11                     12
                      A                      A                      A
 Frequencies --    321.1768               417.5884               453.0885
 Red. masses --      2.6624                 4.0382                 2.6010
 Frc consts  --      0.1618                 0.4149                 0.3146
 IR Inten    --      1.0426                19.1732                 4.7251

                     13                     14                     15
                      A                      A                      A
 Frequencies --    458.3692               482.7084               578.8664
 Red. masses --      5.0044                 5.3614                 4.3983
 Frc consts  --      0.6195                 0.7360                 0.8683
 IR Inten    --     12.9134                10.2163                 3.5979

                     16                     17                     18
                      A                      A                      A
 Frequencies --    617.1183               733.1154               827.5744
 Red. masses --      4.6467                12.1023                 4.6314
 Frc consts  --      1.0426                 3.8323                 1.8689
 IR Inten    --      1.2181                16.8636                 7.3476

                     19                     20                     21
                      A                      A                      A
 Frequencies --    867.0380               930.9633               978.6053
 Red. masses --      1.3550                 3.1265                 2.7874
 Frc consts  --      0.6001                 1.5965                 1.5728
 IR Inten    --      6.7861                 3.6726                 8.3552

                     22                     23                     24
                      A                      A                      A
 Frequencies --   1025.2115              1052.2309              1089.2718
 Red. masses --      1.3385                 1.7585                 1.7987
 Frc consts  --      0.8289                 1.1471                 1.2574
 IR Inten    --      7.2097                 0.3727                23.2869

                     25                     26                     27
                      A                      A                      A
 Frequencies --   1100.0815              1121.6551              1168.2284
 Red. masses --      1.5657                 1.9974                 1.2726
 Frc consts  --      1.1164                 1.4806                 1.0233
 IR Inten    --      0.0941                49.6593                 0.0215

                     28                     29                     30
                      A                      A                      A
 Frequencies --   1174.4515              1203.9103              1267.5153
 Red. masses --      1.2821                 1.9525                 1.0785
 Frc consts  --      1.0419                 1.6674                 1.0209
 IR Inten    --      2.2727                 9.8367                 0.5577

                     31                     32                     33
                      A                      A                      A
 Frequencies --   1272.6464              1302.9993              1341.1579
 Red. masses --      3.3730                 2.8521                 3.9007
 Frc consts  --      3.2187                 2.8530                 4.1338
 IR Inten    --    151.9764                46.9761                29.5025

                     34                     35                     36
                      A                      A                      A
 Frequencies --   1385.3265              1428.3255              1450.0181
 Red. masses --      3.6393                 1.7563                 1.3141
 Frc consts  --      4.1150                 2.1111                 1.6279
 IR Inten    --     66.7593                55.7861                 0.7282

                     37                     38                     39
                      A                      A                      A
 Frequencies --   1455.1972              1466.3306              1498.8278
 Red. masses --      1.2101                 1.3690                 1.5337
 Frc consts  --      1.5098                 1.7343                 2.0299
 IR Inten    --     18.4054                21.6717               174.2109

                     40                     41                     42
                      A                      A                      A
 Frequencies --   1503.9970              1526.8381              1528.9739
 Red. masses --      1.0436                 1.0437                 1.0707
 Frc consts  --      1.3909                 1.4335                 1.4747
 IR Inten    --      8.0482                 8.6343                 6.1668

                     43                     44                     45
                      A                      A                      A
 Frequencies --   1533.2503              1537.8700              1545.1456
 Red. masses --      1.0446                 1.0778                 1.1235
 Frc consts  --      1.4468                 1.5019                 1.5804
 IR Inten    --      8.5849                45.9191                 8.0561

                     46                     47                     48
                      A                      A                      A
 Frequencies --   1574.6447              1764.0804              1789.2921
 Red. masses --      1.2891                 9.5716                 6.7188
 Frc consts  --      1.8832                17.5498                12.6738
 IR Inten    --     50.8867               388.3203               126.7856

                     49                     50                     51
                      A                      A                      A
 Frequencies --   2938.7364              2941.9534              3018.4455
 Red. masses --      1.0937                 1.0658                 1.0394
 Frc consts  --      5.5651                 5.4347                 5.5795
 IR Inten    --     69.1540                85.3867                59.5493

                     52                     53                     54
                      A                      A                      A
 Frequencies --   3022.3493              3040.4920              3057.3929
 Red. masses --      1.0402                 1.0389                 1.1003
 Frc consts  --      5.5981                 5.6589                 6.0599
 IR Inten    --     90.5487                72.0770                29.4704

                     55                     56                     57
                      A                      A                      A
 Frequencies --   3063.2678              3090.0010              3121.0970
 Red. masses --      1.1045                 1.1060                 1.0978
 Frc consts  --      6.1063                 6.2219                 6.3007
 IR Inten    --     44.3852                39.3977                21.2757

                     58                     59                     60
                      A                      A                      A
 Frequencies --   3198.5040              3199.2080              3203.8244
 Red. masses --      1.0948                 1.0956                 1.0921
 Frc consts  --      6.5992                 6.6065                 6.6047
 IR Inten    --      1.2476                 0.3226                14.5348

 - Thermochemistry -
 -------------------
 Temperature   298.150 Kelvin.  Pressure   1.00000 Atm.
 Atom     1 has atomic number  6 and mass  12.00000

 Molecular mass:   140.09496 amu.
 Principal axes and moments of inertia in atomic units:
                           1         2         3
     Eigenvalues --  1015.100641394.681742364.63060
           X            0.99993   0.01218   0.00002
           Y           -0.01218   0.99993  -0.00005
           Z           -0.00002   0.00005   1.00000
 This molecule is an asymmetric top.
 Rotational symmetry number  1.
 Warning -- assumption of classical behavior for rotation
           may cause significant error
 Rotational temperatures (Kelvin)      0.08533     0.06210     0.03663
 Rotational constants (GHZ):           1.77789     1.29402     0.76322
 Zero-point vibrational energy     497033.8 (Joules/Mol)
                                  118.79392 (Kcal/Mol)
 Warning -- explicit consideration of  16 degrees of freedom as
           vibrations may cause significant error
 Vibrational temperatures:     32.81    88.04   151.83   183.91   214.16
          (Kelvin)            280.87   288.34   383.47   432.00   462.10
                              600.82   651.89   659.49   694.51   832.86
                              887.90  1054.79  1190.69  1247.47  1339.45
                             1407.99  1475.05  1513.93  1567.22  1582.77
                             1613.81  1680.82  1689.77  1732.16  1823.67
                             1831.05  1874.73  1929.63  1993.18  2055.04
                             2086.25  2093.70  2109.72  2156.48  2163.92
                             2196.78  2199.85  2206.01  2212.65  2223.12
                             2265.56  2538.12  2574.39  4228.19  4232.81
                             4342.87  4348.49  4374.59  4398.91  4407.36
                             4445.82  4490.56  4601.93  4602.95  4609.59

 Zero-point correction=                           0.189310 (Hartree/Particle)
 Thermal correction to Energy=                    0.200304
 Thermal correction to Enthalpy=                  0.201248
 Thermal correction to Gibbs Free Energy=         0.151627
 Sum of electronic and zero-point Energies=           -458.553157
 Sum of electronic and thermal Energies=              -458.542164
 Sum of electronic and thermal Enthalpies=            -458.541219
 Sum of electronic and thermal Free Energies=         -458.590840

                     E (Thermal)             CV                S
                      KCal/Mol        Cal/Mol-Kelvin    Cal/Mol-Kelvin
 Total                  125.692             38.513            104.436
 Electronic               0.000              0.000              0.000
 Translational            0.889              2.981             40.723
 Rotational               0.889              2.981             29.594
 Vibrational            123.915             32.551             34.119
 Vibration     1          0.593              1.985              6.374
 Vibration     2          0.597              1.973              4.418
 Vibration     3          0.605              1.945              3.350
 Vibration     4          0.611              1.925              2.979
 Vibration     5          0.618              1.904              2.687
 Vibration     6          0.636              1.847              2.178
 Vibration     7          0.638              1.839              2.129
 Vibration     8          0.672              1.735              1.619
 Vibration     9          0.693              1.673              1.415
 Vibration    10          0.707              1.633              1.304
 Vibration    11          0.781              1.432              0.900
 Vibration    12          0.812              1.354              0.786
 Vibration    13          0.816              1.342              0.771
 Vibration    14          0.839              1.288              0.703
 Vibration    15          0.935              1.077              0.487
 Vibration    16          0.977              0.996              0.421

                           ! Non-Optimized Parameters !
 Normal termination of Gaussian 16 at Tue Dec  8 10:29:32 2020.

 ----------------------------------------------------------------------
 # B3LYP/6-311++G(d,p) empiricaldispersion=gd3bj scf=xqc pop=npa geom=c
 heck
 ----------------------------------------------------------------------

 --------------------------------------
 CID_142939026_JID_286_Energie_neutraal
 --------------------------------------
 Structure from the checkpoint file:  "JID_286.chk"
 Charge =  0 Multiplicity = 1

 SCF Done:  E(RB3LYP) =  -458.872002211     A.U. after   13 cycles
 Normal termination of Gaussian 16 at Tue Dec  8 10:31:06 2020.

 ----------------------------------------------------------------------
 # B3LYP/6-311++G(d,p) empiricaldispersion=gd3bj scf=xqc pop=npa geom=c
 heck
 ----------------------------------------------------------------------

 ------------------------------------
 CID_142939026_JID_286_Energie_kation
 ------------------------------------
 Structure from the checkpoint file:  "JID_286.chk"
 Charge =  1 Multiplicity = 2

 SCF Done:  E(UB3LYP) =  -458.594668277     A.U. after   20 cycles
 Normal termination of Gaussian 16 at Tue Dec  8 10:35:16 2020.
 Gaussian 16:  ES64L-G16RevA.03 25-Dec-2016

 ----------------------------------------------------------------------
 # B3LYP/6-311++G(d,p) empiricaldispersion=gd3bj scf=xqc pop=npa geom=c
 heck
 ----------------------------------------------------------------------

 -----------------------------------
 CID_142939026_JID_286_Energie_anion
 -----------------------------------
 Structure from the checkpoint file:  "JID_286.chk"
 Charge = -1 Multiplicity = 2

                         Standard orientation:
 ---------------------------------------------------------------------
 Center     Atomic      Atomic             Coordinates (Angstroms)
 Number     Number       Type             X           Y           Z
 ---------------------------------------------------------------------
      1          6           0       -3.170191    0.114425   -0.001573
      2          6           0       -1.671839    0.092174    0.000052
      3          6           0       -0.919958    1.197380   -0.001896
      4          7           0        0.474385    1.186452   -0.000259
      5          6           0        1.200257   -0.003890   -0.000615
      6          8           0        2.429763   -0.007779   -0.000296
      7          7           0        0.452441   -1.159672   -0.002851
      8          6           0       -1.002512   -1.249166    0.005400
      9          6           0        1.146465   -2.432392   -0.001450
     10          6           0        1.197053    2.448877    0.001846
     11          1           0       -3.581272   -0.397667    0.880423
     12          1           0       -3.579515   -0.401294   -0.882255
     13          1           0       -3.554568    1.139190   -0.004009
     14          1           0       -1.360673    2.189619   -0.005118
     15          1           0       -1.330412   -1.843415   -0.867991
     16          1           0       -1.322583   -1.832872    0.889041
     17          1           0        0.879227   -3.013343    0.892381
     18          1           0        0.867917   -3.020368   -0.887046
     19          1           0        2.218442   -2.245177   -0.008664
     20          1           0        0.947420    3.040166   -0.887519
     21          1           0        0.953311    3.034573    0.896591
     22          1           0        2.261176    2.220907   -0.002278
 ---------------------------------------------------------------------

 SCF Done:  E(UB3LYP) =  -458.857960431     A.U. after   30 cycles

 The electronic state is 2-A.
 Alpha  occ. eigenvalues --  -18.97580 -14.24311 -14.23584 -10.19065 -10.10608
 Alpha  occ. eigenvalues --  -10.09720 -10.09653 -10.09197 -10.06989 -10.05958
 Alpha  occ. eigenvalues --   -0.94756  -0.85127  -0.82488  -0.70198  -0.63015
 Alpha  occ. eigenvalues --   -0.61189  -0.59197  -0.55179  -0.49669  -0.43798
 Alpha  occ. eigenvalues --   -0.39832  -0.38573  -0.38026  -0.34858  -0.34516
 Alpha  occ. eigenvalues --   -0.32597  -0.31975  -0.31249  -0.30313  -0.28912
 Alpha  occ. eigenvalues --   -0.28695  -0.28343  -0.26985  -0.24843  -0.21165
 Alpha  occ. eigenvalues --   -0.16619  -0.14185  -0.09721   0.04600
 Alpha virt. eigenvalues --    0.06903   0.07710   0.08660   0.09497   0.10278
 Alpha virt. eigenvalues --    0.10337   0.11004   0.11959   0.12276   0.12755
 Alpha virt. eigenvalues --    0.13460   0.14847   0.14894   0.15574   0.15982

  Beta  occ. eigenvalues --  -18.97578 -14.24312 -14.23585 -10.19059 -10.10566
  Beta  occ. eigenvalues --  -10.09694 -10.09631 -10.09168 -10.06991 -10.05906
  Beta  occ. eigenvalues --   -0.94752  -0.85119  -0.82478  -0.70169  -0.62973
  Beta  occ. eigenvalues --   -0.61139  -0.59128  -0.55122  -0.49620  -0.43765
  Beta  occ. eigenvalues --   -0.39779  -0.38548  -0.37954  -0.34833  -0.34483
  Beta  occ. eigenvalues --   -0.32569  -0.31934  -0.31199  -0.30266  -0.28874
  Beta  occ. eigenvalues --   -0.28663  -0.28312  -0.26941  -0.24801  -0.21150
  Beta  occ. eigenvalues --   -0.16613  -0.14170  -0.09697
  Beta virt. eigenvalues --    0.07065   0.07869   0.08493   0.09393   0.10408
  Beta virt. eigenvalues --    0.10745   0.10780   0.11396   0.12075   0.12796
  Beta virt. eigenvalues --    0.13175   0.13805   0.15172   0.15385   0.15798

 Mulliken charges and spin densities:
               1          2
     1  C    2.801115  -3.572698
     2  C   -3.876408   4.582107
     3  C    3.300770  -3.823991
     4  N   -0.267448   0.157039
     5  C   -0.023343   0.284279
     6  O   -0.402010   0.002036
     7  N   -0.411745   0.283906
     8  C   -0.369896  -0.084582
     9  C    0.512318  -0.772718
    10  C    0.742390  -1.018083
    11  H   -0.309629   0.456159
    12  H   -0.310455   0.457575
    13  H   -0.671639   0.821436
    14  H   -0.581305   0.768496
    15  H   -0.220482   0.399436
    16  H   -0.218931   0.397420
    17  H   -0.266908   0.407764
    18  H   -0.267353   0.408555
    19  H    0.115799   0.074202
    20  H   -0.219303   0.371971
    21  H   -0.219964   0.373403
    22  H    0.164425   0.026286
 Sum of Mulliken charges =  -1.00000   1.00000

 Dipole moment (field-independent basis, Debye):
    X=              4.4835    Y=              0.0914    Z=             -0.0058  Tot=              4.4844
 Quadrupole moment (field-independent basis, Debye-Ang):
   XX=           -119.8483   YY=           -109.7940   ZZ=            -89.5737
   XY=              1.6220   XZ=             -0.0264   YZ=             -0.0012

 Summary of Natural Population Analysis:

                                       Natural Population
                Natural  -----------------------------------------------
    Atom  No    Charge         Core      Valence    Rydberg      Total
 -----------------------------------------------------------------------
      C    1   -0.28847      0.99964     2.28347    0.00537     3.28847
      C    2   -0.03814      0.99952     2.02834    0.01028     3.03814
      C    3    0.00445      0.99943     1.98325    0.01288     2.99555
      N    4   -0.25414      0.99964     2.74468    0.00982     3.75414
      C    5    0.41925      0.99964     1.55961    0.02151     2.58075
      O    6   -0.34940      0.99988     3.34445    0.00508     4.34940
      N    7   -0.25672      0.99966     2.74710    0.00996     3.75672
      C    8   -0.08342      0.99957     2.07228    0.01156     3.08342
      C    9   -0.17702      0.99964     2.16911    0.00828     3.17702
      C   10   -0.17701      0.99964     2.16897    0.00839     3.17701
      H   11    0.10220      0.00000     0.39544    0.00236     0.39780
      H   12    0.10221      0.00000     0.39543    0.00236     0.39779
      H   13    0.10587      0.00000     0.39203    0.00210     0.39413
      H   14    0.10093      0.00000     0.39695    0.00212     0.39907
      H   15    0.09521      0.00000     0.40247    0.00231     0.40479
      H   16    0.09496      0.00000     0.40273    0.00230     0.40504
      H   17    0.09165      0.00000     0.40696    0.00139     0.40835
      H   18    0.09180      0.00000     0.40681    0.00139     0.40820
      H   19    0.11492      0.00000     0.38414    0.00094     0.38508
      H   20    0.09238      0.00000     0.40631    0.00131     0.40762
      H   21    0.09234      0.00000     0.40635    0.00131     0.40766
      H   22    0.11615      0.00000     0.38289    0.00097     0.38385
 =======================================================================
   * Total *    0.00000      9.99625    27.87976    0.12398    38.00000

 Normal termination of Gaussian 16 at Tue Dec  8 10:42:04 2020.
