 Gaussian 16, Revision A.03,

 -----------------------------------------------------------
 # opt freq B3LYP/6-31G(d) empiricaldispersion=gd3bj scf=xqc
 -----------------------------------------------------------

 -------------------------------
 CID_112704035_JID_9879_neutraal
 -------------------------------
 Symbolic Z-matrix:
 Charge =  0 Multiplicity = 1

 SCF Done:  E(RB3LYP) =  -936.338055678     A.U. after   14 cycles
 SCF Done:  E(RB3LYP) =  -936.343218580     A.U. after   12 cycles
 SCF Done:  E(RB3LYP) =  -936.343781229     A.U. after   13 cycles
 SCF Done:  E(RB3LYP) =  -936.342748458     A.U. after   14 cycles
 SCF Done:  E(RB3LYP) =  -936.344361054     A.U. after   12 cycles
 SCF Done:  E(RB3LYP) =  -936.345123750     A.U. after   12 cycles
 SCF Done:  E(RB3LYP) =  -936.345249526     A.U. after   11 cycles
 SCF Done:  E(RB3LYP) =  -936.345330879     A.U. after   11 cycles
 SCF Done:  E(RB3LYP) =  -936.345364086     A.U. after   11 cycles
 SCF Done:  E(RB3LYP) =  -936.345401258     A.U. after   10 cycles
 SCF Done:  E(RB3LYP) =  -936.347922989     A.U. after   11 cycles
 SCF Done:  E(RB3LYP) =  -936.347940618     A.U. after   10 cycles
 SCF Done:  E(RB3LYP) =  -936.347944536     A.U. after    9 cycles
 SCF Done:  E(RB3LYP) =  -936.347945251     A.U. after    8 cycles
 SCF Done:  E(RB3LYP) =  -936.347945616     A.U. after    8 cycles
 Optimization completed.
    -- Stationary point found.
 Normal termination of Gaussian 16 at Sat Dec 12 10:39:18 2020.

 --------------------------------------------------------------------
 #N Geom=AllCheck Guess=TCheck SCRF=Check GenChk RB3LYP/6-31G(d) Freq
 --------------------------------------------------------------------

 Structure from the checkpoint file:  "JID_9879.chk"
 -------------------------------
 CID_112704035_JID_9879_neutraal
 -------------------------------
 Charge =  0 Multiplicity = 1

 SCF Done:  E(RB3LYP) =  -936.347945616     A.U. after    1 cycles

  Exact polarizability: 166.351  -3.162 157.228  -1.682   1.048 138.041
 Approx polarizability: 215.830  -7.068 225.360   3.338   0.202 219.146

                      1                      2                      3
                      A                      A                      A
 Frequencies --     21.1604                48.2010                48.9668
 Red. masses --      4.5216                 5.9402                 5.2290
 Frc consts  --      0.0012                 0.0081                 0.0074
 IR Inten    --      2.1298                 0.4913                 0.5034

                      4                      5                      6
                      A                      A                      A
 Frequencies --     55.9223                61.1823                76.0536
 Red. masses --      5.9443                 3.7521                 5.7368
 Frc consts  --      0.0110                 0.0083                 0.0196
 IR Inten    --      0.7039                 3.3939                 1.2845

                      7                      8                      9
                      A                      A                      A
 Frequencies --    106.7178               117.1338               137.6637
 Red. masses --      3.8824                 3.0935                 4.7274
 Frc consts  --      0.0261                 0.0250                 0.0528
 IR Inten    --      1.0648                 3.0649                 4.2699

                     10                     11                     12
                      A                      A                      A
 Frequencies --    150.6738               160.9562               197.0205
 Red. masses --      4.0877                 2.2818                 3.4649
 Frc consts  --      0.0547                 0.0348                 0.0792
 IR Inten    --      0.5192                 2.5703                 2.6099

                     13                     14                     15
                      A                      A                      A
 Frequencies --    218.5406               246.9737               252.0760
 Red. masses --      3.0819                 2.0203                 1.4305
 Frc consts  --      0.0867                 0.0726                 0.0536
 IR Inten    --      3.8121                 1.5193                 9.0924

                     16                     17                     18
                      A                      A                      A
 Frequencies --    288.3542               299.2518               317.1269
 Red. masses --      2.1471                 1.5366                 2.1596
 Frc consts  --      0.1052                 0.0811                 0.1280
 IR Inten    --      1.0906                32.3108                15.8739

                     19                     20                     21
                      A                      A                      A
 Frequencies --    336.9053               357.5627               367.8387
 Red. masses --      2.1575                 2.9561                 2.6170
 Frc consts  --      0.1443                 0.2227                 0.2086
 IR Inten    --      0.5724                 8.5408                 1.6758

                     22                     23                     24
                      A                      A                      A
 Frequencies --    374.6575               398.1594               405.4967
 Red. masses --      2.7799                 2.9936                 2.4478
 Frc consts  --      0.2299                 0.2796                 0.2371
 IR Inten    --      3.2716                 2.6538                 5.2404

                     25                     26                     27
                      A                      A                      A
 Frequencies --    426.1680               482.4768               508.5835
 Red. masses --      4.1995                 2.9742                 2.6765
 Frc consts  --      0.4494                 0.4079                 0.4079
 IR Inten    --      1.4576                 0.9658                17.8434

                     28                     29                     30
                      A                      A                      A
 Frequencies --    517.7070               544.3167               581.4114
 Red. masses --      2.8719                 2.7131                 3.7924
 Frc consts  --      0.4535                 0.4736                 0.7553
 IR Inten    --      5.1516                16.5444                 7.8639

                     31                     32                     33
                      A                      A                      A
 Frequencies --    587.5311               616.6914               627.9186
 Red. masses --      2.8774                 2.2752                 2.4681
 Frc consts  --      0.5852                 0.5098                 0.5733
 IR Inten    --     42.9372                 3.2499                23.4010

                     34                     35                     36
                      A                      A                      A
 Frequencies --    665.6253               696.9979               738.0434
 Red. masses --      4.1870                 1.4112                 1.6544
 Frc consts  --      1.0930                 0.4039                 0.5309
 IR Inten    --     14.2910                82.3843                79.3193

                     37                     38                     39
                      A                      A                      A
 Frequencies --    771.7556               777.9439               819.9270
 Red. masses --      2.9243                 2.8236                 1.5939
 Frc consts  --      1.0262                 1.0068                 0.6313
 IR Inten    --     16.1811                46.8200                 1.9020

                     40                     41                     42
                      A                      A                      A
 Frequencies --    840.7884               857.4632               887.2275
 Red. masses --      2.8389                 2.0768                 2.4257
 Frc consts  --      1.1824                 0.8997                 1.1250
 IR Inten    --     11.5639                 5.7524                26.3526

                     43                     44                     45
                      A                      A                      A
 Frequencies --    911.0718               925.2314               931.5302
 Red. masses --      1.9968                 2.3361                 2.1293
 Frc consts  --      0.9766                 1.1783                 1.0886
 IR Inten    --     71.0526                32.0382                 5.0578

                     46                     47                     48
                      A                      A                      A
 Frequencies --    965.7008               995.6404              1024.7483
 Red. masses --      1.7933                 2.0981                 1.8853
 Frc consts  --      0.9853                 1.2254                 1.1665
 IR Inten    --     39.9559                 1.6107                 6.9274

                     49                     50                     51
                      A                      A                      A
 Frequencies --   1030.6569              1037.8727              1057.4901
 Red. masses --      2.5624                 2.9130                 2.1663
 Frc consts  --      1.6037                 1.8487                 1.4273
 IR Inten    --     20.4035                28.8218                26.8132

                     52                     53                     54
                      A                      A                      A
 Frequencies --   1066.3145              1098.8683              1108.5691
 Red. masses --      1.6374                 1.9689                 1.8434
 Frc consts  --      1.0969                 1.4008                 1.3348
 IR Inten    --     11.3641                 7.2387                27.3330

                     55                     56                     57
                      A                      A                      A
 Frequencies --   1129.6204              1140.6265              1150.6170
 Red. masses --      4.2623                 3.5472                 2.7804
 Frc consts  --      3.2045                 2.7191                 2.1688
 IR Inten    --     12.1678                 6.4487                21.1429

                     58                     59                     60
                      A                      A                      A
 Frequencies --   1163.5646              1177.7283              1200.4610
 Red. masses --      3.1746                 3.9133                 1.3170
 Frc consts  --      2.5324                 3.1981                 1.1183
 IR Inten    --     68.7038                67.2335                 4.9854

                     61                     62                     63
                      A                      A                      A
 Frequencies --   1208.6991              1222.4461              1236.5961
 Red. masses --      2.7745                 1.2957                 1.5198
 Frc consts  --      2.3882                 1.1408                 1.3693
 IR Inten    --     60.2954                28.4869                22.6333

                     64                     65                     66
                      A                      A                      A
 Frequencies --   1240.9711              1258.1668              1270.8387
 Red. masses --      1.2029                 1.4429                 1.3073
 Frc consts  --      1.0915                 1.3457                 1.2439
 IR Inten    --     14.0170                28.1141                 2.5193

                     67                     68                     69
                      A                      A                      A
 Frequencies --   1278.2271              1293.6282              1307.6871
 Red. masses --      1.3617                 1.3514                 1.3389
 Frc consts  --      1.3109                 1.3325                 1.3490
 IR Inten    --     14.4127                 5.1926                23.5332

                     70                     71                     72
                      A                      A                      A
 Frequencies --   1332.7512              1340.2348              1341.5938
 Red. masses --      1.4362                 1.2963                 1.7295
 Frc consts  --      1.5030                 1.3719                 1.8340
 IR Inten    --     29.6431                28.8083                86.1647

                     73                     74                     75
                      A                      A                      A
 Frequencies --   1370.0013              1388.5105              1398.0577
 Red. masses --      1.3486                 1.5744                 1.3829
 Frc consts  --      1.4913                 1.7884                 1.5926
 IR Inten    --      2.0853                15.1373                30.9914

                     76                     77                     78
                      A                      A                      A
 Frequencies --   1402.7953              1406.8637              1435.2315
 Red. masses --      1.2556                 1.3120                 1.4961
 Frc consts  --      1.4558                 1.5300                 1.8157
 IR Inten    --     18.6604                 2.1165                16.6205

                     79                     80                     81
                      A                      A                      A
 Frequencies --   1438.8093              1443.5317              1448.5959
 Red. masses --      1.3854                 1.7677                 1.5132
 Frc consts  --      1.6898                 2.1703                 1.8708
 IR Inten    --     20.2522                71.1256                26.3951

                     82                     83                     84
                      A                      A                      A
 Frequencies --   1490.0631              1495.5155              1496.5636
 Red. masses --      1.0968                 1.5211                 1.1582
 Frc consts  --      1.4348                 2.0045                 1.5283
 IR Inten    --      4.4883                35.3864                 5.2277

                     85                     86                     87
                      A                      A                      A
 Frequencies --   1508.3305              1509.4496              1517.4932
 Red. masses --      1.1525                 1.2410                 1.5229
 Frc consts  --      1.5449                 1.6659                 2.0662
 IR Inten    --      2.6720                 5.9442                51.4880

                     88                     89                     90
                      A                      A                      A
 Frequencies --   1522.4278              1524.0728              1524.5547
 Red. masses --      1.1605                 1.0758                 1.0663
 Frc consts  --      1.5848                 1.4723                 1.4602
 IR Inten    --     21.8363                 0.3653                 4.9171

                     91                     92                     93
                      A                      A                      A
 Frequencies --   1537.2870              1538.5178              1542.5581
 Red. masses --      1.1231                 1.0797                 1.0990
 Frc consts  --      1.5638                 1.5057                 1.5408
 IR Inten    --      7.9552                 5.1969                24.3225

                     94                     95                     96
                      A                      A                      A
 Frequencies --   1559.3071              1692.4870              1736.2247
 Red. masses --      1.0886                 1.0921                 7.3605
 Frc consts  --      1.5596                 1.8432                13.0728
 IR Inten    --      1.3220                38.1063               291.7069

                     97                     98                     99
                      A                      A                      A
 Frequencies --   1775.6705              2974.2141              3001.5399
 Red. masses --      7.3371                 1.0645                 1.0434
 Frc consts  --     13.6301                 5.5479                 5.5384
 IR Inten    --    312.1083                50.0021                69.5624

                    100                    101                    102
                      A                      A                      A
 Frequencies --   3005.7647              3034.3354              3039.7787
 Red. masses --      1.0703                 1.0911                 1.0662
 Frc consts  --      5.6973                 5.9190                 5.8048
 IR Inten    --     61.6770                30.2581                16.1996

                    103                    104                    105
                      A                      A                      A
 Frequencies --   3050.3655              3061.7327              3064.8394
 Red. masses --      1.0669                 1.0666                 1.0588
 Frc consts  --      5.8491                 5.8912                 5.8599
 IR Inten    --     34.6005                 9.0550                37.1514

                    106                    107                    108
                      A                      A                      A
 Frequencies --   3069.5812              3088.3365              3097.1403
 Red. masses --      1.0984                 1.0622                 1.0703
 Frc consts  --      6.0975                 5.9692                 6.0488
 IR Inten    --     17.5415                30.6531                10.1832

                    109                    110                    111
                      A                      A                      A
 Frequencies --   3103.2087              3107.0144              3116.6649
 Red. masses --      1.0956                 1.0965                 1.0943
 Frc consts  --      6.2163                 6.2368                 6.2629
 IR Inten    --     47.6894                18.1879                38.7346

                    112                    113                    114
                      A                      A                      A
 Frequencies --   3119.5223              3124.5899              3136.3879
 Red. masses --      1.1088                 1.0999                 1.0991
 Frc consts  --      6.3572                 6.3268                 6.3699
 IR Inten    --     44.4628                33.9164                26.3399

                    115                    116                    117
                      A                      A                      A
 Frequencies --   3144.0731              3192.9936              3450.7329
 Red. masses --      1.1002                 1.0973                 1.0494
 Frc consts  --      6.4077                 6.5913                 7.3620
 IR Inten    --     28.8152                 7.4398                 0.5660

                    118                    119                    120
                      A                      A                      A
 Frequencies --   3536.8336              3564.1133              3580.4230
 Red. masses --      1.0926                 1.0750                 1.0752
 Frc consts  --      8.0528                 8.0456                 8.1206
 IR Inten    --      0.3429                27.8741                26.1510

 - Thermochemistry -
 -------------------
 Temperature   298.150 Kelvin.  Pressure   1.00000 Atm.
 Atom     1 has atomic number  6 and mass  12.00000

 Molecular mass:   273.16886 amu.
 Principal axes and moments of inertia in atomic units:
                           1         2         3
     Eigenvalues --  3467.841236677.031058154.30351
           X            0.99976   0.02058  -0.00703
           Y           -0.02042   0.99955   0.02193
           Z            0.00748  -0.02178   0.99973
 This molecule is an asymmetric top.
 Rotational symmetry number  1.
 Warning -- assumption of classical behavior for rotation
           may cause significant error
 Rotational temperatures (Kelvin)      0.02498     0.01297     0.01062
 Rotational constants (GHZ):           0.52042     0.27029     0.22132
 Zero-point vibrational energy     967829.3 (Joules/Mol)
                                  231.31676 (Kcal/Mol)
 Warning -- explicit consideration of  32 degrees of freedom as
           vibrations may cause significant error
 Vibrational temperatures:     30.45    69.35    70.45    80.46    88.03
          (Kelvin)            109.42   153.54   168.53   198.07   216.79
                              231.58   283.47   314.43   355.34   362.68
                              414.88   430.56   456.27   484.73   514.45
                              529.24   539.05   572.86   583.42   613.16
                              694.18   731.74   744.86   783.15   836.52
                              845.33   887.28   903.43   957.69  1002.82
                             1061.88  1110.38  1119.29  1179.69  1209.71
                             1233.70  1276.52  1310.83  1331.20  1340.26
                             1389.43  1432.50  1474.38  1482.89  1493.27
                             1521.49  1534.19  1581.03  1594.98  1625.27
                             1641.11  1655.48  1674.11  1694.49  1727.20
                             1739.05  1758.83  1779.19  1785.48  1810.22
                             1828.45  1839.08  1861.24  1881.47  1917.53
                             1928.30  1930.25  1971.13  1997.76  2011.49
                             2018.31  2024.16  2064.98  2070.13  2076.92
                             2084.21  2143.87  2151.71  2153.22  2170.15
                             2171.76  2183.33  2190.43  2192.80  2193.49
                             2211.81  2213.58  2219.40  2243.50  2435.11
                             2498.04  2554.79  4279.23  4318.55  4324.62
                             4365.73  4373.56  4388.80  4405.15  4409.62
                             4416.44  4443.43  4456.09  4464.83  4470.30
                             4484.19  4488.30  4495.59  4512.56  4523.62
                             4594.01  4964.83  5088.71  5127.96  5151.43

 Zero-point correction=                           0.368627 (Hartree/Particle)
 Thermal correction to Energy=                    0.388530
 Thermal correction to Enthalpy=                  0.389474
 Thermal correction to Gibbs Free Energy=         0.319323
 Sum of electronic and zero-point Energies=           -935.979319
 Sum of electronic and thermal Energies=              -935.959415
 Sum of electronic and thermal Enthalpies=            -935.958471
 Sum of electronic and thermal Free Energies=         -936.028623

                     E (Thermal)             CV                S
                      KCal/Mol        Cal/Mol-Kelvin    Cal/Mol-Kelvin
 Total                  243.806             74.977            147.646
 Electronic               0.000              0.000              0.000
 Translational            0.889              2.981             42.713
 Rotational               0.889              2.981             33.601
 Vibrational            242.029             69.016             71.332
 Vibration     1          0.593              1.985              6.522
 Vibration     2          0.595              1.978              4.890
 Vibration     3          0.595              1.978              4.859
 Vibration     4          0.596              1.975              4.596
 Vibration     5          0.597              1.973              4.419
 Vibration     6          0.599              1.965              3.990
 Vibration     7          0.606              1.944              3.328
 Vibration     8          0.608              1.935              3.147
 Vibration     9          0.614              1.916              2.836
 Vibration    10          0.618              1.902              2.664
 Vibration    11          0.622              1.890              2.539
 Vibration    12          0.636              1.844              2.161
 Vibration    13          0.646              1.813              1.971
 Vibration    14          0.661              1.768              1.752
 Vibration    15          0.664              1.759              1.716
 Vibration    16          0.685              1.695              1.484
 Vibration    17          0.692              1.675              1.421
 Vibration    18          0.704              1.641              1.325
 Vibration    19          0.718              1.602              1.227
 Vibration    20          0.733              1.560              1.133
 Vibration    21          0.740              1.538              1.089
 Vibration    22          0.746              1.524              1.061
 Vibration    23          0.764              1.474              0.969
 Vibration    24          0.770              1.458              0.943
 Vibration    25          0.788              1.413              0.871
 Vibration    26          0.839              1.289              0.703
 Vibration    27          0.864              1.231              0.637
 Vibration    28          0.873              1.211              0.615
 Vibration    29          0.899              1.152              0.556
 Vibration    30          0.938              1.072              0.483
 Vibration    31          0.945              1.058              0.472
 Vibration    32          0.976              0.997              0.422

                           ! Non-Optimized Parameters !
 Normal termination of Gaussian 16 at Sat Dec 12 11:01:38 2020.

 ----------------------------------------------------------------------
 # B3LYP/6-311++G(d,p) empiricaldispersion=gd3bj scf=xqc pop=npa geom=c
 heck
 ----------------------------------------------------------------------

 ---------------------------------------
 CID_112704035_JID_9879_Energie_neutraal
 ---------------------------------------
 Structure from the checkpoint file:  "JID_9879.chk"
 Charge =  0 Multiplicity = 1

 SCF Done:  E(RB3LYP) =  -936.633822660     A.U. after   16 cycles
 Normal termination of Gaussian 16 at Sat Dec 12 11:11:21 2020.

 ----------------------------------------------------------------------
 # B3LYP/6-311++G(d,p) empiricaldispersion=gd3bj scf=xqc pop=npa geom=c
 heck
 ----------------------------------------------------------------------

 -------------------------------------
 CID_112704035_JID_9879_Energie_kation
 -------------------------------------
 Structure from the checkpoint file:  "JID_9879.chk"
 Charge =  1 Multiplicity = 2

 SCF Done:  E(UB3LYP) =  -936.319158959     A.U. after   33 cycles
 SCF Done:  E(UB3LYP) =  -936.319158959     a.u. after    1 cycles
 Normal termination of Gaussian 16 at Sat Dec 12 11:39:01 2020.
 Gaussian 16:  ES64L-G16RevA.03 25-Dec-2016

 ----------------------------------------------------------------------
 # B3LYP/6-311++G(d,p) empiricaldispersion=gd3bj scf=xqc pop=npa geom=c
 heck
 ----------------------------------------------------------------------

 ------------------------------------
 CID_112704035_JID_9879_Energie_anion
 ------------------------------------
 Structure from the checkpoint file:  "JID_9879.chk"
 Charge = -1 Multiplicity = 2

                         Standard orientation:
 ---------------------------------------------------------------------
 Center     Atomic      Atomic             Coordinates (Angstroms)
 Number     Number       Type             X           Y           Z
 ---------------------------------------------------------------------
      1          6           0        1.409713    2.834253    1.394091
      2          8           0        2.403568    2.294467    0.535137
      3          6           0        1.857756    1.744583   -0.641592
      4          6           0        2.962004    0.959397   -1.343258
      5          7           0        3.517388   -0.093536   -0.500314
      6          6           0        2.883127   -1.240101   -0.105204
      7          8           0        3.245975   -1.851943    0.896106
      8          6           0        1.723999   -1.771066   -0.948190
      9          6           0        0.625057   -2.315779   -0.025469
     10          7           0        0.168116   -1.291679    0.910533
     11          6           0       -0.984101   -0.571485    1.010284
     12          8           0       -1.066058    0.334100    1.843745
     13          6           0       -2.182598   -0.895623    0.083344
     14          6           0       -1.893029   -0.420661   -1.359291
     15          6           0       -1.940441    1.104065   -1.481494
     16          8           0       -3.199789    1.614519   -1.084586
     17          6           0       -3.442806    1.351586    0.295635
     18          6           0       -3.444593   -0.152122    0.586187
     19          7           0       -2.373057   -2.357664    0.057487
     20          1           0        1.928375    3.214830    2.277331
     21          1           0        0.680534    2.069424    1.695456
     22          1           0        0.872881    3.665604    0.910167
     23          1           0        1.023690    1.069430   -0.397585
     24          1           0        1.465836    2.532256   -1.309420
     25          1           0        2.589913    0.537141   -2.280728
     26          1           0        3.782877    1.635552   -1.599838
     27          1           0        4.160969    0.232306    0.212628
     28          1           0        1.314951   -1.015445   -1.622949
     29          1           0        2.110522   -2.589116   -1.569809
     30          1           0       -0.232049   -2.688414   -0.581128
     31          1           0        1.040807   -3.141308    0.558741
     32          1           0        0.860448   -0.997113    1.592212
     33          1           0       -0.931974   -0.805329   -1.713910
     34          1           0       -2.669520   -0.839358   -2.012917
     35          1           0       -1.796027    1.407085   -2.523129
     36          1           0       -1.140014    1.563245   -0.879094
     37          1           0       -4.423461    1.784301    0.514376
     38          1           0       -2.688202    1.849919    0.914942
     39          1           0       -4.303161   -0.601323    0.069347
     40          1           0       -3.570399   -0.319461    1.660995
     41          1           0       -2.579063   -2.689677    1.000044
     42          1           0       -3.199164   -2.565824   -0.503144
 ---------------------------------------------------------------------

 SCF Done:  E(UB3LYP) =  -936.625429384     A.U. after   31 cycles

 The electronic state is 2-A.
 Alpha  occ. eigenvalues --  -19.04713 -19.03300 -19.00534 -19.00200 -14.25168
 Alpha  occ. eigenvalues --  -14.25061 -14.21167 -10.18972 -10.18752 -10.13585
 Alpha  occ. eigenvalues --  -10.13408 -10.12684 -10.12633 -10.12583 -10.12100
 Alpha  occ. eigenvalues --  -10.11636 -10.09451 -10.08435 -10.07845  -0.96180
 Alpha  occ. eigenvalues --   -0.95614  -0.95417  -0.94740  -0.83988  -0.83806
 Alpha  occ. eigenvalues --   -0.81155  -0.69043  -0.68779  -0.67720  -0.67569
 Alpha  occ. eigenvalues --   -0.60131  -0.58689  -0.56877  -0.55491  -0.54086
 Alpha  occ. eigenvalues --   -0.51680  -0.48522  -0.46337  -0.42703  -0.42055
 Alpha  occ. eigenvalues --   -0.41456  -0.41096  -0.40882  -0.39739  -0.39444
 Alpha  occ. eigenvalues --   -0.38806  -0.38025  -0.37285  -0.36813  -0.36055
 Alpha  occ. eigenvalues --   -0.34742  -0.33420  -0.33097  -0.32680  -0.32109
 Alpha  occ. eigenvalues --   -0.31178  -0.30720  -0.30349  -0.29659  -0.29050
 Alpha  occ. eigenvalues --   -0.28286  -0.27768  -0.27117  -0.26933  -0.25018
 Alpha  occ. eigenvalues --   -0.24396  -0.22436  -0.18556  -0.18260  -0.17899
 Alpha  occ. eigenvalues --   -0.17154  -0.17010  -0.16608  -0.15978   0.03858
 Alpha virt. eigenvalues --    0.05548   0.06789   0.07004   0.07758   0.08035
 Alpha virt. eigenvalues --    0.08352   0.08536   0.09258   0.09658   0.10060
 Alpha virt. eigenvalues --    0.10505   0.10935   0.11096   0.11444   0.11867

  Beta  occ. eigenvalues --  -19.04709 -19.03297 -19.00531 -19.00187 -14.25165
  Beta  occ. eigenvalues --  -14.25063 -14.21125 -10.18967 -10.18741 -10.13571
  Beta  occ. eigenvalues --  -10.13408 -10.12682 -10.12599 -10.12571 -10.12097
  Beta  occ. eigenvalues --  -10.11629 -10.09424 -10.08413 -10.07827  -0.96172
  Beta  occ. eigenvalues --   -0.95601  -0.95401  -0.94728  -0.83974  -0.83794
  Beta  occ. eigenvalues --   -0.81105  -0.69001  -0.68738  -0.67691  -0.67544
  Beta  occ. eigenvalues --   -0.60102  -0.58654  -0.56842  -0.55453  -0.54045
  Beta  occ. eigenvalues --   -0.51654  -0.48490  -0.46309  -0.42677  -0.42021
  Beta  occ. eigenvalues --   -0.41423  -0.41053  -0.40851  -0.39715  -0.39414
  Beta  occ. eigenvalues --   -0.38787  -0.37993  -0.37251  -0.36789  -0.36019
  Beta  occ. eigenvalues --   -0.34719  -0.33403  -0.33072  -0.32656  -0.32081
  Beta  occ. eigenvalues --   -0.31147  -0.30691  -0.30316  -0.29634  -0.29022
  Beta  occ. eigenvalues --   -0.28245  -0.27741  -0.27089  -0.26904  -0.24992
  Beta  occ. eigenvalues --   -0.24369  -0.22420  -0.18546  -0.18236  -0.17878
  Beta  occ. eigenvalues --   -0.17134  -0.16988  -0.16587  -0.15942
  Beta virt. eigenvalues --    0.06259   0.06610   0.07118   0.07506   0.08115
  Beta virt. eigenvalues --    0.08293   0.08739   0.08874   0.09452   0.09806
  Beta virt. eigenvalues --    0.10403   0.10824   0.11065   0.11455   0.11755

 Mulliken charges and spin densities:
               1          2
     1  C   -0.345862   0.041854
     2  O   -0.086802  -0.012274
     3  C   -1.456617   1.264452
     4  C    1.049529  -1.595697
     5  N   -0.051199   0.055819
     6  C   -0.603996   0.223754
     7  O   -0.307305   0.001991
     8  C    0.676232  -0.413179
     9  C   -0.487675  -0.062077
    10  N   -0.107541   0.025143
    11  C    0.023248  -0.403651
    12  O   -0.260955   0.005302
    13  C    0.631837  -0.704171
    14  C   -0.217579   0.276589
    15  C   -0.447767  -0.115623
    16  O   -0.075964   0.004701
    17  C   -0.181538  -0.290980
    18  C    0.416632  -0.737725
    19  N   -0.383997   0.148255
    20  H    0.111296   0.031731
    21  H    0.184859   0.030749
    22  H    0.087891   0.034066
    23  H    2.225050  -2.191762
    24  H   -0.363580   0.531146
    25  H   -0.703271   0.907859
    26  H   -0.298303   0.506275
    27  H    0.240295   0.050492
    28  H    0.168020  -0.062822
    29  H   -0.433872   0.667453
    30  H    0.253420   0.019387
    31  H    0.131972   0.074470
    32  H    0.367310  -0.025858
    33  H   -0.384307   0.527620
    34  H   -0.202721   0.406190
    35  H   -0.380483   0.608062
    36  H    0.269860  -0.073934
    37  H    0.082338   0.096302
    38  H    0.190853  -0.014791
    39  H   -0.148240   0.309461
    40  H    0.041615   0.121653
    41  H   -0.015181   0.269070
    42  H   -0.207503   0.464699
 Sum of Mulliken charges =  -1.00000   1.00000

 Dipole moment (field-independent basis, Debye):
    X=              0.3288    Y=              2.7484    Z=              5.5515  Tot=              6.2033
 Quadrupole moment (field-independent basis, Debye-Ang):
   XX=           -189.7448   YY=           -164.8927   ZZ=           -170.5441
   XY=             -3.4032   XZ=              1.3539   YZ=              4.5914

 Summary of Natural Population Analysis:

                                       Natural Population
                Natural  -----------------------------------------------
    Atom  No    Charge         Core      Valence    Rydberg      Total
 -----------------------------------------------------------------------
      C    1   -0.10350      0.99961     2.09574    0.00815     3.10350
      O    2   -0.30150      0.99988     3.29324    0.00838     4.30150
      C    3   -0.01760      0.99958     2.00554    0.01249     3.01760
      C    4   -0.09980      0.99961     2.08671    0.01348     3.09980
      N    5   -0.31432      0.99967     2.80406    0.01059     3.81432
      C    6    0.34503      0.99967     1.63145    0.02385     2.65497
      O    7   -0.33170      0.99988     3.32628    0.00554     4.33170
      C    8   -0.23942      0.99958     2.23159    0.00825     3.23942
      C    9   -0.09555      0.99960     2.08463    0.01133     3.09555
      N   10   -0.31376      0.99966     2.80471    0.00939     3.81376
      C   11    0.34644      0.99959     1.62894    0.02503     2.65356
      O   12   -0.33601      0.99988     3.33086    0.00527     4.33601
      C   13    0.02237      0.99951     1.96343    0.01469     2.97763
      C   14   -0.20540      0.99958     2.19401    0.01180     3.20540
      C   15   -0.01210      0.99957     1.99897    0.01356     3.01210
      O   16   -0.29874      0.99989     3.29068    0.00816     4.29874
      C   17   -0.01238      0.99957     2.00079    0.01203     3.01238
      C   18   -0.20919      0.99960     2.19838    0.01121     3.20919
      N   19   -0.42277      0.99976     2.91146    0.01156     3.92277
      H   20    0.08687      0.00000     0.41239    0.00074     0.41313
      H   21    0.09648      0.00000     0.40225    0.00126     0.40352
      H   22    0.07621      0.00000     0.42273    0.00107     0.42379
      H   23    0.08111      0.00000     0.41554    0.00335     0.41889
      H   24    0.08320      0.00000     0.41523    0.00157     0.41680
      H   25    0.10623      0.00000     0.39110    0.00268     0.39377
      H   26    0.10311      0.00000     0.39538    0.00151     0.39689
      H   27    0.19532      0.00000     0.30260    0.00208     0.30468
      H   28    0.10294      0.00000     0.39463    0.00243     0.39706
      H   29    0.11783      0.00000     0.38082    0.00135     0.38217
      H   30    0.12297      0.00000     0.37528    0.00176     0.37703
      H   31    0.10286      0.00000     0.39602    0.00112     0.39714
      H   32    0.19781      0.00000     0.30020    0.00199     0.30219
      H   33    0.10572      0.00000     0.39206    0.00222     0.39428
      H   34    0.10423      0.00000     0.39394    0.00183     0.39577
      H   35    0.09493      0.00000     0.40351    0.00156     0.40507
      H   36    0.07778      0.00000     0.42022    0.00200     0.42222
      H   37    0.08788      0.00000     0.41112    0.00099     0.41212
      H   38    0.09032      0.00000     0.40839    0.00129     0.40968
      H   39    0.09979      0.00000     0.39881    0.00140     0.40021
      H   40    0.10815      0.00000     0.39081    0.00104     0.39185
      H   41    0.17732      0.00000     0.32067    0.00201     0.32268
      H   42    0.18086      0.00000     0.31542    0.00372     0.31914
 =======================================================================
   * Total *   -0.00000     18.99368    54.74060    0.26572    74.00000

 Normal termination of Gaussian 16 at Sat Dec 12 12:03:53 2020.
