 Gaussian 16, Revision A.03,

 -----------------------------------------------------------
 # opt freq B3LYP/6-31G(d) empiricaldispersion=gd3bj scf=xqc
 -----------------------------------------------------------

 ------------------------------
 CID_66226772_JID_1853_neutraal
 ------------------------------
 Symbolic Z-matrix:
 Charge =  0 Multiplicity = 1

 SCF Done:  E(RB3LYP) =  -807.355475536     A.U. after   13 cycles
 SCF Done:  E(RB3LYP) =  -807.358254121     A.U. after   12 cycles
 SCF Done:  E(RB3LYP) =  -807.355329898     A.U. after   13 cycles
 SCF Done:  E(RB3LYP) =  -807.358478799     A.U. after   11 cycles
 SCF Done:  E(RB3LYP) =  -807.359021270     A.U. after   11 cycles
 SCF Done:  E(RB3LYP) =  -807.359931837     A.U. after   12 cycles
 SCF Done:  E(RB3LYP) =  -807.360291842     A.U. after   11 cycles
 SCF Done:  E(RB3LYP) =  -807.360417346     A.U. after   12 cycles
 SCF Done:  E(RB3LYP) =  -807.360801439     A.U. after   11 cycles
 SCF Done:  E(RB3LYP) =  -807.359650966     A.U. after   13 cycles
 SCF Done:  E(RB3LYP) =  -807.364835162     A.U. after   10 cycles
 SCF Done:  E(RB3LYP) =  -807.364848569     A.U. after    9 cycles
 SCF Done:  E(RB3LYP) =  -807.364853365     A.U. after    9 cycles
 SCF Done:  E(RB3LYP) =  -807.364854539     A.U. after    8 cycles
 SCF Done:  E(RB3LYP) =  -807.364854863     A.U. after    8 cycles
 SCF Done:  E(RB3LYP) =  -807.364854937     A.U. after    6 cycles
 Optimization completed.
    -- Stationary point found.
 Normal termination of Gaussian 16 at Tue Dec  8 20:52:44 2020.

 --------------------------------------------------------------------
 #N Geom=AllCheck Guess=TCheck SCRF=Check GenChk RB3LYP/6-31G(d) Freq
 --------------------------------------------------------------------

 Structure from the checkpoint file:  "JID_1853.chk"
 ------------------------------
 CID_66226772_JID_1853_neutraal
 ------------------------------
 Charge =  0 Multiplicity = 1

 SCF Done:  E(RB3LYP) =  -807.364854937     A.U. after    1 cycles

  Exact polarizability: 139.588  -8.023 115.282  -5.096  -5.104  97.996
 Approx polarizability: 189.554 -14.453 162.423 -11.256  -8.559 148.535

                      1                      2                      3
                      A                      A                      A
 Frequencies --     44.6485                62.4072                75.3334
 Red. masses --      3.2946                 3.3508                 3.9219
 Frc consts  --      0.0039                 0.0077                 0.0131
 IR Inten    --      0.5571                 2.2027                 0.0786

                      4                      5                      6
                      A                      A                      A
 Frequencies --     95.5416               115.8884               136.9545
 Red. masses --      2.5827                 3.1624                 3.2988
 Frc consts  --      0.0139                 0.0250                 0.0365
 IR Inten    --      1.8208                 1.9539                 0.6049

                      7                      8                      9
                      A                      A                      A
 Frequencies --    164.7891               207.1074               227.9298
 Red. masses --      2.3345                 2.8837                 3.1712
 Frc consts  --      0.0374                 0.0729                 0.0971
 IR Inten    --      1.2891                 7.0216                 0.4077

                     10                     11                     12
                      A                      A                      A
 Frequencies --    242.4227               261.3452               278.6861
 Red. masses --      2.1919                 1.2494                 3.0603
 Frc consts  --      0.0759                 0.0503                 0.1400
 IR Inten    --      2.1908                33.8299                11.2117

                     13                     14                     15
                      A                      A                      A
 Frequencies --    308.8906               349.4258               362.9359
 Red. masses --      1.1095                 1.8280                 1.9620
 Frc consts  --      0.0624                 0.1315                 0.1523
 IR Inten    --      4.0918                 3.3997                 6.4352

                     16                     17                     18
                      A                      A                      A
 Frequencies --    403.0263               430.3890               440.4073
 Red. masses --      1.9516                 2.2901                 1.9590
 Frc consts  --      0.1868                 0.2499                 0.2239
 IR Inten    --      1.6957                 1.3419                 0.4606

                     19                     20                     21
                      A                      A                      A
 Frequencies --    568.0508               629.3864               674.3411
 Red. masses --      3.0126                 1.9943                 2.3877
 Frc consts  --      0.5728                 0.4655                 0.6397
 IR Inten    --      5.5603                 2.5536                 5.4526

                     22                     23                     24
                      A                      A                      A
 Frequencies --    749.5984               781.0383               812.5364
 Red. masses --      3.7676                 1.5992                 2.7090
 Frc consts  --      1.2473                 0.5748                 1.0538
 IR Inten    --      6.7110                 4.4251                 4.0455

                     25                     26                     27
                      A                      A                      A
 Frequencies --    854.2195               869.6632               875.2375
 Red. masses --      1.6190                 1.3192                 2.1074
 Frc consts  --      0.6960                 0.5878                 0.9512
 IR Inten    --      2.5222                99.1031                16.6858

                     28                     29                     30
                      A                      A                      A
 Frequencies --    907.0961               933.2622               958.2214
 Red. masses --      2.0171                 1.8925                 1.3563
 Frc consts  --      0.9779                 0.9712                 0.7338
 IR Inten    --      2.4725                 2.4988                42.9735

                     31                     32                     33
                      A                      A                      A
 Frequencies --    971.9029               975.6281              1019.6362
 Red. masses --      1.3190                 1.8600                 1.8208
 Frc consts  --      0.7341                 1.0431                 1.1154
 IR Inten    --      8.1854                21.5321                 4.1123

                     34                     35                     36
                      A                      A                      A
 Frequencies --   1030.7019              1048.4161              1080.3317
 Red. masses --      1.4735                 1.1147                 1.5268
 Frc consts  --      0.9223                 0.7219                 1.0499
 IR Inten    --     16.4475                22.7306                 7.2199

                     37                     38                     39
                      A                      A                      A
 Frequencies --   1088.5845              1109.5491              1123.8672
 Red. masses --      2.7094                 1.9500                 1.3749
 Frc consts  --      1.8917                 1.4144                 1.0231
 IR Inten    --      1.3092                 2.9991                 1.4432

                     40                     41                     42
                      A                      A                      A
 Frequencies --   1138.7131              1197.4354              1236.0185
 Red. masses --      1.5395                 1.1341                 1.5328
 Frc consts  --      1.1761                 0.9581                 1.3797
 IR Inten    --      5.8949                 2.5071                 2.1476

                     43                     44                     45
                      A                      A                      A
 Frequencies --   1243.1591              1252.8689              1288.3816
 Red. masses --      1.4468                 1.3401                 1.2181
 Frc consts  --      1.3174                 1.2394                 1.1913
 IR Inten    --      0.6302                 0.8502                 5.0640

                     46                     47                     48
                      A                      A                      A
 Frequencies --   1310.1035              1323.5701              1336.5834
 Red. masses --      1.1728                 1.2733                 1.2379
 Frc consts  --      1.1860                 1.3143                 1.3030
 IR Inten    --      0.1812                 8.5733                11.9370

                     49                     50                     51
                      A                      A                      A
 Frequencies --   1346.2386              1375.4170              1380.8869
 Red. masses --      1.2437                 1.3247                 1.4093
 Frc consts  --      1.3280                 1.4765                 1.5833
 IR Inten    --      6.7785                 5.7639                 0.3213

                     52                     53                     54
                      A                      A                      A
 Frequencies --   1400.8702              1404.0020              1427.2108
 Red. masses --      1.3764                 1.4229                 1.3247
 Frc consts  --      1.5914                 1.6526                 1.5899
 IR Inten    --      2.3413                 6.1084                 8.6906

                     55                     56                     57
                      A                      A                      A
 Frequencies --   1445.7915              1486.0995              1488.3265
 Red. masses --      1.3269                 1.1306                 1.1406
 Frc consts  --      1.6342                 1.4712                 1.4886
 IR Inten    --     10.7453                 3.7866                 3.6129

                     58                     59                     60
                      A                      A                      A
 Frequencies --   1495.5002              1507.8718              1523.2216
 Red. masses --      1.0837                 1.0853                 1.1105
 Frc consts  --      1.4281                 1.4538                 1.5181
 IR Inten    --      1.7933                 3.7527                 7.7813

                     61                     62                     63
                      A                      A                      A
 Frequencies --   1530.6173              1533.6563              1550.3568
 Red. masses --      1.0551                 1.0748                 1.0520
 Frc consts  --      1.4563                 1.4895                 1.4899
 IR Inten    --      7.6803                 0.7810                 7.4045

                     64                     65                     66
                      A                      A                      A
 Frequencies --   1697.6841              1732.5816              2959.0307
 Red. masses --      1.0873                 4.2823                 1.0731
 Frc consts  --      1.8464                 7.5738                 5.5362
 IR Inten    --     31.8893                 7.9750                99.3925

                     67                     68                     69
                      A                      A                      A
 Frequencies --   3017.2330              3029.1630              3036.1797
 Red. masses --      1.0689                 1.0698                 1.0843
 Frc consts  --      5.7333                 5.7834                 5.8889
 IR Inten    --     32.8677                41.7862                24.2325

                     70                     71                     72
                      A                      A                      A
 Frequencies --   3044.1881              3066.5419              3077.7668
 Red. masses --      1.0377                 1.0877                 1.0711
 Frc consts  --      5.6661                 6.0263                 5.9778
 IR Inten    --     22.7110                22.9374                14.8905

                     73                     74                     75
                      A                      A                      A
 Frequencies --   3078.9503              3086.5655              3098.6959
 Red. masses --      1.0648                 1.0930                 1.0916
 Frc consts  --      5.9471                 6.1354                 6.1756
 IR Inten    --     39.1888                20.8519                16.9204

                     76                     77                     78
                      A                      A                      A
 Frequencies --   3105.4165              3126.0451              3130.8067
 Red. masses --      1.1021                 1.0843                 1.0996
 Frc consts  --      6.2620                 6.2428                 6.3506
 IR Inten    --     42.6596                35.8895                22.5009

                     79                     80                     81
                      A                      A                      A
 Frequencies --   3139.0259              3152.3613              3188.6160
 Red. masses --      1.1007                 1.0661                 1.0912
 Frc consts  --      6.3903                 6.2417                 6.5369
 IR Inten    --      4.6945                10.3545                 2.4413

                     82                     83                     84
                      A                      A                      A
 Frequencies --   3230.5813              3476.8186              3558.9146
 Red. masses --      1.1162                 1.0499                 1.0924
 Frc consts  --      6.8634                 7.4775                 8.1521
 IR Inten    --     15.6068                 0.6301                 0.2315

 - Thermochemistry -
 -------------------
 Temperature   298.150 Kelvin.  Pressure   1.00000 Atm.
 Atom     1 has atomic number  6 and mass  12.00000

 Molecular mass:   173.12382 amu.
 Principal axes and moments of inertia in atomic units:
                           1         2         3
     Eigenvalues --  1686.654712708.969813741.84871
           X            1.00000  -0.00030   0.00053
           Y            0.00030   0.99996   0.00837
           Z           -0.00053  -0.00837   0.99996
 This molecule is an asymmetric top.
 Rotational symmetry number  1.
 Warning -- assumption of classical behavior for rotation
           may cause significant error
 Rotational temperatures (Kelvin)      0.05135     0.03197     0.02315
 Rotational constants (GHZ):           1.07001     0.66621     0.48231
 Zero-point vibrational energy     714921.0 (Joules/Mol)
                                  170.87023 (Kcal/Mol)
 Warning -- explicit consideration of  19 degrees of freedom as
           vibrations may cause significant error
 Vibrational temperatures:     64.24    89.79   108.39   137.46   166.74
          (Kelvin)            197.05   237.09   297.98   327.94   348.79
                              376.02   400.97   444.42   502.75   522.18
                              579.86   619.23   633.65   817.30   905.55
                              970.23  1078.50  1123.74  1169.06  1229.03
                             1251.25  1259.27  1305.11  1342.76  1378.67
                             1398.35  1403.71  1467.03  1482.95  1508.44
                             1554.36  1566.23  1596.39  1616.99  1638.35
                             1722.84  1778.35  1788.63  1802.60  1853.69
                             1884.95  1904.32  1923.05  1936.94  1978.92
                             1986.79  2015.54  2020.05  2053.44  2080.17
                             2138.17  2141.37  2151.69  2169.49  2191.58
                             2202.22  2206.59  2230.62  2442.59  2492.80
                             4257.39  4341.13  4358.29  4368.39  4379.91
                             4412.07  4428.22  4429.92  4440.88  4458.33
                             4468.00  4497.68  4504.53  4516.36  4535.54
                             4587.71  4648.09  5002.37  5120.48

 Zero-point correction=                           0.272299 (Hartree/Particle)
 Thermal correction to Energy=                    0.286286
 Thermal correction to Enthalpy=                  0.287230
 Thermal correction to Gibbs Free Energy=         0.231509
 Sum of electronic and zero-point Energies=           -807.092556
 Sum of electronic and thermal Energies=              -807.078569
 Sum of electronic and thermal Enthalpies=            -807.077625
 Sum of electronic and thermal Free Energies=         -807.133346

                     E (Thermal)             CV                S
                      KCal/Mol        Cal/Mol-Kelvin    Cal/Mol-Kelvin
 Total                  179.647             51.385            117.274
 Electronic               0.000              0.000              0.000
 Translational            0.889              2.981             41.354
 Rotational               0.889              2.981             31.214
 Vibrational            177.869             45.424             44.706
 Vibration     1          0.595              1.980              5.041
 Vibration     2          0.597              1.972              4.380
 Vibration     3          0.599              1.965              4.009
 Vibration     4          0.603              1.952              3.543
 Vibration     5          0.608              1.936              3.168
 Vibration     6          0.614              1.916              2.846
 Vibration     7          0.623              1.886              2.494
 Vibration     8          0.641              1.830              2.069
 Vibration     9          0.651              1.798              1.895
 Vibration    10          0.659              1.775              1.785
 Vibration    11          0.669              1.744              1.653
 Vibration    12          0.679              1.713              1.542
 Vibration    13          0.698              1.657              1.368
 Vibration    14          0.727              1.576              1.169
 Vibration    15          0.737              1.549              1.110
 Vibration    16          0.768              1.464              0.952
 Vibration    17          0.792              1.404              0.857
 Vibration    18          0.800              1.382              0.825
 Vibration    19          0.924              1.100              0.508

 Optimization completed.
    -- Stationary point found.
 Normal termination of Gaussian 16 at Tue Dec  8 21:00:32 2020.

 ----------------------------------------------------------------------
 # B3LYP/6-311++G(d,p) empiricaldispersion=gd3bj scf=xqc pop=npa geom=c
 heck
 ----------------------------------------------------------------------

 --------------------------------------
 CID_66226772_JID_1853_Energie_neutraal
 --------------------------------------
 Structure from the checkpoint file:  "JID_1853.chk"
 Charge =  0 Multiplicity = 1

 SCF Done:  E(RB3LYP) =  -807.516714955     A.U. after   13 cycles
 Normal termination of Gaussian 16 at Tue Dec  8 21:07:19 2020.

 ----------------------------------------------------------------------
 # B3LYP/6-311++G(d,p) empiricaldispersion=gd3bj scf=xqc pop=npa geom=c
 heck
 ----------------------------------------------------------------------

 ------------------------------------
 CID_66226772_JID_1853_Energie_kation
 ------------------------------------
 Structure from the checkpoint file:  "JID_1853.chk"
 Charge =  1 Multiplicity = 2

 SCF Done:  E(UB3LYP) =  -807.228030895     A.U. after   20 cycles
 Normal termination of Gaussian 16 at Tue Dec  8 21:15:29 2020.
 Gaussian 16:  ES64L-G16RevA.03 25-Dec-2016

 ----------------------------------------------------------------------
 # B3LYP/6-311++G(d,p) empiricaldispersion=gd3bj scf=xqc pop=npa geom=c
 heck
 ----------------------------------------------------------------------

 -----------------------------------
 CID_66226772_JID_1853_Energie_anion
 -----------------------------------
 Structure from the checkpoint file:  "JID_1853.chk"
 Charge = -1 Multiplicity = 2

                         Standard orientation:
 ---------------------------------------------------------------------
 Center     Atomic      Atomic             Coordinates (Angstroms)
 Number     Number       Type             X           Y           Z
 ---------------------------------------------------------------------
      1          6           0        1.657367    0.413847    1.596004
      2          6           0        2.004505    0.759938    0.143723
      3          6           0        3.063932   -0.199239   -0.428375
      4          7           0        2.571532   -1.583310   -0.486406
      5          6           0        0.774346    0.775175   -0.774436
      6         16           0       -0.519193    2.013825   -0.359307
      7          6           0       -1.687912    1.088289    0.723021
      8          6           0       -2.825720    0.368861   -0.008791
      9          6           0       -2.414551   -0.931541   -0.724806
     10          6           0       -1.967553   -2.000646    0.234571
     11          6           0       -0.776756   -2.602826    0.247730
     12          1           0        1.131490   -0.546207    1.662353
     13          1           0        1.008399    1.179847    2.030024
     14          1           0        2.563237    0.354374    2.211600
     15          1           0        2.450050    1.764350    0.132916
     16          1           0        3.303348    0.105210   -1.454781
     17          1           0        3.991531   -0.086906    0.161203
     18          1           0        3.241421   -2.165815   -0.984708
     19          1           0        2.511749   -1.966014    0.455271
     20          1           0        1.084485    1.020645   -1.796019
     21          1           0        0.325156   -0.215524   -0.808459
     22          1           0       -1.121921    0.390686    1.345302
     23          1           0       -2.103111    1.852515    1.388028
     24          1           0       -3.603377    0.128107    0.731913
     25          1           0       -3.280755    1.056092   -0.730942
     26          1           0       -3.286379   -1.298405   -1.285667
     27          1           0       -1.634753   -0.726307   -1.465848
     28          1           0       -2.707879   -2.283569    0.986407
     29          1           0       -0.545876   -3.370507    0.983078
     30          1           0        0.013597   -2.361760   -0.459766
 ---------------------------------------------------------------------

 SCF Done:  E(UB3LYP) =  -807.501834475     A.U. after   30 cycles

 The electronic state is 2-A.
 Alpha  occ. eigenvalues --  -88.73386 -14.18524 -10.09740 -10.08901 -10.08595
 Alpha  occ. eigenvalues --  -10.07811 -10.07702 -10.07618 -10.07377 -10.06074
 Alpha  occ. eigenvalues --  -10.05396  -7.81999  -5.78394  -5.78019  -5.77383
 Alpha  occ. eigenvalues --   -0.77942  -0.72585  -0.70126  -0.67060  -0.63045
 Alpha  occ. eigenvalues --   -0.59200  -0.56644  -0.52813  -0.48309  -0.45492
 Alpha  occ. eigenvalues --   -0.45232  -0.39543  -0.37355  -0.36897  -0.36582
 Alpha  occ. eigenvalues --   -0.35215  -0.33259  -0.32642  -0.31403  -0.30400
 Alpha  occ. eigenvalues --   -0.29827  -0.28182  -0.27420  -0.26115  -0.25433
 Alpha  occ. eigenvalues --   -0.24196  -0.23550  -0.23464  -0.22172  -0.19780
 Alpha  occ. eigenvalues --   -0.16357  -0.14245  -0.12132   0.04527
 Alpha virt. eigenvalues --    0.06097   0.07614   0.07723   0.08553   0.08790
 Alpha virt. eigenvalues --    0.09187   0.09767   0.10344   0.10798   0.11125
 Alpha virt. eigenvalues --    0.11845   0.11974   0.12896   0.13190   0.13613

  Beta  occ. eigenvalues --  -88.73384 -14.18475 -10.09730 -10.08894 -10.08564
  Beta  occ. eigenvalues --  -10.07796 -10.07696 -10.07607 -10.07374 -10.06058
  Beta  occ. eigenvalues --  -10.05369  -7.81997  -5.78393  -5.78014  -5.77382
  Beta  occ. eigenvalues --   -0.77861  -0.72563  -0.70098  -0.67030  -0.63015
  Beta  occ. eigenvalues --   -0.59170  -0.56569  -0.52768  -0.48268  -0.45452
  Beta  occ. eigenvalues --   -0.45188  -0.39480  -0.37313  -0.36864  -0.36546
  Beta  occ. eigenvalues --   -0.35180  -0.33214  -0.32608  -0.31346  -0.30364
  Beta  occ. eigenvalues --   -0.29801  -0.28156  -0.27395  -0.26089  -0.25402
  Beta  occ. eigenvalues --   -0.24167  -0.23522  -0.23434  -0.22142  -0.19758
  Beta  occ. eigenvalues --   -0.16337  -0.14198  -0.12118
  Beta virt. eigenvalues --    0.06639   0.07318   0.07991   0.08240   0.09008
  Beta virt. eigenvalues --    0.09455   0.09700   0.09908   0.10558   0.11064
  Beta virt. eigenvalues --    0.11510   0.12273   0.12454   0.13062   0.13483

 Mulliken charges and spin densities:
               1          2
     1  C    0.345402  -1.092765
     2  C   -1.057778   1.392736
     3  C    1.308217  -2.001087
     4  N   -0.461731   0.086097
     5  C    0.208956  -0.522838
     6  S    0.152973  -0.025780
     7  C   -0.489501   0.424909
     8  C    0.489292  -1.204917
     9  C   -0.250880   0.060951
    10  C   -0.194831   0.312042
    11  C    0.423144  -1.015022
    12  H   -0.171179   0.336599
    13  H   -0.108165   0.237671
    14  H   -0.287527   0.445761
    15  H    0.152026   0.009104
    16  H   -0.388062   0.546321
    17  H   -0.416028   0.562338
    18  H   -0.272860   0.529713
    19  H   -0.021899   0.241927
    20  H    0.246559  -0.023549
    21  H    0.327666  -0.291317
    22  H    0.286878  -0.164815
    23  H   -0.138643   0.382242
    24  H   -0.336590   0.467032
    25  H    0.059097   0.073341
    26  H    0.001547   0.172422
    27  H   -0.080195   0.226879
    28  H   -0.238264   0.405579
    29  H   -0.316357   0.439037
    30  H    0.228734  -0.010613
 Sum of Mulliken charges =  -1.00000   1.00000

 Dipole moment (field-independent basis, Debye):
    X=             -4.0182    Y=              3.8422    Z=             -1.6308  Tot=              5.7937
 Quadrupole moment (field-independent basis, Debye-Ang):
   XX=           -153.1240   YY=           -126.3288   ZZ=           -112.7227
   XY=              8.7634   XZ=              2.7215   YZ=              0.0247

 Summary of Natural Population Analysis:

                                       Natural Population
                Natural  -----------------------------------------------
    Atom  No    Charge         Core      Valence    Rydberg      Total
 -----------------------------------------------------------------------
      C    1   -0.29354      0.99964     2.28718    0.00671     3.29354
      C    2   -0.12133      0.99958     2.10899    0.01276     3.12133
      C    3   -0.08364      0.99961     2.07093    0.01310     3.08364
      N    4   -0.42983      0.99977     2.91805    0.01201     3.92983
      C    5   -0.24973      0.99954     2.23990    0.01029     3.24973
      S    6    0.07396      4.99962     2.91035    0.01606     7.92604
      C    7   -0.25358      0.99958     2.24326    0.01075     3.25358
      C    8   -0.19139      0.99961     2.18165    0.01013     3.19139
      C    9   -0.21169      0.99960     2.20255    0.00954     3.21169
      C   10   -0.09096      0.99957     2.08098    0.01041     3.09096
      C   11   -0.19217      0.99955     2.18402    0.00860     3.19217
      H   12    0.09944      0.00000     0.39893    0.00162     0.40056
      H   13    0.10295      0.00000     0.39581    0.00124     0.39705
      H   14    0.10124      0.00000     0.39760    0.00116     0.39876
      H   15    0.09652      0.00000     0.40204    0.00144     0.40348
      H   16    0.08963      0.00000     0.40893    0.00145     0.41037
      H   17    0.08308      0.00000     0.41449    0.00243     0.41692
      H   18    0.18066      0.00000     0.31512    0.00423     0.31934
      H   19    0.17576      0.00000     0.32047    0.00377     0.32424
      H   20    0.10371      0.00000     0.39523    0.00106     0.39629
      H   21    0.11140      0.00000     0.38580    0.00280     0.38860
      H   22    0.10919      0.00000     0.38923    0.00159     0.39081
      H   23    0.10449      0.00000     0.39451    0.00099     0.39551
      H   24    0.09686      0.00000     0.40141    0.00173     0.40314
      H   25    0.09912      0.00000     0.39948    0.00140     0.40088
      H   26    0.10237      0.00000     0.39659    0.00105     0.39763
      H   27    0.10050      0.00000     0.39781    0.00169     0.39950
      H   28    0.09069      0.00000     0.40798    0.00132     0.40931
      H   29    0.09411      0.00000     0.40472    0.00117     0.40589
      H   30    0.10218      0.00000     0.39593    0.00190     0.39782
 =======================================================================
   * Total *   -0.00000     14.99567    32.84994    0.15439    48.00000

 Normal termination of Gaussian 16 at Tue Dec  8 21:28:06 2020.
