 Gaussian 16, Revision A.03,

 -----------------------------------------------------------
 # opt freq B3LYP/6-31G(d) empiricaldispersion=gd3bj scf=xqc
 -----------------------------------------------------------

 ------------------------------
 CID_82416665_JID_1822_neutraal
 ------------------------------
 Symbolic Z-matrix:
 Charge =  0 Multiplicity = 1

 SCF Done:  E(RB3LYP) =  -532.746029877     A.U. after   14 cycles
 SCF Done:  E(RB3LYP) =  -532.747935554     A.U. after   13 cycles
 SCF Done:  E(RB3LYP) =  -532.748478479     A.U. after   13 cycles
 SCF Done:  E(RB3LYP) =  -532.749683540     A.U. after   13 cycles
 SCF Done:  E(RB3LYP) =  -532.749544060     A.U. after   12 cycles
 SCF Done:  E(RB3LYP) =  -532.749852932     A.U. after   11 cycles
 SCF Done:  E(RB3LYP) =  -532.749884639     A.U. after   12 cycles
 SCF Done:  E(RB3LYP) =  -532.749913913     A.U. after   10 cycles
 SCF Done:  E(RB3LYP) =  -532.749942922     A.U. after   11 cycles
 SCF Done:  E(RB3LYP) =  -532.749963668     A.U. after   11 cycles
 SCF Done:  E(RB3LYP) =  -532.751386388     A.U. after   13 cycles
 SCF Done:  E(RB3LYP) =  -532.751395011     A.U. after   10 cycles
 SCF Done:  E(RB3LYP) =  -532.751394875     A.U. after   10 cycles
 SCF Done:  E(RB3LYP) =  -532.751396103     A.U. after   10 cycles
 SCF Done:  E(RB3LYP) =  -532.751396863     A.U. after    9 cycles
 SCF Done:  E(RB3LYP) =  -532.751396886     A.U. after    7 cycles
 Optimization completed.
    -- Stationary point found.
 Normal termination of Gaussian 16 at Tue Dec  8 21:23:46 2020.

 --------------------------------------------------------------------
 #N Geom=AllCheck Guess=TCheck SCRF=Check GenChk RB3LYP/6-31G(d) Freq
 --------------------------------------------------------------------

 Structure from the checkpoint file:  "JID_1822.chk"
 ------------------------------
 CID_82416665_JID_1822_neutraal
 ------------------------------
 Charge =  0 Multiplicity = 1

 SCF Done:  E(RB3LYP) =  -532.751396886     A.U. after    1 cycles

  Exact polarizability:  97.838   2.248  90.837  -9.321   0.852  66.727
 Approx polarizability: 133.760   3.899 142.176 -16.422   0.267 110.133

                      1                      2                      3
                      A                      A                      A
 Frequencies --     28.9090                46.9295                58.2909
 Red. masses --      4.2927                 7.9149                 1.0636
 Frc consts  --      0.0021                 0.0103                 0.0021
 IR Inten    --      0.3507                 1.0495                 0.2005

                      4                      5                      6
                      A                      A                      A
 Frequencies --    105.4896               139.3079               190.4559
 Red. masses --      5.1198                 3.2552                 4.8356
 Frc consts  --      0.0336                 0.0372                 0.1033
 IR Inten    --      0.2853                 0.0714                 0.2317

                      7                      8                      9
                      A                      A                      A
 Frequencies --    255.4694               294.6568               357.0729
 Red. masses --      3.4261                 2.5150                 3.4842
 Frc consts  --      0.1317                 0.1287                 0.2617
 IR Inten    --      0.8454                 0.4292                 0.3198

                     10                     11                     12
                      A                      A                      A
 Frequencies --    397.7750               488.9414               523.9296
 Red. masses --      2.6269                 2.7643                 1.6187
 Frc consts  --      0.2449                 0.3894                 0.2618
 IR Inten    --      1.6004                14.0698                66.2670

                     13                     14                     15
                      A                      A                      A
 Frequencies --    548.3572               605.2221               633.6343
 Red. masses --      3.0995                 2.1998                 3.5526
 Frc consts  --      0.5491                 0.4748                 0.8404
 IR Inten    --     25.9985                16.5181                10.2354

                     16                     17                     18
                      A                      A                      A
 Frequencies --    687.2512               692.8097               717.8680
 Red. masses --      2.2577                 3.5536                 1.8453
 Frc consts  --      0.6283                 1.0050                 0.5603
 IR Inten    --     56.5287                16.3094                51.8453

                     19                     20                     21
                      A                      A                      A
 Frequencies --    727.7273               803.8476               868.5807
 Red. masses --      3.2416                 3.1726                 1.2702
 Frc consts  --      1.0114                 1.2079                 0.5646
 IR Inten    --     33.3359                 5.0367                17.1771

                     22                     23                     24
                      A                      A                      A
 Frequencies --    928.7564               967.9709               976.5940
 Red. masses --      2.7107                 2.6980                 2.6779
 Frc consts  --      1.3777                 1.4894                 1.5048
 IR Inten    --     12.4778                33.5265                 4.5394

                     25                     26                     27
                      A                      A                      A
 Frequencies --   1012.9178              1046.8075              1076.7206
 Red. masses --      1.5343                 2.5927                 1.4514
 Frc consts  --      0.9275                 1.6740                 0.9914
 IR Inten    --     11.6216                 8.1646                 3.0554

                     28                     29                     30
                      A                      A                      A
 Frequencies --   1135.0447              1149.9608              1207.8575
 Red. masses --      2.1074                 2.4030                 2.8748
 Frc consts  --      1.5996                 1.8723                 2.4711
 IR Inten    --    140.5015                12.9036                40.1843

                     31                     32                     33
                      A                      A                      A
 Frequencies --   1231.9632              1245.8617              1254.4028
 Red. masses --      1.9349                 1.3186                 1.4679
 Frc consts  --      1.7302                 1.2058                 1.3609
 IR Inten    --     35.7540                25.2137                 3.3070

                     34                     35                     36
                      A                      A                      A
 Frequencies --   1335.2738              1352.4026              1386.2514
 Red. masses --      1.8173                 1.7192                 1.5658
 Frc consts  --      1.9090                 1.8527                 1.7728
 IR Inten    --     14.2276                25.2015                 8.9580

                     37                     38                     39
                      A                      A                      A
 Frequencies --   1390.8704              1399.3292              1448.6902
 Red. masses --      3.5785                 1.8287                 1.4284
 Frc consts  --      4.0787                 2.1098                 1.7662
 IR Inten    --      4.7320                19.5337                 0.1251

                     40                     41                     42
                      A                      A                      A
 Frequencies --   1462.2802              1487.8429              1511.1489
 Red. masses --      2.3785                 1.0885                 1.0958
 Frc consts  --      2.9965                 1.4197                 1.4744
 IR Inten    --      0.2608                 5.8852                 0.4794

                     43                     44                     45
                      A                      A                      A
 Frequencies --   1517.2988              1527.3174              1539.9362
 Red. masses --      1.1592                 1.2135                 2.2514
 Frc consts  --      1.5724                 1.6678                 3.1456
 IR Inten    --      8.7008                 6.9190                10.3318

                     46                     47                     48
                      A                      A                      A
 Frequencies --   1643.7427              1862.1612              3038.2127
 Red. masses --      4.8513                 9.7322                 1.0395
 Frc consts  --      7.7228                19.8837                 5.6535
 IR Inten    --      6.1492               279.1486                36.6098

                     49                     50                     51
                      A                      A                      A
 Frequencies --   3049.5737              3069.2264              3090.5215
 Red. masses --      1.0687                 1.0608                 1.0976
 Frc consts  --      5.8560                 5.8874                 6.1769
 IR Inten    --     14.4370                23.4957                23.8096

                     52                     53                     54
                      A                      A                      A
 Frequencies --   3107.2354              3114.4478              3135.0065
 Red. masses --      1.1033                 1.1013                 1.0945
 Frc consts  --      6.2760                 6.2936                 6.3376
 IR Inten    --     11.6861                23.0566                 9.5541

                     55                     56                     57
                      A                      A                      A
 Frequencies --   3248.2345              3664.2700              3678.8420
 Red. masses --      1.0959                 1.0811                 1.0641
 Frc consts  --      6.8124                 8.5527                 8.4847
 IR Inten    --     10.7915                87.1176                50.9690

 - Thermochemistry -
 -------------------
 Temperature   298.150 Kelvin.  Pressure   1.00000 Atm.
 Atom     1 has atomic number  6 and mass  12.00000

 Molecular mass:   154.07423 amu.
 Principal axes and moments of inertia in atomic units:
                           1         2         3
     Eigenvalues --   957.434832437.212172868.76908
           X            0.99951   0.02638  -0.01703
           Y           -0.02633   0.99965   0.00334
           Z            0.01711  -0.00289   0.99985
 This molecule is an asymmetric top.
 Rotational symmetry number  1.
 Warning -- assumption of classical behavior for rotation
           may cause significant error
 Rotational temperatures (Kelvin)      0.09046     0.03554     0.03019
 Rotational constants (GHZ):           1.88498     0.74049     0.62910
 Zero-point vibrational energy     451395.9 (Joules/Mol)
                                  107.88621 (Kcal/Mol)
 Warning -- explicit consideration of  14 degrees of freedom as
           vibrations may cause significant error
 Vibrational temperatures:     41.59    67.52    83.87   151.78   200.43
          (Kelvin)            274.02   367.56   423.95   513.75   572.31
                              703.48   753.82   788.96   870.78   911.66
                              988.80   996.80  1032.85  1047.04  1156.56
                             1249.69  1336.27  1392.69  1405.10  1457.36
                             1506.12  1549.16  1633.08  1654.54  1737.84
                             1772.52  1792.52  1804.81  1921.16  1945.81
                             1994.51  2001.15  2013.32  2084.34  2103.90
                             2140.67  2174.21  2183.05  2197.47  2215.62
                             2364.98  2679.23  4371.31  4387.66  4415.93
                             4446.57  4470.62  4481.00  4510.58  4673.48
                             5272.07  5293.03

 Zero-point correction=                           0.171928 (Hartree/Particle)
 Thermal correction to Energy=                    0.182745
 Thermal correction to Enthalpy=                  0.183689
 Thermal correction to Gibbs Free Energy=         0.133552
 Sum of electronic and zero-point Energies=           -532.579469
 Sum of electronic and thermal Energies=              -532.568652
 Sum of electronic and thermal Enthalpies=            -532.567708
 Sum of electronic and thermal Free Energies=         -532.617844

                     E (Thermal)             CV                S
                      KCal/Mol        Cal/Mol-Kelvin    Cal/Mol-Kelvin
 Total                  114.674             38.812            105.522
 Electronic               0.000              0.000              0.000
 Translational            0.889              2.981             41.006
 Rotational               0.889              2.981             30.283
 Vibrational            112.897             32.850             34.233
 Vibration     1          0.593              1.984              5.903
 Vibration     2          0.595              1.979              4.943
 Vibration     3          0.596              1.974              4.514
 Vibration     4          0.605              1.945              3.350
 Vibration     5          0.615              1.914              2.813
 Vibration     6          0.634              1.853              2.223
 Vibration     7          0.666              1.754              1.693
 Vibration     8          0.689              1.684              1.447
 Vibration     9          0.732              1.561              1.135
 Vibration    10          0.764              1.475              0.971
 Vibration    11          0.845              1.275              0.686
 Vibration    12          0.879              1.197              0.601
 Vibration    13          0.904              1.143              0.548
 Vibration    14          0.964              1.021              0.441

 Optimization completed.
    -- Stationary point found.
 Normal termination of Gaussian 16 at Tue Dec  8 21:28:35 2020.

 ----------------------------------------------------------------------
 # B3LYP/6-311++G(d,p) empiricaldispersion=gd3bj scf=xqc pop=npa geom=c
 heck
 ----------------------------------------------------------------------

 --------------------------------------
 CID_82416665_JID_1822_Energie_neutraal
 --------------------------------------
 Structure from the checkpoint file:  "JID_1822.chk"
 Charge =  0 Multiplicity = 1

 SCF Done:  E(RB3LYP) =  -532.913398424     A.U. after   14 cycles
 Normal termination of Gaussian 16 at Tue Dec  8 21:30:20 2020.

 ----------------------------------------------------------------------
 # B3LYP/6-311++G(d,p) empiricaldispersion=gd3bj scf=xqc pop=npa geom=c
 heck
 ----------------------------------------------------------------------

 ------------------------------------
 CID_82416665_JID_1822_Energie_kation
 ------------------------------------
 Structure from the checkpoint file:  "JID_1822.chk"
 Charge =  1 Multiplicity = 2

 SCF Done:  E(UB3LYP) =  -532.597836025     A.U. after   23 cycles
 Normal termination of Gaussian 16 at Tue Dec  8 21:34:34 2020.
 Gaussian 16:  ES64L-G16RevA.03 25-Dec-2016

 ----------------------------------------------------------------------
 # B3LYP/6-311++G(d,p) empiricaldispersion=gd3bj scf=xqc pop=npa geom=c
 heck
 ----------------------------------------------------------------------

 -----------------------------------
 CID_82416665_JID_1822_Energie_anion
 -----------------------------------
 Structure from the checkpoint file:  "JID_1822.chk"
 Charge = -1 Multiplicity = 2

                         Standard orientation:
 ---------------------------------------------------------------------
 Center     Atomic      Atomic             Coordinates (Angstroms)
 Number     Number       Type             X           Y           Z
 ---------------------------------------------------------------------
      1          6           0        2.610572    1.648459   -0.365396
      2          6           0        1.955575    0.321180   -0.128646
      3          6           0        0.733447    0.071162    0.482970
      4          7           0        0.567910   -1.282058    0.444359
      5          7           0        1.589761   -1.936773   -0.144273
      6          6           0        2.432115   -0.963885   -0.490906
      7          6           0       -0.293216    0.987732    1.069882
      8          6           0       -1.452013    1.314016    0.107780
      9          6           0       -2.290879    0.133601   -0.331438
     10          8           0       -2.857603    0.033636   -1.393006
     11          8           0       -2.398532   -0.827588    0.634846
     12          1           0        3.699888    1.572128   -0.279523
     13          1           0        2.391480    2.044781   -1.365568
     14          1           0        2.276736    2.398634    0.360570
     15          1           0       -0.233250   -1.794474    0.781707
     16          1           0        3.362446   -1.212245   -0.986248
     17          1           0       -0.699336    0.560420    1.993139
     18          1           0        0.192600    1.929399    1.345868
     19          1           0       -2.139228    2.022312    0.591105
     20          1           0       -1.084647    1.793173   -0.803116
     21          1           0       -2.994919   -1.504285    0.261272
 ---------------------------------------------------------------------

 SCF Done:  E(UB3LYP) =  -532.904636071     A.U. after   30 cycles

 The electronic state is 2-A.
 Alpha  occ. eigenvalues --  -19.06483 -19.01028 -14.27320 -14.22410 -10.20040
 Alpha  occ. eigenvalues --  -10.10381 -10.08293 -10.08271 -10.08269 -10.07036
 Alpha  occ. eigenvalues --  -10.06728  -1.00426  -0.93922  -0.91620  -0.72919
 Alpha  occ. eigenvalues --   -0.70407  -0.67289  -0.60572  -0.57023  -0.50297
 Alpha  occ. eigenvalues --   -0.50196  -0.46276  -0.41657  -0.38655  -0.37589
 Alpha  occ. eigenvalues --   -0.37321  -0.34176  -0.33973  -0.32613  -0.31307
 Alpha  occ. eigenvalues --   -0.30683  -0.30069  -0.28859  -0.28559  -0.27058
 Alpha  occ. eigenvalues --   -0.25270  -0.22349  -0.18995  -0.17832  -0.15298
 Alpha  occ. eigenvalues --   -0.13303   0.04442
 Alpha virt. eigenvalues --    0.06701   0.07705   0.09188   0.09446   0.09781
 Alpha virt. eigenvalues --    0.10551   0.10914   0.11649   0.12355   0.13073
 Alpha virt. eigenvalues --    0.13808   0.14452   0.15593   0.15637   0.16134

  Beta  occ. eigenvalues --  -19.06417 -19.00994 -14.27297 -14.22399 -10.20001
  Beta  occ. eigenvalues --  -10.10381 -10.08269 -10.08250 -10.08229 -10.07001
  Beta  occ. eigenvalues --  -10.06722  -1.00319  -0.93897  -0.91529  -0.72879
  Beta  occ. eigenvalues --   -0.70372  -0.67217  -0.60506  -0.56915  -0.50266
  Beta  occ. eigenvalues --   -0.50054  -0.46229  -0.41606  -0.38598  -0.37511
  Beta  occ. eigenvalues --   -0.37207  -0.34131  -0.33917  -0.32553  -0.31259
  Beta  occ. eigenvalues --   -0.30638  -0.30013  -0.28783  -0.28498  -0.27001
  Beta  occ. eigenvalues --   -0.25215  -0.22236  -0.18964  -0.17753  -0.15263
  Beta  occ. eigenvalues --   -0.13261
  Beta virt. eigenvalues --    0.07010   0.07982   0.08664   0.09520   0.09871
  Beta virt. eigenvalues --    0.10292   0.10860   0.11600   0.12179   0.12791
  Beta virt. eigenvalues --    0.13198   0.14250   0.14647   0.15623   0.15876

 Mulliken charges and spin densities:
               1          2
     1  C    1.867984  -2.659319
     2  C    0.362430  -0.003414
     3  C   -0.324169   0.640430
     4  N   -0.029809   0.034634
     5  N   -0.178555   0.004662
     6  C   -0.456459   0.168640
     7  C   -0.849513   0.270233
     8  C    1.176772  -1.439503
     9  C   -0.114375  -0.056625
    10  O   -0.310721   0.056220
    11  O   -0.237824   0.058823
    12  H   -0.066878   0.199756
    13  H   -0.129407   0.290360
    14  H   -0.156756   0.293924
    15  H    0.242792   0.088137
    16  H    0.049707   0.094530
    17  H   -0.256211   0.479572
    18  H   -0.472674   0.652495
    19  H   -0.686495   0.886456
    20  H    0.033143   0.169652
    21  H   -0.462982   0.770339
 Sum of Mulliken charges =  -1.00000   1.00000

 Dipole moment (field-independent basis, Debye):
    X=              4.2973    Y=             -1.5582    Z=             -1.2668  Tot=              4.7433
 Quadrupole moment (field-independent basis, Debye-Ang):
   XX=           -117.3660   YY=           -109.9838   ZZ=            -94.2446
   XY=             -1.7646   XZ=              0.9657   YZ=             -4.1280

 Summary of Natural Population Analysis:

                                       Natural Population
                Natural  -----------------------------------------------
    Atom  No    Charge         Core      Valence    Rydberg      Total
 -----------------------------------------------------------------------
      C    1   -0.29219      0.99964     2.28713    0.00541     3.29219
      C    2   -0.07334      0.99947     2.06382    0.01005     3.07334
      C    3    0.07868      0.99948     1.90855    0.01328     2.92132
      N    4   -0.16754      0.99964     2.65605    0.01184     3.66754
      N    5   -0.15681      0.99974     2.64437    0.01270     3.65681
      C    6   -0.01588      0.99958     2.00223    0.01407     3.01588
      C    7   -0.20874      0.99960     2.19847    0.01068     3.20874
      C    8   -0.23293      0.99957     2.22382    0.00955     3.23293
      C    9    0.41361      0.99971     1.56190    0.02477     2.58639
      O   10   -0.30252      0.99987     3.29637    0.00629     4.30252
      O   11   -0.35834      0.99988     3.35025    0.00821     4.35834
      H   12    0.10085      0.00000     0.39828    0.00087     0.39915
      H   13    0.10291      0.00000     0.39597    0.00112     0.39709
      H   14    0.10631      0.00000     0.39241    0.00128     0.39369
      H   15    0.20519      0.00000     0.29172    0.00309     0.29481
      H   16    0.09313      0.00000     0.40595    0.00092     0.40687
      H   17    0.11278      0.00000     0.38484    0.00238     0.38722
      H   18    0.11395      0.00000     0.38350    0.00255     0.38605
      H   19    0.12235      0.00000     0.37243    0.00522     0.37765
      H   20    0.11179      0.00000     0.38700    0.00121     0.38821
      H   21    0.24673      0.00000     0.23539    0.01788     0.25327
 =======================================================================
   * Total *    0.00000     10.99618    29.84044    0.16339    41.00000

 Normal termination of Gaussian 16 at Tue Dec  8 21:40:04 2020.
