 Gaussian 16, Revision A.03,

 -----------------------------------------------------------
 # opt freq B3LYP/6-31G(d) empiricaldispersion=gd3bj scf=xqc
 -----------------------------------------------------------

 ------------------------------
 CID_61549459_JID_9940_neutraal
 ------------------------------
 Symbolic Z-matrix:
 Charge =  0 Multiplicity = 1

 SCF Done:  E(RB3LYP) =  -1292.64069920     A.U. after   17 cycles
 SCF Done:  E(RB3LYP) =  -1292.64528920     A.U. after   15 cycles
 SCF Done:  E(RB3LYP) =  -1292.63407301     A.U. after   15 cycles
 SCF Done:  E(RB3LYP) =  -1292.64482775     A.U. after   15 cycles
 SCF Done:  E(RB3LYP) =  -1292.64837814     A.U. after   11 cycles
 SCF Done:  E(RB3LYP) =  -1292.64965194     A.U. after   14 cycles
 SCF Done:  E(RB3LYP) =  -1292.65014806     A.U. after   15 cycles
 SCF Done:  E(RB3LYP) =  -1292.65287076     A.U. after   15 cycles
 SCF Done:  E(RB3LYP) =  -1292.65391401     A.U. after   13 cycles
 SCF Done:  E(RB3LYP) =  -1292.65436990     A.U. after   14 cycles
 SCF Done:  E(RB3LYP) =  -1292.65469318     A.U. after    8 cycles
 SCF Done:  E(RB3LYP) =  -1292.65469361     A.U. after    8 cycles
 SCF Done:  E(RB3LYP) =  -1292.65469417     A.U. after    9 cycles
 SCF Done:  E(RB3LYP) =  -1292.65469453     A.U. after    9 cycles
 SCF Done:  E(RB3LYP) =  -1292.65469487     A.U. after    9 cycles
 SCF Done:  E(RB3LYP) =  -1292.65469494     A.U. after    7 cycles
 Optimization completed.
    -- Stationary point found.
 Normal termination of Gaussian 16 at Sat Dec 12 10:25:32 2020.

 --------------------------------------------------------------------
 #N Geom=AllCheck Guess=TCheck SCRF=Check GenChk RB3LYP/6-31G(d) Freq
 --------------------------------------------------------------------

 Structure from the checkpoint file:  "JID_9940.chk"
 ------------------------------
 CID_61549459_JID_9940_neutraal
 ------------------------------
 Charge =  0 Multiplicity = 1

 SCF Done:  E(RB3LYP) =  -1292.65469494     A.U. after    1 cycles

  Exact polarizability: 187.188  24.116 152.437  -8.589  21.351 148.996
 Approx polarizability: 264.288  56.351 249.179 -25.414  55.899 266.937

                      1                      2                      3
                      A                      A                      A
 Frequencies --     10.2272                26.0417                40.7882
 Red. masses --      5.8400                 2.8117                 5.2197
 Frc consts  --      0.0004                 0.0011                 0.0051
 IR Inten    --      1.2672                 0.1008                 1.6127

                      4                      5                      6
                      A                      A                      A
 Frequencies --     41.2675                60.2171                83.8728
 Red. masses --      4.9525                 8.1027                 3.6182
 Frc consts  --      0.0050                 0.0173                 0.0150
 IR Inten    --      2.1086                 0.7149                 1.5837

                      7                      8                      9
                      A                      A                      A
 Frequencies --    112.0535               142.0557               159.8642
 Red. masses --      7.6172                 5.2235                 3.1867
 Frc consts  --      0.0564                 0.0621                 0.0480
 IR Inten    --      6.1871                 2.1387                 0.7794

                     10                     11                     12
                      A                      A                      A
 Frequencies --    168.4040               195.4520               209.1785
 Red. masses --      5.5034                 5.3098                 5.9087
 Frc consts  --      0.0920                 0.1195                 0.1523
 IR Inten    --      1.9792                 2.9697                 1.0256

                     13                     14                     15
                      A                      A                      A
 Frequencies --    257.9526               276.6830               280.9288
 Red. masses --      1.7935                 1.4023                 2.0382
 Frc consts  --      0.0703                 0.0633                 0.0948
 IR Inten    --      2.0074                 0.3068                 0.2239

                     16                     17                     18
                      A                      A                      A
 Frequencies --    303.7030               324.4053               337.0947
 Red. masses --      3.2382                 5.4964                 2.3805
 Frc consts  --      0.1760                 0.3408                 0.1594
 IR Inten    --      0.2634                 3.6734                 1.6290

                     19                     20                     21
                      A                      A                      A
 Frequencies --    363.7022               378.6785               401.3891
 Red. masses --      2.4205                 2.6752                 3.2886
 Frc consts  --      0.1886                 0.2260                 0.3122
 IR Inten    --      0.4277                 0.1978                 6.5541

                     22                     23                     24
                      A                      A                      A
 Frequencies --    412.5388               442.5946               455.7274
 Red. masses --      5.2577                 3.3288                 2.2498
 Frc consts  --      0.5272                 0.3842                 0.2753
 IR Inten    --      0.1214                 0.8571                10.1869

                     25                     26                     27
                      A                      A                      A
 Frequencies --    473.3313               512.7269               540.1677
 Red. masses --      7.5451                 2.6332                 3.7027
 Frc consts  --      0.9960                 0.4079                 0.6365
 IR Inten    --     26.9776                22.6307                49.6469

                     28                     29                     30
                      A                      A                      A
 Frequencies --    557.9045               568.1775               594.0567
 Red. masses --      3.6325                 2.9789                 3.1819
 Frc consts  --      0.6662                 0.5666                 0.6616
 IR Inten    --     15.9458                34.2367                11.2864

                     31                     32                     33
                      A                      A                      A
 Frequencies --    638.4137               688.7873               692.4405
 Red. masses --      4.0968                 3.1120                 3.2076
 Frc consts  --      0.9838                 0.8699                 0.9061
 IR Inten    --     52.2506               145.8062                47.6341

                     34                     35                     36
                      A                      A                      A
 Frequencies --    703.5453               733.2814               749.4304
 Red. masses --      5.6650                 2.6570                 4.1545
 Frc consts  --      1.6521                 0.8418                 1.3748
 IR Inten    --     49.7560                66.5206                31.4091

                     37                     38                     39
                      A                      A                      A
 Frequencies --    792.8628               812.7590               830.9091
 Red. masses --      1.7596                 2.1978                 2.8084
 Frc consts  --      0.6517                 0.8554                 1.1424
 IR Inten    --     61.6854                 7.4003                23.4807

                     40                     41                     42
                      A                      A                      A
 Frequencies --    845.9777               857.5782               911.0635
 Red. masses --      3.5121                 2.2810                 1.5871
 Frc consts  --      1.4809                 0.9884                 0.7762
 IR Inten    --    108.2906                26.2588                27.0283

                     43                     44                     45
                      A                      A                      A
 Frequencies --    915.4921               933.2516               951.0921
 Red. masses --      2.1295                 1.2675                 1.4901
 Frc consts  --      1.0516                 0.6504                 0.7942
 IR Inten    --     18.7765                 1.4073                 0.3770

                     46                     47                     48
                      A                      A                      A
 Frequencies --    960.6801               963.3428               981.3715
 Red. masses --      1.4760                 3.2865                 1.9183
 Frc consts  --      0.8026                 1.7970                 1.0885
 IR Inten    --      2.0039                25.0185                16.5166

                     49                     50                     51
                      A                      A                      A
 Frequencies --   1000.5385              1023.3446              1049.7607
 Red. masses --      1.3046                 6.3119                 1.9167
 Frc consts  --      0.7695                 3.8945                 1.2445
 IR Inten    --      2.2063                 0.1376                17.9801

                     52                     53                     54
                      A                      A                      A
 Frequencies --   1093.9793              1118.9290              1122.0458
 Red. masses --      1.9137                 1.6642                 1.8569
 Frc consts  --      1.3494                 1.2276                 1.3774
 IR Inten    --      6.1587                25.8281                10.5176

                     55                     56                     57
                      A                      A                      A
 Frequencies --   1127.0678              1150.0347              1194.7459
 Red. masses --      5.2289                 2.0947                 1.6567
 Frc consts  --      3.9135                 1.6323                 1.3933
 IR Inten    --    176.2342                20.2952                15.0569

                     58                     59                     60
                      A                      A                      A
 Frequencies --   1195.3705              1203.9842              1254.1758
 Red. masses --      1.4419                 1.1411                 2.3174
 Frc consts  --      1.2139                 0.9746                 2.1477
 IR Inten    --      7.5468                 4.2193                56.7310

                     61                     62                     63
                      A                      A                      A
 Frequencies --   1263.1000              1273.1574              1300.9962
 Red. masses --      2.2610                 1.3488                 3.2279
 Frc consts  --      2.1253                 1.2881                 3.2190
 IR Inten    --     47.6395                40.8432                69.5771

                     64                     65                     66
                      A                      A                      A
 Frequencies --   1340.7816              1348.3446              1365.6383
 Red. masses --      1.8206                 1.2613                 5.0441
 Frc consts  --      1.9284                 1.3510                 5.5424
 IR Inten    --     59.3417                 2.3886                39.2473

                     67                     68                     69
                      A                      A                      A
 Frequencies --   1382.6585              1400.7649              1407.0711
 Red. masses --      1.3521                12.0047                 1.1913
 Frc consts  --      1.5230                13.8781                 1.3896
 IR Inten    --     18.4827               295.5788                11.4874

                     70                     71                     72
                      A                      A                      A
 Frequencies --   1419.3934              1422.2222              1425.4723
 Red. masses --      1.2784                 1.9813                 1.3027
 Frc consts  --      1.5175                 2.3612                 1.5595
 IR Inten    --      4.8048                91.3460                11.9470

                     73                     74                     75
                      A                      A                      A
 Frequencies --   1444.3928              1471.9790              1505.9701
 Red. masses --      1.2474                 1.0919                 1.0792
 Frc consts  --      1.5333                 1.3939                 1.4420
 IR Inten    --      8.1249                 7.4938                 5.9002

                     76                     77                     78
                      A                      A                      A
 Frequencies --   1508.4484              1514.6028              1526.0845
 Red. masses --      2.5083                 1.0472                 1.0766
 Frc consts  --      3.3627                 1.4154                 1.4773
 IR Inten    --     37.5806                 2.1372                 1.6837

                     79                     80                     81
                      A                      A                      A
 Frequencies --   1532.5971              1533.2094              1543.7003
 Red. masses --      1.9273                 1.1666                 1.0622
 Frc consts  --      2.6672                 1.6158                 1.4913
 IR Inten    --     36.4415                12.1089                 2.6220

                     82                     83                     84
                      A                      A                      A
 Frequencies --   1566.9056              1631.0175              1645.1233
 Red. masses --      1.2308                 8.5744                 6.4864
 Frc consts  --      1.7805                13.4391                10.3431
 IR Inten    --      8.8457               179.4487                65.9693

                     85                     86                     87
                      A                      A                      A
 Frequencies --   1682.8138              3025.1175              3046.0816
 Red. masses --      8.0281                 1.0848                 1.0371
 Frc consts  --     13.3947                 5.8490                 5.6694
 IR Inten    --     13.0383                26.5957                14.9028

                     88                     89                     90
                      A                      A                      A
 Frequencies --   3051.0859              3064.3898              3089.5207
 Red. masses --      1.0387                 1.0630                 1.0647
 Frc consts  --      5.6972                 5.8813                 5.9876
 IR Inten    --     21.6215                26.5652                 2.4513

                     91                     92                     93
                      A                      A                      A
 Frequencies --   3105.9346              3109.3335              3116.1477
 Red. masses --      1.0993                 1.1005                 1.0991
 Frc consts  --      6.2482                 6.2689                 6.2881
 IR Inten    --     11.3647                39.8468                68.8270

                     94                     95                     96
                      A                      A                      A
 Frequencies --   3132.8399              3135.1164              3172.5500
 Red. masses --      1.1033                 1.1014                 1.1007
 Frc consts  --      6.3799                 6.3784                 6.5273
 IR Inten    --     19.2323                18.1633                 2.5565

                     97                     98                     99
                      A                      A                      A
 Frequencies --   3215.1718              3239.0610              3254.4523
 Red. masses --      1.0903                 1.0913                 1.0927
 Frc consts  --      6.6405                 6.7456                 6.8190
 IR Inten    --      6.7152                 4.0772                 1.2022

                    100                    101                    102
                      A                      A                      A
 Frequencies --   3260.5053              3537.9048              3553.8002
 Red. masses --      1.0931                 1.0739                 1.0759
 Frc consts  --      6.8469                 7.9195                 8.0057
 IR Inten    --      2.3214                 7.1808                34.9909

 - Thermochemistry -
 -------------------
 Temperature   298.150 Kelvin.  Pressure   1.00000 Atm.
 Atom     1 has atomic number  6 and mass  12.00000

 Molecular mass:   287.09398 amu.
 Principal axes and moments of inertia in atomic units:
                           1         2         3
     Eigenvalues --  3750.199958646.83438**********
           X            0.99939  -0.03248   0.01304
           Y            0.03232   0.99940   0.01243
           Z           -0.01344  -0.01200   0.99984
 This molecule is an asymmetric top.
 Rotational symmetry number  1.
 Warning -- assumption of classical behavior for rotation
           may cause significant error
 Rotational temperatures (Kelvin)      0.02310     0.01002     0.00857
 Rotational constants (GHZ):           0.48124     0.20872     0.17848
 Zero-point vibrational energy     764371.3 (Joules/Mol)
                                  182.68912 (Kcal/Mol)
 Warning -- explicit consideration of  30 degrees of freedom as
           vibrations may cause significant error
 Vibrational temperatures:     14.71    37.47    58.69    59.37    86.64
          (Kelvin)            120.67   161.22   204.39   230.01   242.30
                              281.21   300.96   371.14   398.09   404.19
                              436.96   466.75   485.00   523.29   544.83
                              577.51   593.55   636.79   655.69   681.02
                              737.70   777.18   802.70   817.48   854.72
                              918.53   991.01   996.27  1012.24  1055.03
                             1078.26  1140.75  1169.38  1195.49  1217.17
                             1233.86  1310.82  1317.19  1342.74  1368.41
                             1382.20  1386.04  1411.97  1439.55  1472.36
                             1510.37  1573.99  1609.89  1614.37  1621.60
                             1654.64  1718.97  1719.87  1732.26  1804.48
                             1817.32  1831.79  1871.84  1929.09  1939.97
                             1964.85  1989.34  2015.39  2024.46  2042.19
                             2046.26  2050.94  2078.16  2117.85  2166.76
                             2170.32  2179.18  2195.70  2205.07  2205.95
                             2221.04  2254.43  2346.67  2366.97  2421.19
                             4352.47  4382.63  4389.83  4408.97  4445.13
                             4468.75  4473.64  4483.44  4507.46  4510.73
                             4564.59  4625.92  4660.29  4682.43  4691.14
                             5090.26  5113.13

 Zero-point correction=                           0.291134 (Hartree/Particle)
 Thermal correction to Energy=                    0.310121
 Thermal correction to Enthalpy=                  0.311065
 Thermal correction to Gibbs Free Energy=         0.241037
 Sum of electronic and zero-point Energies=          -1292.363561
 Sum of electronic and thermal Energies=             -1292.344574
 Sum of electronic and thermal Enthalpies=           -1292.343630
 Sum of electronic and thermal Free Energies=        -1292.413658

                     E (Thermal)             CV                S
                      KCal/Mol        Cal/Mol-Kelvin    Cal/Mol-Kelvin
 Total                  194.604             71.419            147.387
 Electronic               0.000              0.000              0.000
 Translational            0.889              2.981             42.862
 Rotational               0.889              2.981             34.149
 Vibrational            192.826             65.457             70.376
 Vibration     1          0.593              1.987              7.966
 Vibration     2          0.593              1.985              6.110
 Vibration     3          0.594              1.981              5.220
 Vibration     4          0.594              1.981              5.197
 Vibration     5          0.597              1.973              4.450
 Vibration     6          0.601              1.960              3.798
 Vibration     7          0.607              1.939              3.233
 Vibration     8          0.616              1.911              2.776
 Vibration     9          0.622              1.892              2.551
 Vibration    10          0.625              1.881              2.453
 Vibration    11          0.636              1.846              2.175
 Vibration    12          0.642              1.827              2.051
 Vibration    13          0.667              1.749              1.676
 Vibration    14          0.678              1.717              1.554
 Vibration    15          0.681              1.709              1.528
 Vibration    16          0.695              1.667              1.396
 Vibration    17          0.709              1.627              1.288
 Vibration    18          0.718              1.601              1.226
 Vibration    19          0.737              1.547              1.106
 Vibration    20          0.749              1.516              1.044
 Vibration    21          0.767              1.467              0.958
 Vibration    22          0.776              1.443              0.918
 Vibration    23          0.802              1.377              0.818
 Vibration    24          0.814              1.348              0.779
 Vibration    25          0.830              1.309              0.728
 Vibration    26          0.868              1.222              0.627
 Vibration    27          0.895              1.161              0.565
 Vibration    28          0.913              1.122              0.528
 Vibration    29          0.924              1.100              0.508
 Vibration    30          0.952              1.044              0.460

                           ! Non-Optimized Parameters !
 Normal termination of Gaussian 16 at Sat Dec 12 10:41:57 2020.

 ----------------------------------------------------------------------
 # B3LYP/6-311++G(d,p) empiricaldispersion=gd3bj scf=xqc pop=npa geom=c
 heck
 ----------------------------------------------------------------------

 --------------------------------------
 CID_61549459_JID_9940_Energie_neutraal
 --------------------------------------
 Structure from the checkpoint file:  "JID_9940.chk"
 Charge =  0 Multiplicity = 1

 SCF Done:  E(RB3LYP) =  -1292.94270520     A.U. after   17 cycles
 Normal termination of Gaussian 16 at Sat Dec 12 10:50:36 2020.

 ----------------------------------------------------------------------
 # B3LYP/6-311++G(d,p) empiricaldispersion=gd3bj scf=xqc pop=npa geom=c
 heck
 ----------------------------------------------------------------------

 ------------------------------------
 CID_61549459_JID_9940_Energie_kation
 ------------------------------------
 Structure from the checkpoint file:  "JID_9940.chk"
 Charge =  1 Multiplicity = 2

 SCF Done:  E(UB3LYP) =  -1292.63470804     A.U. after   28 cycles
 Normal termination of Gaussian 16 at Sat Dec 12 11:10:36 2020.
 Gaussian 16:  ES64L-G16RevA.03 25-Dec-2016

 ----------------------------------------------------------------------
 # B3LYP/6-311++G(d,p) empiricaldispersion=gd3bj scf=xqc pop=npa geom=c
 heck
 ----------------------------------------------------------------------

 -----------------------------------
 CID_61549459_JID_9940_Energie_anion
 -----------------------------------
 Structure from the checkpoint file:  "JID_9940.chk"
 Charge = -1 Multiplicity = 2

                         Standard orientation:
 ---------------------------------------------------------------------
 Center     Atomic      Atomic             Coordinates (Angstroms)
 Number     Number       Type             X           Y           Z
 ---------------------------------------------------------------------
      1          6           0       -1.580613    2.197288    0.947866
      2          6           0       -2.931700    2.242455    0.204955
      3          6           0       -2.859939    3.156645   -1.019320
      4          7           0       -3.523775    0.939212   -0.135097
      5          6           0       -3.031637    0.176801   -1.260095
      6          6           0       -1.610057   -0.440729   -1.182138
      7         16           0       -1.526796   -1.775634    0.037787
      8          8           0       -1.975777   -1.247061    1.329849
      9          8           0       -2.113543   -2.985161   -0.536392
     10          7           0        0.136451   -2.128515    0.191275
     11          6           0        1.059213   -1.109705    0.538475
     12          6           0        2.119613   -0.807235   -0.318613
     13          6           0        3.023278    0.180627    0.059553
     14          6           0        2.895524    0.898992    1.243951
     15          6           0        1.825097    0.591595    2.082491
     16          6           0        0.919416   -0.413353    1.749208
     17          7           0        4.142014    0.487165   -0.846331
     18          8           0        4.224149   -0.160372   -1.889901
     19          8           0        4.924148    1.372683   -0.506566
     20          1           0       -0.744822    1.950121    0.283753
     21          1           0       -1.602091    1.454782    1.751135
     22          1           0       -1.359470    3.176268    1.390119
     23          1           0       -3.653237    2.692031    0.900907
     24          1           0       -2.087171    2.832168   -1.727027
     25          1           0       -3.820773    3.180800   -1.543403
     26          1           0       -2.606918    4.176330   -0.711573
     27          1           0       -3.559913    0.350551    0.692214
     28          1           0       -3.737464   -0.640059   -1.451130
     29          1           0       -3.043156    0.805864   -2.155664
     30          1           0       -1.330454   -0.901688   -2.134948
     31          1           0       -0.855077    0.294404   -0.901556
     32          1           0        0.427543   -2.735190   -0.570718
     33          1           0        2.254664   -1.319087   -1.263923
     34          1           0        3.619875    1.664664    1.488682
     35          1           0        1.703934    1.129554    3.017020
     36          1           0        0.099444   -0.667411    2.408671
 ---------------------------------------------------------------------

 SCF Done:  E(UB3LYP) =  -1292.99339260     A.U. after   22 cycles

 The electronic state is 2-A.
 Alpha  occ. eigenvalues --  -88.97682 -19.03537 -19.03407 -18.95054 -18.95034
 Alpha  occ. eigenvalues --  -14.32799 -14.25585 -14.21755 -10.13411 -10.12728
 Alpha  occ. eigenvalues --  -10.12581 -10.10385 -10.09030 -10.07187 -10.07069
 Alpha  occ. eigenvalues --  -10.05642 -10.05131 -10.04474 -10.04452  -8.03895
 Alpha  occ. eigenvalues --   -6.00167  -6.00146  -5.99968  -1.03622  -1.03167
 Alpha  occ. eigenvalues --   -0.92861  -0.86074  -0.84309  -0.83400  -0.73707
 Alpha  occ. eigenvalues --   -0.71582  -0.67914  -0.64874  -0.63187  -0.61282
 Alpha  occ. eigenvalues --   -0.58503  -0.54786  -0.52981  -0.50046  -0.49454
 Alpha  occ. eigenvalues --   -0.46482  -0.44592  -0.42523  -0.40836  -0.40052
 Alpha  occ. eigenvalues --   -0.39518  -0.37815  -0.37151  -0.36646  -0.35530
 Alpha  occ. eigenvalues --   -0.35527  -0.35091  -0.34352  -0.33215  -0.32623
 Alpha  occ. eigenvalues --   -0.31596  -0.31348  -0.31137  -0.30882  -0.28799
 Alpha  occ. eigenvalues --   -0.27660  -0.26715  -0.26407  -0.25664  -0.24875
 Alpha  occ. eigenvalues --   -0.24416  -0.23785  -0.22708  -0.22077  -0.20902
 Alpha  occ. eigenvalues --   -0.14881  -0.14594  -0.13987  -0.12923  -0.12415
 Alpha  occ. eigenvalues --   -0.10880   0.01649
 Alpha virt. eigenvalues --    0.05711   0.07127   0.07966   0.08507   0.09272
 Alpha virt. eigenvalues --    0.09359   0.10107   0.10416   0.10679   0.11745
 Alpha virt. eigenvalues --    0.12009   0.12285   0.12690   0.13069   0.13527

  Beta  occ. eigenvalues --  -88.97682 -19.03538 -19.03399 -18.94581 -18.94533
  Beta  occ. eigenvalues --  -14.32198 -14.25586 -14.21755 -10.13412 -10.12727
  Beta  occ. eigenvalues --  -10.12581 -10.10462 -10.09030 -10.07186 -10.06939
  Beta  occ. eigenvalues --  -10.05694 -10.04981 -10.04336 -10.04164  -8.03895
  Beta  occ. eigenvalues --   -6.00166  -6.00147  -5.99968  -1.03619  -1.02128
  Beta  occ. eigenvalues --   -0.92855  -0.85157  -0.84307  -0.83399  -0.73419
  Beta  occ. eigenvalues --   -0.71568  -0.67906  -0.64283  -0.62999  -0.61273
  Beta  occ. eigenvalues --   -0.58464  -0.53981  -0.52766  -0.49960  -0.49409
  Beta  occ. eigenvalues --   -0.46350  -0.44469  -0.42497  -0.40543  -0.39846
  Beta  occ. eigenvalues --   -0.39423  -0.37719  -0.37124  -0.36575  -0.35490
  Beta  occ. eigenvalues --   -0.34655  -0.34106  -0.33135  -0.32690  -0.32444
  Beta  occ. eigenvalues --   -0.31451  -0.31331  -0.30915  -0.30634  -0.28798
  Beta  occ. eigenvalues --   -0.27471  -0.26666  -0.26137  -0.25649  -0.24732
  Beta  occ. eigenvalues --   -0.24345  -0.23699  -0.22667  -0.21995  -0.20530
  Beta  occ. eigenvalues --   -0.14801  -0.13133  -0.12411  -0.11751  -0.10700
  Beta  occ. eigenvalues --   -0.10391
  Beta virt. eigenvalues --    0.05698   0.07108   0.07947   0.08289   0.08657
  Beta virt. eigenvalues --    0.09338   0.09548   0.10143   0.10412   0.10677
  Beta virt. eigenvalues --    0.11788   0.12066   0.12648   0.13030   0.13471

 Mulliken charges and spin densities:
               1          2
     1  C   -0.378273  -0.000519
     2  C   -0.262390  -0.001341
     3  C   -0.565429  -0.000626
     4  N    0.054691   0.000067
     5  C   -0.658925   0.002683
     6  C   -0.308949  -0.000058
     7  S    0.144709  -0.009610
     8  O   -0.182947   0.000393
     9  O   -0.092076  -0.001243
    10  N   -0.183088   0.010033
    11  C   -0.165355  -0.049484
    12  C    0.047780   0.160700
    13  C   -0.314437  -0.019718
    14  C   -0.147800   0.159382
    15  C   -0.263410  -0.023607
    16  C   -0.240360   0.218000
    17  N   -0.261644   0.197943
    18  O   -0.189458   0.184382
    19  O   -0.181168   0.192293
    20  H    0.165416   0.001770
    21  H    0.136573  -0.001597
    22  H    0.138471   0.000711
    23  H    0.173920   0.000105
    24  H    0.144130   0.001740
    25  H    0.148318   0.000164
    26  H    0.141185  -0.000202
    27  H    0.241920   0.000010
    28  H    0.183593   0.000171
    29  H    0.164521  -0.000054
    30  H    0.247841   0.006850
    31  H    0.195767   0.005364
    32  H    0.303338   0.000144
    33  H    0.208216  -0.010957
    34  H    0.215555  -0.008110
    35  H    0.141651   0.001688
    36  H    0.198114  -0.017468
 Sum of Mulliken charges =  -1.00000   1.00000

 Dipole moment (field-independent basis, Debye):
    X=            -12.2343    Y=              1.3037    Z=              0.8699  Tot=             12.3343
 Quadrupole moment (field-independent basis, Debye-Ang):
   XX=           -219.2658   YY=           -141.7102   ZZ=           -135.0696
   XY=            -19.6240   XZ=             19.4532   YZ=              5.6174

 Summary of Natural Population Analysis:

                                       Natural Population
                Natural  -----------------------------------------------
    Atom  No    Charge         Core      Valence    Rydberg      Total
 -----------------------------------------------------------------------
      C    1   -0.29652      0.99965     2.29149    0.00539     3.29652
      C    2   -0.00969      0.99963     2.00036    0.00971     3.00969
      C    3   -0.29291      0.99965     2.28843    0.00483     3.29291
      N    4   -0.35038      0.99974     2.83613    0.01451     3.85038
      C    5   -0.09837      0.99963     2.08641    0.01234     3.09837
      C    6   -0.30367      0.99957     2.29425    0.00984     3.30367
      S    7    1.09369      4.99931     1.80751    0.09950     6.90631
      O    8   -0.46718      0.99990     3.45956    0.00772     4.46718
      O    9   -0.46751      0.99991     3.46199    0.00561     4.46751
      N   10   -0.42047      0.99968     2.90655    0.01424     3.92047
      C   11    0.03207      0.99948     1.95637    0.01208     2.96793
      C   12   -0.08416      0.99948     2.07512    0.00956     3.08416
      C   13    0.06493      0.99940     1.92062    0.01505     2.93507
      C   14   -0.07456      0.99953     2.06513    0.00991     3.07456
      C   15   -0.11645      0.99958     2.10791    0.00896     3.11645
      C   16   -0.06045      0.99952     2.05226    0.00867     3.06045
      N   17    0.30323      0.99972     2.17057    0.02647     3.19677
      O   18   -0.19681      0.99990     3.18912    0.00778     4.19681
      O   19   -0.18797      0.99990     3.18039    0.00769     4.18797
      H   20    0.09908      0.00000     0.39992    0.00100     0.40092
      H   21    0.10915      0.00000     0.38989    0.00095     0.39085
      H   22    0.09640      0.00000     0.40270    0.00089     0.40360
      H   23    0.08782      0.00000     0.41081    0.00137     0.41218
      H   24    0.09622      0.00000     0.40284    0.00094     0.40378
      H   25    0.10004      0.00000     0.39893    0.00103     0.39996
      H   26    0.10122      0.00000     0.39806    0.00072     0.39878
      H   27    0.18763      0.00000     0.31077    0.00160     0.31237
      H   28    0.09979      0.00000     0.39880    0.00141     0.40021
      H   29    0.09730      0.00000     0.40157    0.00113     0.40270
      H   30    0.11382      0.00000     0.38510    0.00108     0.38618
      H   31    0.12162      0.00000     0.37714    0.00125     0.37838
      H   32    0.19771      0.00000     0.30028    0.00202     0.30229
      H   33    0.11308      0.00000     0.38559    0.00133     0.38692
      H   34    0.11373      0.00000     0.38519    0.00109     0.38627
      H   35    0.09383      0.00000     0.40516    0.00102     0.40617
      H   36    0.10477      0.00000     0.39393    0.00130     0.39523
 =======================================================================
   * Total *    0.00000     22.99316    52.69686    0.30997    76.00000

 Normal termination of Gaussian 16 at Sat Dec 12 11:26:25 2020.
