 Gaussian 16, Revision A.03,

 -----------------------------------------------------------
 # opt freq B3LYP/6-31G(d) empiricaldispersion=gd3bj scf=xqc
 -----------------------------------------------------------

 -------------------------------
 CID_137265644_JID_8349_neutraal
 -------------------------------
 Symbolic Z-matrix:
 Charge =  0 Multiplicity = 1

 SCF Done:  E(RB3LYP) =  -833.928552567     A.U. after   17 cycles
 SCF Done:  E(RB3LYP) =  -833.931464715     A.U. after   15 cycles
 SCF Done:  E(RB3LYP) =  -833.935468571     A.U. after   15 cycles
 SCF Done:  E(RB3LYP) =  -833.938593047     A.U. after   15 cycles
 SCF Done:  E(RB3LYP) =  -833.940206958     A.U. after   14 cycles
 SCF Done:  E(RB3LYP) =  -833.940425759     A.U. after   13 cycles
 SCF Done:  E(RB3LYP) =  -833.940482679     A.U. after   11 cycles
 SCF Done:  E(RB3LYP) =  -833.940494650     A.U. after   11 cycles
 SCF Done:  E(RB3LYP) =  -833.940499446     A.U. after   10 cycles
 SCF Done:  E(RB3LYP) =  -833.940501955     A.U. after    9 cycles
 SCF Done:  E(RB3LYP) =  -833.940503149     A.U. after    9 cycles
 SCF Done:  E(RB3LYP) =  -833.940503505     A.U. after    8 cycles
 SCF Done:  E(RB3LYP) =  -833.940503637     A.U. after    8 cycles
 SCF Done:  E(RB3LYP) =  -833.940503696     A.U. after    7 cycles
 Optimization completed.
    -- Stationary point found.
 Normal termination of Gaussian 16 at Fri Dec 11 20:10:05 2020.

 --------------------------------------------------------------------
 #N Geom=AllCheck Guess=TCheck SCRF=Check GenChk RB3LYP/6-31G(d) Freq
 --------------------------------------------------------------------

 Structure from the checkpoint file:  "JID_8349.chk"
 -------------------------------
 CID_137265644_JID_8349_neutraal
 -------------------------------
 Charge =  0 Multiplicity = 1

 SCF Done:  E(RB3LYP) =  -833.940503696     A.U. after    1 cycles

  Exact polarizability: 236.428 -10.653 142.614  23.474   9.136 105.949
 Approx polarizability: 382.724 -14.902 223.977  62.853  21.568 184.224

                      1                      2                      3
                      A                      A                      A
 Frequencies --     33.0184                38.6718                52.3598
 Red. masses --      6.0773                 4.9835                 6.4185
 Frc consts  --      0.0039                 0.0044                 0.0104
 IR Inten    --      2.3682                 1.2922                 0.4465

                      4                      5                      6
                      A                      A                      A
 Frequencies --     63.6432                93.3624               114.0914
 Red. masses --      4.9828                 2.5775                 5.6550
 Frc consts  --      0.0119                 0.0132                 0.0434
 IR Inten    --      0.5648                 0.8655                 2.3093

                      7                      8                      9
                      A                      A                      A
 Frequencies --    122.3309               168.0597               202.1158
 Red. masses --      2.2473                 4.8142                 4.1480
 Frc consts  --      0.0198                 0.0801                 0.0998
 IR Inten    --      3.1099                 3.5831                 0.8078

                     10                     11                     12
                      A                      A                      A
 Frequencies --    254.8617               268.0872               289.9319
 Red. masses --      6.0618                 1.3427                 4.5950
 Frc consts  --      0.2320                 0.0569                 0.2276
 IR Inten    --      2.5253                 1.1686                 0.4451

                     13                     14                     15
                      A                      A                      A
 Frequencies --    298.1231               343.1781               353.5549
 Red. masses --      4.8256                 4.9631                 3.2694
 Frc consts  --      0.2527                 0.3444                 0.2408
 IR Inten    --      0.9380                 2.1536                 0.3194

                     16                     17                     18
                      A                      A                      A
 Frequencies --    370.1234               409.1327               460.7342
 Red. masses --      3.7259                 3.9690                 5.5866
 Frc consts  --      0.3007                 0.3914                 0.6987
 IR Inten    --      0.2587                 2.3312                18.7940

                     19                     20                     21
                      A                      A                      A
 Frequencies --    495.1432               506.0805               543.3212
 Red. masses --      4.1704                 6.8626                 5.2284
 Frc consts  --      0.6024                 1.0356                 0.9094
 IR Inten    --      1.7057                15.3967                 3.9230

                     22                     23                     24
                      A                      A                      A
 Frequencies --    563.9889               585.8547               615.2022
 Red. masses --      4.4347                 7.4946                 6.6074
 Frc consts  --      0.8311                 1.5156                 1.4734
 IR Inten    --      0.6202                 2.0821                 1.9502

                     25                     26                     27
                      A                      A                      A
 Frequencies --    637.2927               667.0782               686.3884
 Red. masses --      5.1412                 2.3506                 4.4444
 Frc consts  --      1.2302                 0.6163                 1.2337
 IR Inten    --      1.5350                 8.0147                14.5347

                     28                     29                     30
                      A                      A                      A
 Frequencies --    702.9263               744.5656               763.6746
 Red. masses --      1.6265                 4.0844                 1.3004
 Frc consts  --      0.4735                 1.3341                 0.4468
 IR Inten    --     73.5998                 1.2198                54.1745

                     31                     32                     33
                      A                      A                      A
 Frequencies --    775.0156               791.0394               798.7397
 Red. masses --      2.4226                 4.1053                 4.3108
 Frc consts  --      0.8574                 1.5135                 1.6204
 IR Inten    --     12.0782                22.9179                 8.7887

                     34                     35                     36
                      A                      A                      A
 Frequencies --    830.7305               841.1030               858.7799
 Red. masses --      4.4703                 1.1489                 2.8843
 Frc consts  --      1.8176                 0.4789                 1.2533
 IR Inten    --      4.7005                 0.0304                 7.6760

                     37                     38                     39
                      A                      A                      A
 Frequencies --    868.8089               922.7300               928.5702
 Red. masses --      1.7366                 2.3314                 1.4514
 Frc consts  --      0.7723                 1.1695                 0.7374
 IR Inten    --      1.5246                 5.8569                 4.4574

                     40                     41                     42
                      A                      A                      A
 Frequencies --    949.6176               955.6633               965.0877
 Red. masses --      2.5111                 3.8037                 1.2328
 Frc consts  --      1.3342                 2.0467                 0.6765
 IR Inten    --     14.6023                 4.7108                 0.0098

                     43                     44                     45
                      A                      A                      A
 Frequencies --   1005.4270              1074.9932              1078.5489
 Red. masses --      1.3803                 2.6433                 2.6139
 Frc consts  --      0.8221                 1.7997                 1.7915
 IR Inten    --     32.0600                14.1120                44.4216

                     46                     47                     48
                      A                      A                      A
 Frequencies --   1137.7229              1158.0816              1194.5543
 Red. masses --      1.9361                 2.0219                 1.1167
 Frc consts  --      1.4765                 1.5977                 0.9388
 IR Inten    --      9.0094                55.7581                 3.5910

                     49                     50                     51
                      A                      A                      A
 Frequencies --   1196.5354              1222.9504              1237.7708
 Red. masses --      1.4693                 3.4783                 4.0149
 Frc consts  --      1.2394                 3.0650                 3.6242
 IR Inten    --      3.8039                69.6261                67.7980

                     52                     53                     54
                      A                      A                      A
 Frequencies --   1264.5993              1290.4970              1314.2709
 Red. masses --      2.2364                 3.7039                 1.1987
 Frc consts  --      2.1072                 3.6343                 1.2200
 IR Inten    --     92.2068               170.4630                 6.7981

                     55                     56                     57
                      A                      A                      A
 Frequencies --   1317.1674              1350.3734              1358.4283
 Red. masses --      1.5304                 5.1357                 5.8626
 Frc consts  --      1.5644                 5.5177                 6.3741
 IR Inten    --     30.2842                24.1286                46.1858

                     58                     59                     60
                      A                      A                      A
 Frequencies --   1421.4136              1445.4541              1450.9011
 Red. masses --      1.2620                 1.9167                 1.4845
 Frc consts  --      1.5023                 2.3594                 1.8412
 IR Inten    --      7.8262                 8.7475                70.8616

                     61                     62                     63
                      A                      A                      A
 Frequencies --   1452.7377              1502.0725              1517.1500
 Red. masses --      1.3630                 2.4618                 1.0401
 Frc consts  --      1.6948                 3.2726                 1.4105
 IR Inten    --     27.1205                21.1758                 5.9308

                     64                     65                     66
                      A                      A                      A
 Frequencies --   1531.2364              1538.6961              1557.2486
 Red. masses --      1.1191                 2.0073                 1.2421
 Frc consts  --      1.5460                 2.8001                 1.7747
 IR Inten    --     21.1866                65.1749                10.6961

                     67                     68                     69
                      A                      A                      A
 Frequencies --   1589.0799              1636.2765              1653.0595
 Red. masses --     12.3263                 6.0061                 5.9792
 Frc consts  --     18.3390                 9.4745                 9.6265
 IR Inten    --    131.7134                 1.6078                28.4392

                     70                     71                     72
                      A                      A                      A
 Frequencies --   1698.2278              1735.7134              1836.9045
 Red. masses --      5.6969                 9.1251                11.1860
 Frc consts  --      9.6801                16.1973                22.2381
 IR Inten    --      7.7963               469.0034               544.8438

                     73                     74                     75
                      A                      A                      A
 Frequencies --   3020.1776              3058.5061              3064.6977
 Red. masses --      1.0554                 1.1090                 1.0352
 Frc consts  --      5.6720                 6.1122                 5.7287
 IR Inten    --     34.7529                33.2416                13.0461

                     76                     77                     78
                      A                      A                      A
 Frequencies --   3137.4850              3143.2105              3192.6196
 Red. masses --      1.1025                 1.1043                 1.0855
 Frc consts  --      6.3941                 6.4281                 6.5190
 IR Inten    --     21.5390                20.8689                 0.2996

                     79                     80                     81
                      A                      A                      A
 Frequencies --   3196.1749              3204.0195              3215.8486
 Red. masses --      1.0600                 1.0902                 1.0949
 Frc consts  --      6.3798                 6.5941                 6.6715
 IR Inten    --      0.0753                14.5229                25.0175

                     82                     83                     84
                      A                      A                      A
 Frequencies --   3226.5931              3299.6533              3569.4153
 Red. masses --      1.0933                 1.1180                 1.0768
 Frc consts  --      6.7064                 7.1718                 8.0828
 IR Inten    --     10.7599                 0.6682                43.8169

 - Thermochemistry -
 -------------------
 Temperature   298.150 Kelvin.  Pressure   1.00000 Atm.
 Atom     1 has atomic number  6 and mass  12.00000

 Molecular mass:   244.09603 amu.
 Principal axes and moments of inertia in atomic units:
                           1         2         3
     Eigenvalues --  2400.076185850.222667056.49384
           X            0.99998  -0.00434   0.00526
           Y            0.00442   0.99989  -0.01436
           Z           -0.00520   0.01438   0.99988
 This molecule is an asymmetric top.
 Rotational symmetry number  1.
 Warning -- assumption of classical behavior for rotation
           may cause significant error
 Rotational temperatures (Kelvin)      0.03609     0.01481     0.01227
 Rotational constants (GHZ):           0.75195     0.30849     0.25576
 Zero-point vibrational energy     610270.6 (Joules/Mol)
                                  145.85817 (Kcal/Mol)
 Warning -- explicit consideration of  24 degrees of freedom as
           vibrations may cause significant error
 Vibrational temperatures:     47.51    55.64    75.33    91.57   134.33
          (Kelvin)            164.15   176.01   241.80   290.80   366.69
                              385.72   417.15   428.93   493.76   508.69
                              532.52   588.65   662.89   712.40   728.14
                              781.72   811.45   842.91   885.14   916.92
                              959.78   987.56  1011.35  1071.26  1098.76
                             1115.07  1138.13  1149.21  1195.24  1210.16
                             1235.59  1250.02  1327.60  1336.01  1366.29
                             1374.99  1388.55  1446.59  1546.68  1551.79
                             1636.93  1666.22  1718.70  1721.55  1759.55
                             1780.88  1819.48  1856.74  1890.94  1895.11
                             1942.89  1954.48  2045.10  2079.69  2087.52
                             2090.17  2161.15  2182.84  2203.11  2213.84
                             2240.53  2286.33  2354.24  2378.38  2443.37
                             2497.30  2642.90  4345.36  4400.51  4409.42
                             4514.14  4522.38  4593.47  4598.58  4609.87
                             4626.89  4642.35  4747.47  5135.59

 Zero-point correction=                           0.232440 (Hartree/Particle)
 Thermal correction to Energy=                    0.248254
 Thermal correction to Enthalpy=                  0.249199
 Thermal correction to Gibbs Free Energy=         0.187919
 Sum of electronic and zero-point Energies=           -833.708064
 Sum of electronic and thermal Energies=              -833.692249
 Sum of electronic and thermal Enthalpies=            -833.691305
 Sum of electronic and thermal Free Energies=         -833.752584

                     E (Thermal)             CV                S
                      KCal/Mol        Cal/Mol-Kelvin    Cal/Mol-Kelvin
 Total                  155.782             60.102            128.973
 Electronic               0.000              0.000              0.000
 Translational            0.889              2.981             42.378
 Rotational               0.889              2.981             32.960
 Vibrational            154.005             54.141             53.635
 Vibration     1          0.594              1.983              5.639
 Vibration     2          0.594              1.981              5.326
 Vibration     3          0.596              1.977              4.726
 Vibration     4          0.597              1.972              4.341
 Vibration     5          0.602              1.954              3.588
 Vibration     6          0.607              1.938              3.198
 Vibration     7          0.610              1.930              3.063
 Vibration     8          0.625              1.882              2.457
 Vibration     9          0.639              1.837              2.114
 Vibration    10          0.665              1.755              1.697
 Vibration    11          0.673              1.732              1.609
 Vibration    12          0.686              1.692              1.474
 Vibration    13          0.691              1.677              1.427
 Vibration    14          0.722              1.589              1.197
 Vibration    15          0.730              1.568              1.150
 Vibration    16          0.742              1.534              1.079
 Vibration    17          0.773              1.450              0.930
 Vibration    18          0.819              1.337              0.764
 Vibration    19          0.851              1.261              0.670
 Vibration    20          0.861              1.237              0.643
 Vibration    21          0.898              1.154              0.558
 Vibration    22          0.920              1.109              0.516
 Vibration    23          0.943              1.062              0.475
 Vibration    24          0.975              1.000              0.424

 Optimization completed.
    -- Stationary point found.
 Normal termination of Gaussian 16 at Fri Dec 11 20:22:08 2020.

 ----------------------------------------------------------------------
 # B3LYP/6-311++G(d,p) empiricaldispersion=gd3bj scf=xqc pop=npa geom=c
 heck
 ----------------------------------------------------------------------

 ---------------------------------------
 CID_137265644_JID_8349_Energie_neutraal
 ---------------------------------------
 Structure from the checkpoint file:  "JID_8349.chk"
 Charge =  0 Multiplicity = 1

 SCF Done:  E(RB3LYP) =  -834.167537284     A.U. after   18 cycles
 Normal termination of Gaussian 16 at Fri Dec 11 20:28:17 2020.

 ----------------------------------------------------------------------
 # B3LYP/6-311++G(d,p) empiricaldispersion=gd3bj scf=xqc pop=npa geom=c
 heck
 ----------------------------------------------------------------------

 -------------------------------------
 CID_137265644_JID_8349_Energie_kation
 -------------------------------------
 Structure from the checkpoint file:  "JID_8349.chk"
 Charge =  1 Multiplicity = 2

 SCF Done:  E(UB3LYP) =  -833.881489288     A.U. after   28 cycles
 Normal termination of Gaussian 16 at Fri Dec 11 20:42:00 2020.
 Gaussian 16:  ES64L-G16RevA.03 25-Dec-2016

 ----------------------------------------------------------------------
 # B3LYP/6-311++G(d,p) empiricaldispersion=gd3bj scf=xqc pop=npa geom=c
 heck
 ----------------------------------------------------------------------

 ------------------------------------
 CID_137265644_JID_8349_Energie_anion
 ------------------------------------
 Structure from the checkpoint file:  "JID_8349.chk"
 Charge = -1 Multiplicity = 2

                         Standard orientation:
 ---------------------------------------------------------------------
 Center     Atomic      Atomic             Coordinates (Angstroms)
 Number     Number       Type             X           Y           Z
 ---------------------------------------------------------------------
      1          6           0       -0.290003    3.333514   -0.510498
      2          6           0        1.037494    2.614284   -0.357878
      3          8           0        0.806676    1.238076   -0.656570
      4          6           0        1.788389    0.331387   -0.387144
      5          6           0        3.108714    0.660295   -0.083743
      6          6           0        4.040478   -0.348044    0.187522
      7          6           0        3.659862   -1.685485    0.143182
      8          6           0        2.340561   -2.019142   -0.173437
      9          6           0        1.387764   -1.028391   -0.414979
     10          7           0        0.080693   -1.386114   -0.782698
     11          6           0       -0.953473   -0.958109   -0.168161
     12          6           0       -1.087868   -0.210749    1.103522
     13          6           0       -0.185546   -0.195838    2.098115
     14          7           0       -2.275027    0.534521    1.363333
     15          7           0       -3.328063    0.366192    0.702287
     16          6           0       -3.384079   -0.642007   -0.358006
     17          8           0       -4.443683   -0.887260   -0.887579
     18          7           0       -2.198281   -1.244944   -0.718397
     19          1           0       -0.676073    3.212818   -1.527310
     20          1           0       -0.165285    4.402888   -0.311061
     21          1           0       -1.028185    2.932081    0.190724
     22          1           0        1.793007    3.023055   -1.043037
     23          1           0        1.423801    2.706397    0.666727
     24          1           0        3.418970    1.698599   -0.062113
     25          1           0        5.064535   -0.075465    0.424503
     26          1           0        4.382202   -2.470708    0.343545
     27          1           0        2.022610   -3.055863   -0.224596
     28          1           0       -0.405347    0.383183    2.989089
     29          1           0        0.741191   -0.752859    2.047357
     30          1           0       -2.204390   -1.808534   -1.563277
 ---------------------------------------------------------------------

 SCF Done:  E(UB3LYP) =  -834.234139285     A.U. after   23 cycles

 The electronic state is 2-A.
 Alpha  occ. eigenvalues --  -19.04650 -18.95029 -14.22766 -14.19308 -14.17884
 Alpha  occ. eigenvalues --  -14.17253 -10.14417 -10.13386 -10.13219 -10.12747
 Alpha  occ. eigenvalues --  -10.09989 -10.07414 -10.07336 -10.07102 -10.06746
 Alpha  occ. eigenvalues --  -10.06576 -10.06395 -10.02177  -0.96511  -0.92355
 Alpha  occ. eigenvalues --   -0.86747  -0.83984  -0.78348  -0.73976  -0.67967
 Alpha  occ. eigenvalues --   -0.66766  -0.64151  -0.62460  -0.55531  -0.54780
 Alpha  occ. eigenvalues --   -0.53885  -0.50766  -0.48948  -0.47807  -0.43903
 Alpha  occ. eigenvalues --   -0.41444  -0.40149  -0.39041  -0.38741  -0.37851
 Alpha  occ. eigenvalues --   -0.35811  -0.33551  -0.32669  -0.31022  -0.30503
 Alpha  occ. eigenvalues --   -0.29960  -0.29828  -0.29403  -0.27781  -0.27141
 Alpha  occ. eigenvalues --   -0.26574  -0.26340  -0.24240  -0.23829  -0.23204
 Alpha  occ. eigenvalues --   -0.21661  -0.21212  -0.18482  -0.14745  -0.14335
 Alpha  occ. eigenvalues --   -0.13875  -0.13228  -0.10062  -0.07113  -0.00315
 Alpha virt. eigenvalues --    0.06734   0.07604   0.08142   0.08912   0.09693
 Alpha virt. eigenvalues --    0.10190   0.10244   0.10842   0.11069   0.11457
 Alpha virt. eigenvalues --    0.12577   0.13090   0.13634   0.14014   0.14432

  Beta  occ. eigenvalues --  -19.04651 -18.94704 -14.22828 -14.18820 -14.17523
  Beta  occ. eigenvalues --  -14.17174 -10.14325 -10.13306 -10.13217 -10.12737
  Beta  occ. eigenvalues --  -10.09984 -10.07415 -10.07330 -10.07098 -10.06745
  Beta  occ. eigenvalues --  -10.06572 -10.06529 -10.01545  -0.96508  -0.91873
  Beta  occ. eigenvalues --   -0.86103  -0.83649  -0.78257  -0.73934  -0.67951
  Beta  occ. eigenvalues --   -0.66242  -0.64052  -0.62401  -0.54764  -0.54660
  Beta  occ. eigenvalues --   -0.53528  -0.50191  -0.48929  -0.47564  -0.43859
  Beta  occ. eigenvalues --   -0.41145  -0.40070  -0.38853  -0.38676  -0.37792
  Beta  occ. eigenvalues --   -0.35774  -0.33535  -0.31825  -0.30876  -0.30365
  Beta  occ. eigenvalues --   -0.29945  -0.29594  -0.29112  -0.27739  -0.26866
  Beta  occ. eigenvalues --   -0.26488  -0.26057  -0.23601  -0.22909  -0.22462
  Beta  occ. eigenvalues --   -0.21404  -0.20604  -0.18177  -0.14413  -0.13768
  Beta  occ. eigenvalues --   -0.13301  -0.11320  -0.09823  -0.06575
  Beta virt. eigenvalues --    0.06678   0.06821   0.07614   0.08733   0.08931
  Beta virt. eigenvalues --    0.10090   0.10220   0.10276   0.10939   0.11424
  Beta virt. eigenvalues --    0.11910   0.12766   0.13139   0.13625   0.14099

 Mulliken charges and spin densities:
               1          2
     1  C   -0.736038  -0.005892
     2  C    0.115059  -0.023154
     3  O   -0.025091  -0.000938
     4  C    0.033380  -0.005223
     5  C    0.164492  -0.031278
     6  C   -0.416403   0.026298
     7  C   -0.333952   0.004445
     8  C    0.273267   0.003034
     9  C   -0.598476   0.034554
    10  N   -0.033165   0.040529
    11  C    0.093123   0.074350
    12  C   -0.220287  -0.093093
    13  C   -0.588153   0.492244
    14  N   -0.012358   0.214633
    15  N   -0.110076   0.163932
    16  C    0.157535   0.069464
    17  O   -0.364691   0.112266
    18  N   -0.221574  -0.031490
    19  H    0.141226   0.000808
    20  H    0.121517  -0.000169
    21  H    0.178652  -0.001085
    22  H    0.124926  -0.001164
    23  H    0.111460   0.012991
    24  H    0.144163   0.000204
    25  H    0.133751  -0.000242
    26  H    0.133360  -0.000192
    27  H    0.160515   0.002355
    28  H    0.131855  -0.031581
    29  H    0.144063  -0.026799
    30  H    0.297919   0.000191
 Sum of Mulliken charges =  -1.00000   1.00000

 Dipole moment (field-independent basis, Debye):
    X=             10.2145    Y=              1.8824    Z=             -1.2517  Tot=             10.4617
 Quadrupole moment (field-independent basis, Debye-Ang):
   XX=           -172.2775   YY=           -109.4865   ZZ=           -121.0179
   XY=              3.3312   XZ=              3.6532   YZ=             -3.8642

 Summary of Natural Population Analysis:

                                       Natural Population
                Natural  -----------------------------------------------
    Atom  No    Charge         Core      Valence    Rydberg      Total
 -----------------------------------------------------------------------
      C    1   -0.29491      0.99966     2.29059    0.00466     3.29491
      C    2   -0.00890      0.99960     2.00011    0.00919     3.00890
      O    3   -0.27623      0.99985     3.26416    0.01222     4.27623
      C    4    0.15582      0.99934     1.83081    0.01403     2.84418
      C    5   -0.14310      0.99953     2.13616    0.00741     3.14310
      C    6   -0.11496      0.99958     2.10582    0.00955     3.11496
      C    7   -0.11622      0.99957     2.10781    0.00884     3.11622
      C    8   -0.10927      0.99952     2.10140    0.00835     3.10927
      C    9    0.06384      0.99943     1.92168    0.01504     2.93616
      N   10   -0.27023      0.99959     2.75794    0.01269     3.77023
      C   11    0.24453      0.99950     1.73738    0.01859     2.75547
      C   12   -0.04603      0.99945     2.02787    0.01871     3.04603
      C   13    0.00860      0.99955     1.98523    0.00661     2.99140
      N   14   -0.02550      0.99974     2.50601    0.01976     3.52550
      N   15   -0.09001      0.99975     2.57405    0.01622     3.59001
      C   16    0.38832      0.99971     1.58619    0.02578     2.61168
      O   17   -0.27610      0.99987     3.26909    0.00715     4.27610
      N   18   -0.32216      0.99963     2.81148    0.01105     3.82216
      H   19    0.10017      0.00000     0.39890    0.00093     0.39983
      H   20    0.09318      0.00000     0.40606    0.00076     0.40682
      H   21    0.11708      0.00000     0.38165    0.00127     0.38292
      H   22    0.07536      0.00000     0.42326    0.00138     0.42464
      H   23    0.08419      0.00000     0.41397    0.00183     0.41581
      H   24    0.09980      0.00000     0.39915    0.00104     0.40020
      H   25    0.09414      0.00000     0.40487    0.00098     0.40586
      H   26    0.09520      0.00000     0.40386    0.00094     0.40480
      H   27    0.10189      0.00000     0.39682    0.00129     0.39811
      H   28    0.08785      0.00000     0.41063    0.00152     0.41215
      H   29    0.08699      0.00000     0.41217    0.00085     0.41301
      H   30    0.19663      0.00000     0.30072    0.00265     0.30337
 =======================================================================
   * Total *    0.00000     17.99287    45.76585    0.24128    64.00000

 Normal termination of Gaussian 16 at Fri Dec 11 20:53:26 2020.
