 Gaussian 16, Revision A.03,

 -----------------------------------------------------------
 # opt freq B3LYP/6-31G(d) empiricaldispersion=gd3bj scf=xqc
 -----------------------------------------------------------

 -------------------------------
 CID_123475160_JID_3279_neutraal
 -------------------------------
 Symbolic Z-matrix:
 Charge =  0 Multiplicity = 1

 SCF Done:  E(RB3LYP) =  -511.099115093     A.U. after   13 cycles
 SCF Done:  E(RB3LYP) =  -511.099837655     A.U. after   11 cycles
 SCF Done:  E(RB3LYP) =  -511.096491757     A.U. after   11 cycles
 SCF Done:  E(RB3LYP) =  -511.098446434     A.U. after   11 cycles
 SCF Done:  E(RB3LYP) =  -511.100783017     A.U. after    8 cycles
 SCF Done:  E(RB3LYP) =  -511.100928703     A.U. after   10 cycles
 SCF Done:  E(RB3LYP) =  -511.101002142     A.U. after   10 cycles
 SCF Done:  E(RB3LYP) =  -511.101117651     A.U. after    9 cycles
 SCF Done:  E(RB3LYP) =  -511.101120633     A.U. after    8 cycles
 SCF Done:  E(RB3LYP) =  -511.101121972     A.U. after    8 cycles
 SCF Done:  E(RB3LYP) =  -511.101121913     A.U. after    7 cycles
 SCF Done:  E(RB3LYP) =  -511.101121978     A.U. after    6 cycles
 Optimization completed.
    -- Stationary point found.
 Normal termination of Gaussian 16 at Wed Dec  9 22:44:43 2020.

 --------------------------------------------------------------------
 #N Geom=AllCheck Guess=TCheck SCRF=Check GenChk RB3LYP/6-31G(d) Freq
 --------------------------------------------------------------------

 Structure from the checkpoint file:  "JID_3279.chk"
 -------------------------------
 CID_123475160_JID_3279_neutraal
 -------------------------------
 Charge =  0 Multiplicity = 1

 SCF Done:  E(RB3LYP) =  -511.101121978     A.U. after    1 cycles

  Exact polarizability: 153.129   5.308 134.990   4.310   0.536 119.835
 Approx polarizability: 199.289  11.250 193.933   8.389   1.580 170.448

                      1                      2                      3
                      A                      A                      A
 Frequencies --     39.6879                49.6533                78.5576
 Red. masses --      3.3359                 2.9258                 2.7516
 Frc consts  --      0.0031                 0.0043                 0.0100
 IR Inten    --      0.0109                 0.0049                 0.0014

                      4                      5                      6
                      A                      A                      A
 Frequencies --     91.5874               104.8907               135.2095
 Red. masses --      2.6340                 2.6452                 2.8203
 Frc consts  --      0.0130                 0.0171                 0.0304
 IR Inten    --      0.0370                 0.0259                 0.0264

                      7                      8                      9
                      A                      A                      A
 Frequencies --    173.8599               204.4001               216.0712
 Red. masses --      1.5275                 2.1705                 1.4079
 Frc consts  --      0.0272                 0.0534                 0.0387
 IR Inten    --      0.0126                 0.0889                 0.0714

                     10                     11                     12
                      A                      A                      A
 Frequencies --    241.6714               256.7323               264.3612
 Red. masses --      2.0033                 1.3339                 1.3736
 Frc consts  --      0.0689                 0.0518                 0.0566
 IR Inten    --      0.0221                 0.1271                 0.3110

                     13                     14                     15
                      A                      A                      A
 Frequencies --    270.3548               277.0704               290.0829
 Red. masses --      1.6989                 2.3365                 1.4616
 Frc consts  --      0.0732                 0.1057                 0.0725
 IR Inten    --      0.0711                 0.3836                 0.4562

                     16                     17                     18
                      A                      A                      A
 Frequencies --    308.4295               327.3229               349.9483
 Red. masses --      1.1621                 1.8826                 1.9267
 Frc consts  --      0.0651                 0.1188                 0.1390
 IR Inten    --      0.0539                 0.1154                 0.0346

                     19                     20                     21
                      A                      A                      A
 Frequencies --    369.6273               382.0347               410.5356
 Red. masses --      2.1530                 2.2302                 2.4003
 Frc consts  --      0.1733                 0.1918                 0.2383
 IR Inten    --      0.3608                 0.1688                 0.0992

                     22                     23                     24
                      A                      A                      A
 Frequencies --    460.1927               475.4769               526.5783
 Red. masses --      2.1041                 2.4435                 2.6309
 Frc consts  --      0.2625                 0.3255                 0.4298
 IR Inten    --      0.2996                 0.9983                 1.7563

                     25                     26                     27
                      A                      A                      A
 Frequencies --    604.2291               684.4331               707.6795
 Red. masses --      2.9035                 3.5028                 2.5725
 Frc consts  --      0.6246                 0.9668                 0.7591
 IR Inten    --      0.2518                 7.1892                 0.6272

                     28                     29                     30
                      A                      A                      A
 Frequencies --    739.0935               749.1892               812.1436
 Red. masses --      1.1489                 1.1751                 1.7265
 Frc consts  --      0.3698                 0.3886                 0.6709
 IR Inten    --      2.5461                 5.8170                 0.1422

                     31                     32                     33
                      A                      A                      A
 Frequencies --    834.1183               866.8267               903.0715
 Red. masses --      2.2938                 1.8033                 1.6054
 Frc consts  --      0.9403                 0.7983                 0.7714
 IR Inten    --      0.6170                 3.5873                 1.5677

                     34                     35                     36
                      A                      A                      A
 Frequencies --    924.0836               926.1249               938.1407
 Red. masses --      1.6035                 1.3886                 1.5839
 Frc consts  --      0.8067                 0.7017                 0.8213
 IR Inten    --      3.0412                26.0273                 3.4346

                     37                     38                     39
                      A                      A                      A
 Frequencies --    941.8584               965.8788               978.7541
 Red. masses --      1.3120                 1.6396                 1.5314
 Frc consts  --      0.6857                 0.9012                 0.8643
 IR Inten    --      3.1380                 2.4616                 1.2078

                     40                     41                     42
                      A                      A                      A
 Frequencies --    985.9838              1005.7437              1041.0121
 Red. masses --      1.5457                 1.3507                 2.2346
 Frc consts  --      0.8853                 0.8050                 1.4268
 IR Inten    --      1.5819                 3.1343                 0.2585

                     43                     44                     45
                      A                      A                      A
 Frequencies --   1060.5107              1073.4795              1091.8476
 Red. masses --      1.3893                 1.4665                 2.0538
 Frc consts  --      0.9206                 0.9957                 1.4426
 IR Inten    --      0.7605                 8.3376                 4.5581

                     46                     47                     48
                      A                      A                      A
 Frequencies --   1102.9889              1127.3650              1140.5847
 Red. masses --      2.2175                 1.6182                 2.2397
 Frc consts  --      1.5895                 1.2118                 1.7167
 IR Inten    --      0.5718                 5.5270                 4.9741

                     49                     50                     51
                      A                      A                      A
 Frequencies --   1168.0362              1179.2961              1201.2265
 Red. masses --      2.0842                 2.1739                 1.9919
 Frc consts  --      1.6753                 1.7813                 1.6934
 IR Inten    --      0.8189                 2.7000                 2.2228

                     52                     53                     54
                      A                      A                      A
 Frequencies --   1208.4197              1247.4931              1271.9783
 Red. masses --      1.9812                 1.3446                 1.3574
 Frc consts  --      1.7046                 1.2329                 1.2939
 IR Inten    --      1.4299                 2.6237                 0.3758

                     55                     56                     57
                      A                      A                      A
 Frequencies --   1307.6522              1320.0321              1336.9327
 Red. masses --      1.9079                 1.7249                 1.2197
 Frc consts  --      1.9222                 1.7708                 1.2844
 IR Inten    --      0.3357                 0.6083                 2.5404

                     58                     59                     60
                      A                      A                      A
 Frequencies --   1360.2751              1362.6076              1374.3727
 Red. masses --      1.2904                 1.2373                 1.2548
 Frc consts  --      1.4068                 1.3535                 1.3965
 IR Inten    --      2.2492                 1.2320                 0.1884

                     61                     62                     63
                      A                      A                      A
 Frequencies --   1378.9709              1385.3560              1398.6464
 Red. masses --      1.2813                 1.4152                 1.3157
 Frc consts  --      1.4355                 1.6003                 1.5165
 IR Inten    --      3.3177                 1.3307                 4.1303

                     64                     65                     66
                      A                      A                      A
 Frequencies --   1409.6459              1419.1580              1425.4270
 Red. masses --      1.4141                 1.3834                 1.2394
 Frc consts  --      1.6556                 1.6415                 1.4838
 IR Inten    --      4.0766                 1.5563                 1.7956

                     67                     68                     69
                      A                      A                      A
 Frequencies --   1434.9064              1441.2789              1445.2822
 Red. masses --      1.2115                 1.2653                 1.2498
 Frc consts  --      1.4696                 1.5486                 1.5381
 IR Inten    --      7.0364                 0.7542                12.5805

                     70                     71                     72
                      A                      A                      A
 Frequencies --   1448.8242              1488.8478              1510.3782
 Red. masses --      1.2280                 1.1981                 1.0686
 Frc consts  --      1.5187                 1.5647                 1.4363
 IR Inten    --      5.2439                 5.5065                 1.3502

                     73                     74                     75
                      A                      A                      A
 Frequencies --   1516.5983              1521.1735              1523.5468
 Red. masses --      1.0466                 1.0658                 1.0610
 Frc consts  --      1.4183                 1.4531                 1.4511
 IR Inten    --      2.0891                 5.3817                 2.0548

                     76                     77                     78
                      A                      A                      A
 Frequencies --   1524.2290              1529.5947              1530.8760
 Red. masses --      1.0510                 1.0549                 1.0466
 Frc consts  --      1.4387                 1.4542                 1.4452
 IR Inten    --      0.8301                 7.7569                 8.6031

                     79                     80                     81
                      A                      A                      A
 Frequencies --   1534.7443              1536.2316              1540.8250
 Red. masses --      1.0561                 1.0577                 1.0668
 Frc consts  --      1.4657                 1.4707                 1.4923
 IR Inten    --      3.7868                 0.6865                 1.4847

                     82                     83                     84
                      A                      A                      A
 Frequencies --   1542.6308              1546.0532              1552.3878
 Red. masses --      1.0519                 1.0527                 1.0537
 Frc consts  --      1.4748                 1.4826                 1.4962
 IR Inten    --      8.4226                 2.5922                 2.2564

                     85                     86                     87
                      A                      A                      A
 Frequencies --   1710.9996              3011.7377              3020.4544
 Red. masses --      4.6778                 1.0827                 1.0684
 Frc consts  --      8.0685                 5.7860                 5.7429
 IR Inten    --      9.5535                12.6632                14.6087

                     88                     89                     90
                      A                      A                      A
 Frequencies --   3030.2918              3033.9729              3036.8589
 Red. masses --      1.0840                 1.0637                 1.0649
 Frc consts  --      5.8649                 5.7688                 5.7866
 IR Inten    --     19.3541                41.0871                13.6550

                     91                     92                     93
                      A                      A                      A
 Frequencies --   3044.1341              3046.2313              3049.4478
 Red. masses --      1.0376                 1.0490                 1.0371
 Frc consts  --      5.6652                 5.7351                 5.6821
 IR Inten    --     22.7676                13.0413                23.1378

                     94                     95                     96
                      A                      A                      A
 Frequencies --   3053.1217              3059.7971              3063.7062
 Red. masses --      1.0428                 1.0729                 1.0400
 Frc consts  --      5.7273                 5.9184                 5.7514
 IR Inten    --      3.9376                60.5654                25.9040

                     97                     98                     99
                      A                      A                      A
 Frequencies --   3066.4977              3071.3398              3096.2898
 Red. masses --      1.0890                 1.0989                 1.0943
 Frc consts  --      6.0335                 6.1076                 6.1812
 IR Inten    --     38.3168                25.0269                73.9715

                    100                    101                    102
                      A                      A                      A
 Frequencies --   3108.5975              3111.7393              3113.1886
 Red. masses --      1.1015                 1.1005                 1.0963
 Frc consts  --      6.2715                 6.2784                 6.2601
 IR Inten    --     55.8139                 7.1606                65.5064

                    103                    104                    105
                      A                      A                      A
 Frequencies --   3114.5001              3117.6111              3127.4640
 Red. masses --      1.1015                 1.0995                 1.1020
 Frc consts  --      6.2951                 6.2961                 6.3507
 IR Inten    --     57.5758                50.9014                23.2571

                    106                    107                    108
                      A                      A                      A
 Frequencies --   3132.3128              3138.1290              3142.5643
 Red. masses --      1.1024                 1.1014                 1.1005
 Frc consts  --      6.3727                 6.3907                 6.4033
 IR Inten    --     26.0001                40.0076                29.7159

                    109                    110                    111
                      A                      A                      A
 Frequencies --   3145.6080              3150.1074              3224.3555
 Red. masses --      1.0988                 1.0602                 1.1153
 Frc consts  --      6.4060                 6.1985                 6.8318
 IR Inten    --     18.5928                17.5366                24.2710

 - Thermochemistry -
 -------------------
 Temperature   298.150 Kelvin.  Pressure   1.00000 Atm.
 Atom     1 has atomic number  6 and mass  12.00000

 Molecular mass:   182.20345 amu.
 Principal axes and moments of inertia in atomic units:
                           1         2         3
     Eigenvalues --  1735.241893861.516004139.89149
           X            0.99999  -0.00080   0.00330
           Y            0.00076   0.99989   0.01476
           Z           -0.00331  -0.01476   0.99989
 This molecule is an asymmetric top.
 Rotational symmetry number  1.
 Warning -- assumption of classical behavior for rotation
           may cause significant error
 Rotational temperatures (Kelvin)      0.04991     0.02243     0.02092
 Rotational constants (GHZ):           1.04005     0.46737     0.43594
 Zero-point vibrational energy     965712.2 (Joules/Mol)
                                  230.81075 (Kcal/Mol)
 Warning -- explicit consideration of  25 degrees of freedom as
           vibrations may cause significant error
 Vibrational temperatures:     57.10    71.44   113.03   131.77   150.91
          (Kelvin)            194.54   250.15   294.09   310.88   347.71
                              369.38   380.36   388.98   398.64   417.36
                              443.76   470.94   503.50   531.81   549.66
                              590.67   662.11   684.11   757.63   869.35
                              984.75  1018.19  1063.39  1077.92  1168.49
                             1200.11  1247.17  1299.32  1329.55  1332.49
                             1349.78  1355.12  1389.68  1408.21  1418.61
                             1447.04  1497.78  1525.84  1544.50  1570.93
                             1586.95  1622.03  1641.05  1680.54  1696.74
                             1728.30  1738.65  1794.86  1830.09  1881.42
                             1899.23  1923.55  1957.13  1960.49  1977.42
                             1984.03  1993.22  2012.34  2028.17  2041.85
                             2050.87  2064.51  2073.68  2079.44  2084.53
                             2142.12  2173.10  2182.05  2188.63  2192.04
                             2193.03  2200.75  2202.59  2208.15  2210.29
                             2216.90  2219.50  2224.43  2233.54  2461.75
                             4333.22  4345.76  4359.91  4365.21  4369.36
                             4379.83  4382.85  4387.48  4392.76  4402.37
                             4407.99  4412.01  4418.97  4454.87  4472.58
                             4477.10  4479.18  4481.07  4485.55  4499.72
                             4506.70  4515.07  4521.45  4525.83  4532.30
                             4639.13

 Zero-point correction=                           0.367820 (Hartree/Particle)
 Thermal correction to Energy=                    0.384224
 Thermal correction to Enthalpy=                  0.385168
 Thermal correction to Gibbs Free Energy=         0.325052
 Sum of electronic and zero-point Energies=           -510.733302
 Sum of electronic and thermal Energies=              -510.716898
 Sum of electronic and thermal Enthalpies=            -510.715954
 Sum of electronic and thermal Free Energies=         -510.776069

                     E (Thermal)             CV                S
                      KCal/Mol        Cal/Mol-Kelvin    Cal/Mol-Kelvin
 Total                  241.104             62.643            126.523
 Electronic               0.000              0.000              0.000
 Translational            0.889              2.981             41.506
 Rotational               0.889              2.981             31.695
 Vibrational            239.327             56.682             53.322
 Vibration     1          0.594              1.981              5.275
 Vibration     2          0.595              1.978              4.831
 Vibration     3          0.600              1.964              3.927
 Vibration     4          0.602              1.955              3.626
 Vibration     5          0.605              1.945              3.361
 Vibration     6          0.613              1.918              2.871
 Vibration     7          0.627              1.875              2.393
 Vibration     8          0.640              1.834              2.093
 Vibration     9          0.645              1.817              1.992
 Vibration    10          0.658              1.777              1.791
 Vibration    11          0.666              1.751              1.684
 Vibration    12          0.671              1.738              1.633
 Vibration    13          0.674              1.728              1.594
 Vibration    14          0.678              1.716              1.552
 Vibration    15          0.686              1.692              1.473
 Vibration    16          0.698              1.658              1.371
 Vibration    17          0.711              1.621              1.273
 Vibration    18          0.727              1.575              1.166
 Vibration    19          0.742              1.535              1.081
 Vibration    20          0.751              1.508              1.031
 Vibration    21          0.775              1.447              0.925
 Vibration    22          0.818              1.338              0.766
 Vibration    23          0.832              1.304              0.722
 Vibration    24          0.882              1.191              0.595
 Vibration    25          0.963              1.023              0.442

 Optimization completed.
    -- Stationary point found.
 Normal termination of Gaussian 16 at Wed Dec  9 22:57:10 2020.

 ----------------------------------------------------------------------
 # B3LYP/6-311++G(d,p) empiricaldispersion=gd3bj scf=xqc pop=npa geom=c
 heck
 ----------------------------------------------------------------------

 ---------------------------------------
 CID_123475160_JID_3279_Energie_neutraal
 ---------------------------------------
 Structure from the checkpoint file:  "JID_3279.chk"
 Charge =  0 Multiplicity = 1

 SCF Done:  E(RB3LYP) =  -511.243059601     A.U. after   14 cycles
 Normal termination of Gaussian 16 at Wed Dec  9 23:02:51 2020.

 ----------------------------------------------------------------------
 # B3LYP/6-311++G(d,p) empiricaldispersion=gd3bj scf=xqc pop=npa geom=c
 heck
 ----------------------------------------------------------------------

 -------------------------------------
 CID_123475160_JID_3279_Energie_kation
 -------------------------------------
 Structure from the checkpoint file:  "JID_3279.chk"
 Charge =  1 Multiplicity = 2

 SCF Done:  E(UB3LYP) =  -510.923657522     A.U. after   20 cycles
 Normal termination of Gaussian 16 at Wed Dec  9 23:13:43 2020.
 Gaussian 16:  ES64L-G16RevA.03 25-Dec-2016

 ----------------------------------------------------------------------
 # B3LYP/6-311++G(d,p) empiricaldispersion=gd3bj scf=xqc pop=npa geom=c
 heck
 ----------------------------------------------------------------------

 ------------------------------------
 CID_123475160_JID_3279_Energie_anion
 ------------------------------------
 Structure from the checkpoint file:  "JID_3279.chk"
 Charge = -1 Multiplicity = 2

                         Standard orientation:
 ---------------------------------------------------------------------
 Center     Atomic      Atomic             Coordinates (Angstroms)
 Number     Number       Type             X           Y           Z
 ---------------------------------------------------------------------
      1          6           0        3.210161    1.586416    0.660407
      2          6           0        3.213674    0.719956   -0.602700
      3          6           0        3.027283   -0.781142   -0.330919
      4          6           0        1.739570   -1.145620    0.426244
      5          6           0        0.436917   -0.657464   -0.233853
      6          6           0        0.319958   -1.186713   -1.670382
      7          6           0       -0.819187   -1.059637    0.585055
      8          6           0       -0.671524   -0.814275    2.103670
      9          6           0       -2.120302   -0.462466    0.046965
     10          6           0       -3.131526   -1.288140   -0.248791
     11          6           0       -2.333308    1.040856   -0.159573
     12          6           0       -1.774583    1.953409    0.943400
     13          6           0       -1.850754    1.527487   -1.542172
     14          1           0        2.240174    1.557195    1.169623
     15          1           0        3.425047    2.634010    0.422032
     16          1           0        3.968132    1.243654    1.375735
     17          1           0        2.431386    1.073804   -1.287276
     18          1           0        4.163701    0.861612   -1.134340
     19          1           0        3.066272   -1.322749   -1.284005
     20          1           0        3.883120   -1.141695    0.256801
     21          1           0        1.692765   -2.238945    0.538401
     22          1           0        1.808415   -0.739646    1.440659
     23          1           0        0.477410    0.438099   -0.266213
     24          1           0        0.434525   -2.278492   -1.681208
     25          1           0       -0.655209   -0.955741   -2.105617
     26          1           0        1.089373   -0.765228   -2.324842
     27          1           0       -0.924006   -2.147719    0.466402
     28          1           0       -0.306796    0.190104    2.334666
     29          1           0       -1.637433   -0.945428    2.601613
     30          1           0        0.028875   -1.530043    2.544180
     31          1           0       -4.094524   -0.916752   -0.592648
     32          1           0       -3.035898   -2.367571   -0.160434
     33          1           0       -3.422244    1.180940   -0.156984
     34          1           0       -0.679912    1.945625    0.967681
     35          1           0       -2.088222    2.987118    0.757160
     36          1           0       -2.139461    1.664490    1.933513
     37          1           0       -2.274842    0.913749   -2.342960
     38          1           0       -2.167878    2.565060   -1.702362
     39          1           0       -0.761045    1.498555   -1.633685
 ---------------------------------------------------------------------

 SCF Done:  E(UB3LYP) =  -511.226309801     A.U. after   33 cycles
 SCF Done:  E(UB3LYP) =  -511.226309801     a.u. after    1 cycles

 The electronic state is 2-A.
 Alpha  occ. eigenvalues --  -10.08354 -10.08304 -10.08106 -10.07461 -10.06540
 Alpha  occ. eigenvalues --  -10.06405 -10.06299 -10.06179 -10.06173 -10.06084
 Alpha  occ. eigenvalues --  -10.06035 -10.05781 -10.05767  -0.74433  -0.71211
 Alpha  occ. eigenvalues --   -0.68296  -0.65371  -0.62740  -0.60962  -0.58617
 Alpha  occ. eigenvalues --   -0.55494  -0.53359  -0.50604  -0.48980  -0.44631
 Alpha  occ. eigenvalues --   -0.43006  -0.37879  -0.37331  -0.36267  -0.35104
 Alpha  occ. eigenvalues --   -0.34047  -0.33066  -0.33000  -0.32375  -0.31355
 Alpha  occ. eigenvalues --   -0.30797  -0.29206  -0.28513  -0.28313  -0.28000
 Alpha  occ. eigenvalues --   -0.27639  -0.26590  -0.25136  -0.24946  -0.24014
 Alpha  occ. eigenvalues --   -0.23635  -0.23572  -0.22253  -0.21714  -0.21012
 Alpha  occ. eigenvalues --   -0.20165  -0.15452   0.04450
 Alpha virt. eigenvalues --    0.06227   0.06714   0.07247   0.08111   0.08371
 Alpha virt. eigenvalues --    0.08697   0.09088   0.09251   0.09822   0.10411
 Alpha virt. eigenvalues --    0.11053   0.11400   0.11727   0.12088   0.12431

  Beta  occ. eigenvalues --  -10.08355 -10.08294 -10.08098 -10.07456 -10.06524
  Beta  occ. eigenvalues --  -10.06390 -10.06286 -10.06163 -10.06150 -10.06058
  Beta  occ. eigenvalues --  -10.06023 -10.05753 -10.05751  -0.74417  -0.71187
  Beta  occ. eigenvalues --   -0.68267  -0.65347  -0.62715  -0.60925  -0.58566
  Beta  occ. eigenvalues --   -0.55447  -0.53317  -0.50553  -0.48928  -0.44584
  Beta  occ. eigenvalues --   -0.42979  -0.37854  -0.37298  -0.36229  -0.35076
  Beta  occ. eigenvalues --   -0.34018  -0.33036  -0.32971  -0.32353  -0.31333
  Beta  occ. eigenvalues --   -0.30767  -0.29174  -0.28488  -0.28281  -0.27967
  Beta  occ. eigenvalues --   -0.27617  -0.26563  -0.25106  -0.24918  -0.23981
  Beta  occ. eigenvalues --   -0.23592  -0.23544  -0.22223  -0.21687  -0.20986
  Beta  occ. eigenvalues --   -0.20142  -0.15441
  Beta virt. eigenvalues --    0.06426   0.07116   0.07355   0.07611   0.08425
  Beta virt. eigenvalues --    0.08832   0.09038   0.09472   0.09613   0.10093
  Beta virt. eigenvalues --    0.10904   0.11387   0.11745   0.12032   0.12421

 Mulliken charges and spin densities:
               1          2
     1  C    1.009702  -1.621794
     2  C   -1.127394   1.021012
     3  C    1.691378  -2.203902
     4  C   -0.965293   0.725942
     5  C    0.108403   0.312193
     6  C    0.000952  -0.922527
     7  C    0.222865   0.080406
     8  C    0.293717  -1.103443
     9  C   -0.419457   1.026822
    10  C    1.764192  -2.409932
    11  C   -2.953339   2.789720
    12  C    0.706826  -1.278915
    13  C    0.527503  -1.115677
    14  H   -0.117341   0.272394
    15  H   -0.314579   0.450883
    16  H   -0.140521   0.277488
    17  H    0.003990   0.135937
    18  H   -0.404577   0.584912
    19  H    0.100662   0.038924
    20  H   -0.356457   0.527428
    21  H   -0.105493   0.270771
    22  H    0.199344  -0.056501
    23  H    0.426857  -0.370713
    24  H   -0.062874   0.231431
    25  H    0.233455  -0.111275
    26  H   -0.031098   0.167047
    27  H   -0.029352   0.228899
    28  H    0.206827  -0.039401
    29  H   -0.057189   0.217493
    30  H   -0.157845   0.300407
    31  H   -0.088379   0.214362
    32  H   -0.054727   0.174090
    33  H   -0.272341   0.463850
    34  H   -0.076625   0.219768
    35  H   -0.436839   0.592322
    36  H   -0.065405   0.199994
    37  H   -0.012478   0.154039
    38  H   -0.281833   0.424707
    39  H    0.034761   0.130838
 Sum of Mulliken charges =  -1.00000   1.00000

 Dipole moment (field-independent basis, Debye):
    X=             -1.8106    Y=             -3.1810    Z=             -0.4574  Tot=              3.6887
 Quadrupole moment (field-independent basis, Debye-Ang):
   XX=           -167.7576   YY=           -140.5346   ZZ=           -125.3381
   XY=              2.3045   XZ=             -1.1288   YZ=              1.0403

 Summary of Natural Population Analysis:

                                       Natural Population
                Natural  -----------------------------------------------
    Atom  No    Charge         Core      Valence    Rydberg      Total
 -----------------------------------------------------------------------
      C    1   -0.28661      0.99967     2.28148    0.00546     3.28661
      C    2   -0.19209      0.99964     2.18462    0.00782     3.19209
      C    3   -0.18698      0.99963     2.17891    0.00844     3.18698
      C    4   -0.18901      0.99961     2.17999    0.00941     3.18901
      C    5   -0.11705      0.99958     2.10744    0.01003     3.11705
      C    6   -0.28820      0.99965     2.28238    0.00618     3.28820
      C    7   -0.12072      0.99953     2.10814    0.01305     3.12072
      C    8   -0.28482      0.99964     2.27907    0.00611     3.28482
      C    9    0.01880      0.99947     1.96722    0.01451     2.98120
      C   10   -0.19809      0.99947     2.19105    0.00758     3.19809
      C   11   -0.12909      0.99955     2.11692    0.01262     3.12909
      C   12   -0.28315      0.99965     2.27709    0.00641     3.28315
      C   13   -0.27916      0.99964     2.27323    0.00629     3.27916
      H   14    0.09519      0.00000     0.40332    0.00149     0.40481
      H   15    0.10016      0.00000     0.39882    0.00102     0.39984
      H   16    0.09571      0.00000     0.40314    0.00114     0.40429
      H   17    0.09248      0.00000     0.40609    0.00144     0.40752
      H   18    0.09637      0.00000     0.40241    0.00122     0.40363
      H   19    0.09545      0.00000     0.40338    0.00117     0.40455
      H   20    0.09607      0.00000     0.40281    0.00111     0.40393
      H   21    0.09637      0.00000     0.40252    0.00111     0.40363
      H   22    0.09928      0.00000     0.39930    0.00142     0.40072
      H   23    0.09642      0.00000     0.40040    0.00318     0.40358
      H   24    0.09644      0.00000     0.40264    0.00093     0.40356
      H   25    0.10486      0.00000     0.39429    0.00085     0.39514
      H   26    0.09934      0.00000     0.39986    0.00079     0.40066
      H   27    0.09565      0.00000     0.40237    0.00198     0.40435
      H   28    0.09941      0.00000     0.39940    0.00119     0.40059
      H   29    0.10164      0.00000     0.39751    0.00085     0.39836
      H   30    0.10100      0.00000     0.39816    0.00085     0.39900
      H   31    0.09165      0.00000     0.40712    0.00123     0.40835
      H   32    0.09101      0.00000     0.40781    0.00118     0.40899
      H   33    0.09700      0.00000     0.40092    0.00207     0.40300
      H   34    0.09623      0.00000     0.40227    0.00150     0.40377
      H   35    0.10177      0.00000     0.39716    0.00107     0.39823
      H   36    0.10030      0.00000     0.39865    0.00105     0.39970
      H   37    0.09945      0.00000     0.39955    0.00100     0.40055
      H   38    0.10015      0.00000     0.39881    0.00104     0.39985
      H   39    0.09677      0.00000     0.40176    0.00147     0.40323
 =======================================================================
   * Total *   -0.00000     12.99472    38.85803    0.14725    52.00000

 Normal termination of Gaussian 16 at Wed Dec  9 23:31:08 2020.
