 Gaussian 16, Revision A.03,

 -----------------------------------------------------------
 # opt freq B3LYP/6-31G(d) empiricaldispersion=gd3bj scf=xqc
 -----------------------------------------------------------

 ------------------------------
 CID_66105688_JID_8869_neutraal
 ------------------------------
 Symbolic Z-matrix:
 Charge =  0 Multiplicity = 1

 SCF Done:  E(RB3LYP) =  -1200.33143780     A.U. after   15 cycles
 SCF Done:  E(RB3LYP) =  -1200.33704535     A.U. after   13 cycles
 SCF Done:  E(RB3LYP) =  -1200.33387806     A.U. after   15 cycles
 SCF Done:  E(RB3LYP) =  -1200.33562447     A.U. after   13 cycles
 SCF Done:  E(RB3LYP) =  -1200.33785495     A.U. after    9 cycles
 SCF Done:  E(RB3LYP) =  -1200.33841665     A.U. after   12 cycles
 SCF Done:  E(RB3LYP) =  -1200.33879388     A.U. after   12 cycles
 SCF Done:  E(RB3LYP) =  -1200.33912846     A.U. after   12 cycles
 SCF Done:  E(RB3LYP) =  -1200.33933198     A.U. after   13 cycles
 SCF Done:  E(RB3LYP) =  -1200.33950141     A.U. after   12 cycles
 SCF Done:  E(RB3LYP) =  -1200.34023345     A.U. after    9 cycles
 SCF Done:  E(RB3LYP) =  -1200.34023414     A.U. after   10 cycles
 SCF Done:  E(RB3LYP) =  -1200.34023486     A.U. after    8 cycles
 SCF Done:  E(RB3LYP) =  -1200.34023470     A.U. after    8 cycles
 SCF Done:  E(RB3LYP) =  -1200.34023478     A.U. after    7 cycles
 Optimization completed.
    -- Stationary point found.
 Normal termination of Gaussian 16 at Fri Dec 11 22:51:29 2020.

 --------------------------------------------------------------------
 #N Geom=AllCheck Guess=TCheck SCRF=Check GenChk RB3LYP/6-31G(d) Freq
 --------------------------------------------------------------------

 Structure from the checkpoint file:  "JID_8869.chk"
 ------------------------------
 CID_66105688_JID_8869_neutraal
 ------------------------------
 Charge =  0 Multiplicity = 1

 SCF Done:  E(RB3LYP) =  -1200.34023478     A.U. after    1 cycles

  Exact polarizability: 226.235  -6.866 158.632  15.107   4.835 119.170
 Approx polarizability: 335.671 -22.622 268.532  31.571  12.518 184.960

                      1                      2                      3
                      A                      A                      A
 Frequencies --     27.1544                39.8984                58.8402
 Red. masses --      5.4583                 4.4782                 4.6125
 Frc consts  --      0.0024                 0.0042                 0.0094
 IR Inten    --      1.0907                 0.2103                 1.1722

                      4                      5                      6
                      A                      A                      A
 Frequencies --     66.2643                93.4946               121.9700
 Red. masses --      5.5058                 6.1834                 3.2388
 Frc consts  --      0.0142                 0.0318                 0.0284
 IR Inten    --      2.6741                 0.1412                 4.1789

                      7                      8                      9
                      A                      A                      A
 Frequencies --    154.4712               169.5121               196.9005
 Red. masses --      5.1538                 2.3029                 6.2597
 Frc consts  --      0.0725                 0.0390                 0.1430
 IR Inten    --      2.8621                 0.8243                 2.1582

                     10                     11                     12
                      A                      A                      A
 Frequencies --    222.6242               235.9335               267.8272
 Red. masses --      3.7128                 4.0984                 1.0906
 Frc consts  --      0.1084                 0.1344                 0.0461
 IR Inten    --      1.1548                 7.3640                 0.3356

                     13                     14                     15
                      A                      A                      A
 Frequencies --    270.9839               293.7036               328.5753
 Red. masses --      4.0431                 3.3603                 4.0517
 Frc consts  --      0.1749                 0.1708                 0.2577
 IR Inten    --      1.7128                 4.0667                 2.7312

                     16                     17                     18
                      A                      A                      A
 Frequencies --    335.3929               353.5397               361.8897
 Red. masses --      3.0507                 1.2902                 6.0699
 Frc consts  --      0.2022                 0.0950                 0.4684
 IR Inten    --      5.3199               126.9359                 4.5965

                     19                     20                     21
                      A                      A                      A
 Frequencies --    388.2024               391.4250               400.8978
 Red. masses --      2.8078                 1.9666                 2.6020
 Frc consts  --      0.2493                 0.1775                 0.2464
 IR Inten    --     21.2019                 9.8047                21.4207

                     22                     23                     24
                      A                      A                      A
 Frequencies --    423.0663               455.1626               465.8926
 Red. masses --      3.9955                 3.4719                 2.6608
 Frc consts  --      0.4213                 0.4238                 0.3403
 IR Inten    --     26.7740                11.0245                14.3374

                     25                     26                     27
                      A                      A                      A
 Frequencies --    473.7336               536.8595               550.1174
 Red. masses --      3.3184                 2.0383                 1.5258
 Frc consts  --      0.4388                 0.3461                 0.2721
 IR Inten    --     18.1324                19.6927               257.2066

                     28                     29                     30
                      A                      A                      A
 Frequencies --    570.2177               585.2827               590.7214
 Red. masses --      2.9371                 4.4323                 3.6480
 Frc consts  --      0.5627                 0.8946                 0.7500
 IR Inten    --     57.2554                 5.7082                 4.2706

                     31                     32                     33
                      A                      A                      A
 Frequencies --    610.8399               642.6319               687.2442
 Red. masses --      2.7343                 3.0982                 8.6441
 Frc consts  --      0.6011                 0.7538                 2.4054
 IR Inten    --      3.5546                45.8736                 4.2940

                     34                     35                     36
                      A                      A                      A
 Frequencies --    715.4093               727.2074               761.5970
 Red. masses --      5.0834                 5.3854                 6.7288
 Frc consts  --      1.5329                 1.6780                 2.2995
 IR Inten    --     14.9421                14.0767                 2.2492

                     37                     38                     39
                      A                      A                      A
 Frequencies --    797.0105               845.4877               872.3268
 Red. masses --      1.3512                 1.4536                 3.6591
 Frc consts  --      0.5057                 0.6122                 1.6405
 IR Inten    --      9.8063                25.9143                 9.9416

                     40                     41                     42
                      A                      A                      A
 Frequencies --    891.8577               896.4752               921.3578
 Red. masses --      1.6965                 2.4452                 3.0865
 Frc consts  --      0.7951                 1.1578                 1.5437
 IR Inten    --     15.4682                 5.3034                17.4826

                     43                     44                     45
                      A                      A                      A
 Frequencies --    974.1851              1003.8981              1017.5496
 Red. masses --      1.6562                 1.6921                 5.4521
 Frc consts  --      0.9261                 1.0047                 3.3260
 IR Inten    --      4.1370                15.0939                16.7564

                     46                     47                     48
                      A                      A                      A
 Frequencies --   1037.7654              1068.6947              1078.6097
 Red. masses --      2.1425                 1.7010                 2.9326
 Frc consts  --      1.3594                 1.1446                 2.0102
 IR Inten    --     12.7830                33.3488                26.3620

                     49                     50                     51
                      A                      A                      A
 Frequencies --   1084.0933              1111.2081              1114.8153
 Red. masses --      3.4025                 1.4169                 2.1529
 Frc consts  --      2.3561                 1.0308                 1.5765
 IR Inten    --     21.5077                 0.9187                30.0190

                     52                     53                     54
                      A                      A                      A
 Frequencies --   1147.9909              1207.5351              1218.8543
 Red. masses --      2.0763                 1.1757                 3.1055
 Frc consts  --      1.6122                 1.0101                 2.7182
 IR Inten    --      4.3880                17.0232               146.6672

                     55                     56                     57
                      A                      A                      A
 Frequencies --   1255.5573              1270.6400              1287.0068
 Red. masses --      1.7033                 1.1549                 1.5899
 Frc consts  --      1.5820                 1.0986                 1.5516
 IR Inten    --     24.0342                 3.6143                24.8915

                     58                     59                     60
                      A                      A                      A
 Frequencies --   1293.2872              1307.4613              1316.9842
 Red. masses --      1.3334                 1.1947                 4.0617
 Frc consts  --      1.3140                 1.2033                 4.1507
 IR Inten    --     34.1103                 4.5882                14.5797

                     61                     62                     63
                      A                      A                      A
 Frequencies --   1350.2868              1356.3249              1368.4876
 Red. masses --      1.3179                 3.5412                 2.4855
 Frc consts  --      1.4157                 3.8382                 2.7425
 IR Inten    --     13.8303                62.6793               163.3216

                     64                     65                     66
                      A                      A                      A
 Frequencies --   1369.7622              1396.5059              1432.6963
 Red. masses --      1.2911                 1.8817                 1.2471
 Frc consts  --      1.4273                 2.1622                 1.5082
 IR Inten    --      2.3666                83.3869                16.4393

                     67                     68                     69
                      A                      A                      A
 Frequencies --   1440.6167              1442.9153              1451.3432
 Red. masses --      1.2525                 1.2825                 3.4632
 Frc consts  --      1.5315                 1.5732                 4.2981
 IR Inten    --      3.1156                24.2033                55.3682

                     70                     71                     72
                      A                      A                      A
 Frequencies --   1501.5131              1512.1385              1518.1605
 Red. masses --      1.6422                 1.4593                 1.1790
 Frc consts  --      2.1814                 1.9660                 1.6010
 IR Inten    --     13.1551                49.8004                 1.0767

                     73                     74                     75
                      A                      A                      A
 Frequencies --   1522.6755              1531.5984              1547.0981
 Red. masses --      1.0502                 1.0558                 1.0874
 Frc consts  --      1.4346                 1.4592                 1.5335
 IR Inten    --      6.9862                 6.4871                 4.9759

                     76                     77                     78
                      A                      A                      A
 Frequencies --   1554.6384              1623.5791              1659.3868
 Red. masses --      3.5504                 5.7566                 1.4992
 Frc consts  --      5.0558                 8.9405                 2.4322
 IR Inten    --    257.0958                27.3133                65.9849

                     79                     80                     81
                      A                      A                      A
 Frequencies --   1683.7081              1819.7670              3025.9930
 Red. masses --      3.5106                 9.4579                 1.0714
 Frc consts  --      5.8636                18.4535                 5.7802
 IR Inten    --    104.6953               633.5236                34.7728

                     82                     83                     84
                      A                      A                      A
 Frequencies --   3045.0077              3047.3007              3067.4719
 Red. masses --      1.0683                 1.0454                 1.0831
 Frc consts  --      5.8362                 5.7197                 6.0046
 IR Inten    --     14.6214                22.3532                28.5729

                     85                     86                     87
                      A                      A                      A
 Frequencies --   3073.9908              3108.9264              3115.6653
 Red. masses --      1.0602                 1.0936                 1.0953
 Frc consts  --      5.9026                 6.2279                 6.2645
 IR Inten    --     34.3204                11.6483                10.8113

                     88                     89                     90
                      A                      A                      A
 Frequencies --   3124.6591              3141.3348              3176.8153
 Red. masses --      1.1042                 1.1030                 1.0942
 Frc consts  --      6.3521                 6.4126                 6.5063
 IR Inten    --     49.3559                24.9654                 8.6448

                     91                     92                     93
                      A                      A                      A
 Frequencies --   3200.4959              3203.6177              3553.0445
 Red. masses --      1.0906                 1.0907                 1.0479
 Frc consts  --      6.5820                 6.5955                 7.7941
 IR Inten    --      5.4383                 1.7036                35.1666

                     94                     95                     96
                      A                      A                      A
 Frequencies --   3602.1063              3669.5147              3711.9774
 Red. masses --      1.0769                 1.0991                 1.0661
 Frc consts  --      8.2329                 8.7200                 8.6545
 IR Inten    --     31.0379                30.3527                47.3488

 - Thermochemistry -
 -------------------
 Temperature   298.150 Kelvin.  Pressure   1.00000 Atm.
 Atom     1 has atomic number  6 and mass  12.00000

 Molecular mass:   268.08816 amu.
 Principal axes and moments of inertia in atomic units:
                           1         2         3
     Eigenvalues --  2881.947687276.144137625.54109
           X            0.99987   0.01389  -0.00808
           Y           -0.01400   0.99980  -0.01399
           Z            0.00788   0.01411   0.99987
 This molecule is an asymmetric top.
 Rotational symmetry number  1.
 Warning -- assumption of classical behavior for rotation
           may cause significant error
 Rotational temperatures (Kelvin)      0.03005     0.01190     0.01136
 Rotational constants (GHZ):           0.62622     0.24804     0.23667
 Zero-point vibrational energy     727014.1 (Joules/Mol)
                                  173.76053 (Kcal/Mol)
 Warning -- explicit consideration of  31 degrees of freedom as
           vibrations may cause significant error
 Vibrational temperatures:     39.07    57.40    84.66    95.34   134.52
          (Kelvin)            175.49   222.25   243.89   283.30   320.31
                              339.46   385.34   389.89   422.57   472.75
                              482.56   508.66   520.68   558.54   563.17
                              576.80   608.70   654.88   670.32   681.60
                              772.42   791.50   820.42   842.09   849.92
                              878.86   924.60   988.79  1029.31  1046.29
                             1095.77  1146.72  1216.47  1255.08  1283.18
                             1289.83  1325.63  1401.64  1444.39  1464.03
                             1493.11  1537.61  1551.88  1559.77  1598.78
                             1603.97  1651.70  1737.37  1753.66  1806.47
                             1828.17  1851.72  1860.75  1881.15  1894.85
                             1942.76  1951.45  1968.95  1970.78  2009.26
                             2061.33  2072.73  2076.03  2088.16  2160.34
                             2175.63  2184.29  2190.79  2203.63  2225.93
                             2236.78  2335.97  2387.49  2422.48  2618.24
                             4353.73  4381.09  4384.39  4413.41  4422.79
                             4473.05  4482.75  4495.69  4519.68  4570.73
                             4604.80  4609.29  5112.04  5182.63  5279.61
                             5340.71

 Zero-point correction=                           0.276905 (Hartree/Particle)
 Thermal correction to Energy=                    0.294661
 Thermal correction to Enthalpy=                  0.295606
 Thermal correction to Gibbs Free Energy=         0.230985
 Sum of electronic and zero-point Energies=          -1200.063330
 Sum of electronic and thermal Energies=             -1200.045573
 Sum of electronic and thermal Enthalpies=           -1200.044629
 Sum of electronic and thermal Free Energies=        -1200.109249

                     E (Thermal)             CV                S
                      KCal/Mol        Cal/Mol-Kelvin    Cal/Mol-Kelvin
 Total                  184.903             68.254            136.005
 Electronic               0.000              0.000              0.000
 Translational            0.889              2.981             42.658
 Rotational               0.889              2.981             33.436
 Vibrational            183.125             62.292             59.911
 Vibration     1          0.593              1.984              6.027
 Vibration     2          0.594              1.981              5.264
 Vibration     3          0.596              1.974              4.496
 Vibration     4          0.598              1.970              4.261
 Vibration     5          0.603              1.954              3.586
 Vibration     6          0.609              1.931              3.069
 Vibration     7          0.620              1.898              2.616
 Vibration     8          0.625              1.880              2.441
 Vibration     9          0.636              1.844              2.162
 Vibration    10          0.648              1.807              1.938
 Vibration    11          0.655              1.786              1.833
 Vibration    12          0.673              1.732              1.610
 Vibration    13          0.675              1.727              1.590
 Vibration    14          0.688              1.685              1.453
 Vibration    15          0.712              1.618              1.267
 Vibration    16          0.717              1.605              1.234
 Vibration    17          0.730              1.568              1.150
 Vibration    18          0.736              1.551              1.114
 Vibration    19          0.756              1.495              1.007
 Vibration    20          0.759              1.489              0.995
 Vibration    21          0.767              1.468              0.959
 Vibration    22          0.785              1.420              0.882
 Vibration    23          0.813              1.349              0.780
 Vibration    24          0.823              1.326              0.749
 Vibration    25          0.831              1.308              0.727
 Vibration    26          0.892              1.169              0.572
 Vibration    27          0.905              1.139              0.544
 Vibration    28          0.926              1.096              0.504
 Vibration    29          0.942              1.063              0.476
 Vibration    30          0.948              1.052              0.466
 Vibration    31          0.970              1.009              0.431

 Optimization completed.
    -- Stationary point found.
 Normal termination of Gaussian 16 at Fri Dec 11 23:07:58 2020.

 ----------------------------------------------------------------------
 # B3LYP/6-311++G(d,p) empiricaldispersion=gd3bj scf=xqc pop=npa geom=c
 heck
 ----------------------------------------------------------------------

 --------------------------------------
 CID_66105688_JID_8869_Energie_neutraal
 --------------------------------------
 Structure from the checkpoint file:  "JID_8869.chk"
 Charge =  0 Multiplicity = 1

 SCF Done:  E(RB3LYP) =  -1200.61014260     A.U. after   17 cycles
 Normal termination of Gaussian 16 at Fri Dec 11 23:14:48 2020.

 ----------------------------------------------------------------------
 # B3LYP/6-311++G(d,p) empiricaldispersion=gd3bj scf=xqc pop=npa geom=c
 heck
 ----------------------------------------------------------------------

 ------------------------------------
 CID_66105688_JID_8869_Energie_kation
 ------------------------------------
 Structure from the checkpoint file:  "JID_8869.chk"
 Charge =  1 Multiplicity = 2

 SCF Done:  E(UB3LYP) =  -1200.33447726     A.U. after   26 cycles
 Normal termination of Gaussian 16 at Fri Dec 11 23:29:11 2020.
 Gaussian 16:  ES64L-G16RevA.03 25-Dec-2016

 ----------------------------------------------------------------------
 # B3LYP/6-311++G(d,p) empiricaldispersion=gd3bj scf=xqc pop=npa geom=c
 heck
 ----------------------------------------------------------------------

 -----------------------------------
 CID_66105688_JID_8869_Energie_anion
 -----------------------------------
 Structure from the checkpoint file:  "JID_8869.chk"
 Charge = -1 Multiplicity = 2

                         Standard orientation:
 ---------------------------------------------------------------------
 Center     Atomic      Atomic             Coordinates (Angstroms)
 Number     Number       Type             X           Y           Z
 ---------------------------------------------------------------------
      1          6           0       -2.831488   -2.440134    0.346048
      2          6           0       -3.180545   -0.964581    0.146807
      3          6           0       -2.798266   -0.069547    1.342771
      4          6           0       -1.445647   -0.372401    2.023317
      5          8           0       -0.902414    0.778395    2.661815
      6         16           0       -2.551343   -0.327175   -1.504029
      7          6           0       -0.902331    0.224612   -1.106385
      8          6           0        0.159038   -0.689195   -1.102727
      9          6           0        1.427882   -0.321551   -0.673201
     10          6           0        1.637006    0.995068   -0.228780
     11          6           0        0.609275    1.928467   -0.265546
     12          6           0       -0.669591    1.573034   -0.735573
     13          7           0       -1.655200    2.536243   -0.852252
     14          8           0        2.875899    1.389487    0.184228
     15          6           0        3.672323    0.356208    0.776246
     16          6           0        3.698130   -0.944662   -0.022444
     17          8           0        4.655620   -1.699787   -0.017075
     18          7           0        2.530703   -1.196548   -0.689858
     19          1           0       -1.749385   -2.593162    0.398879
     20          1           0       -3.217778   -3.047801   -0.476886
     21          1           0       -3.268950   -2.809363    1.282762
     22          1           0       -4.262160   -0.880539   -0.007793
     23          1           0       -2.793011    0.978461    1.030426
     24          1           0       -3.592841   -0.154019    2.095482
     25          1           0       -1.581306   -1.119696    2.811684
     26          1           0       -0.727327   -0.783584    1.308821
     27          1           0       -0.483706    1.303738    1.960261
     28          1           0       -0.028595   -1.709298   -1.424123
     29          1           0        0.826593    2.948963    0.035329
     30          1           0       -1.592126    3.334801   -0.236512
     31          1           0       -2.592833    2.178161   -0.987287
     32          1           0        3.304695    0.139484    1.790601
     33          1           0        4.687986    0.743917    0.842177
     34          1           0        2.476152   -2.069797   -1.199547
 ---------------------------------------------------------------------

 SCF Done:  E(UB3LYP) =  -1200.60543581     A.U. after   33 cycles
 SCF Done:  E(UB3LYP) =  -1200.60543581     a.u. after    1 cycles

 The electronic state is 2-A.
 Alpha  occ. eigenvalues --  -88.72365 -19.05498 -19.01224 -19.00720 -14.26076
 Alpha  occ. eigenvalues --  -14.21423 -10.18872 -10.14542 -10.11188 -10.11025
 Alpha  occ. eigenvalues --  -10.10441 -10.10268 -10.09237 -10.06969 -10.06158
 Alpha  occ. eigenvalues --  -10.06023 -10.05516 -10.05277  -7.80902  -5.77281
 Alpha  occ. eigenvalues --   -5.76924  -5.76320  -0.97958  -0.95321  -0.91284
 Alpha  occ. eigenvalues --   -0.84925  -0.81932  -0.73392  -0.70914  -0.66614
 Alpha  occ. eigenvalues --   -0.63365  -0.62761  -0.61189  -0.57764  -0.54436
 Alpha  occ. eigenvalues --   -0.52380  -0.51927  -0.47265  -0.45865  -0.44574
 Alpha  occ. eigenvalues --   -0.41480  -0.41275  -0.40765  -0.40349  -0.37566
 Alpha  occ. eigenvalues --   -0.36062  -0.35780  -0.34093  -0.33773  -0.32838
 Alpha  occ. eigenvalues --   -0.32230  -0.31976  -0.31763  -0.30953  -0.29844
 Alpha  occ. eigenvalues --   -0.28891  -0.28041  -0.26852  -0.26064  -0.24431
 Alpha  occ. eigenvalues --   -0.23739  -0.23127  -0.22688  -0.22409  -0.20283
 Alpha  occ. eigenvalues --   -0.17571  -0.16822  -0.16447  -0.13016  -0.11955
 Alpha  occ. eigenvalues --   -0.09064   0.04648
 Alpha virt. eigenvalues --    0.06690   0.07377   0.07752   0.08341   0.08614
 Alpha virt. eigenvalues --    0.09240   0.09573   0.10075   0.10767   0.11458
 Alpha virt. eigenvalues --    0.11580   0.12373   0.12747   0.13156   0.13642

  Beta  occ. eigenvalues --  -88.72370 -19.05454 -19.01219 -19.00732 -14.26064
  Beta  occ. eigenvalues --  -14.21420 -10.18875 -10.14527 -10.11059 -10.10882
  Beta  occ. eigenvalues --  -10.10442 -10.10357 -10.09129 -10.06810 -10.06144
  Beta  occ. eigenvalues --  -10.06008 -10.05244 -10.05169  -7.80905  -5.77285
  Beta  occ. eigenvalues --   -5.76931  -5.76324  -0.97832  -0.95305  -0.91268
  Beta  occ. eigenvalues --   -0.84916  -0.81891  -0.73115  -0.70762  -0.66367
  Beta  occ. eigenvalues --   -0.63180  -0.62618  -0.61114  -0.57551  -0.54309
  Beta  occ. eigenvalues --   -0.52311  -0.51745  -0.47078  -0.45722  -0.44479
  Beta  occ. eigenvalues --   -0.41377  -0.41166  -0.40704  -0.40240  -0.37466
  Beta  occ. eigenvalues --   -0.35993  -0.35719  -0.34022  -0.33701  -0.32757
  Beta  occ. eigenvalues --   -0.32071  -0.31923  -0.31628  -0.30849  -0.29566
  Beta  occ. eigenvalues --   -0.28585  -0.27958  -0.26760  -0.25905  -0.24349
  Beta  occ. eigenvalues --   -0.23608  -0.22908  -0.22572  -0.22345  -0.20065
  Beta  occ. eigenvalues --   -0.17459  -0.16692  -0.16141  -0.12126  -0.11632
  Beta  occ. eigenvalues --   -0.08523
  Beta virt. eigenvalues --    0.07048   0.07529   0.07787   0.08340   0.08755
  Beta virt. eigenvalues --    0.08912   0.09720   0.09928   0.10277   0.10814
  Beta virt. eigenvalues --    0.11522   0.11696   0.12403   0.12719   0.13185

 Mulliken charges and spin densities:
               1          2
     1  C   -0.232632  -0.403415
     2  C    0.295236  -0.472753
     3  C    0.039361  -0.303392
     4  C   -0.282751  -0.098163
     5  O   -0.283233  -0.004725
     6  S    0.067730  -0.334018
     7  C    1.345940  -0.015860
     8  C   -1.078898   0.318145
     9  C    0.372552   0.040349
    10  C   -0.644950   0.178461
    11  C   -0.403149   0.219543
    12  C   -0.436930  -0.084360
    13  N   -0.248472  -0.006427
    14  O   -0.106718   0.005882
    15  C    0.037263  -0.178679
    16  C   -0.038083   0.081576
    17  O   -0.364060  -0.000470
    18  N   -0.159646  -0.004821
    19  H    0.149835  -0.002457
    20  H   -0.116648   0.248701
    21  H    0.012338   0.116116
    22  H   -0.605451   0.861626
    23  H    0.184778   0.009107
    24  H   -0.234442   0.409705
    25  H    0.174971  -0.005829
    26  H    0.191153   0.018810
    27  H    0.337138   0.004043
    28  H    0.016414   0.129993
    29  H    0.140326   0.013562
    30  H    0.222627   0.011686
    31  H    0.137800   0.083040
    32  H    0.155463   0.023492
    33  H    0.122953   0.065464
    34  H    0.232188   0.076069
 Sum of Mulliken charges =  -1.00000   1.00000

 Dipole moment (field-independent basis, Debye):
    X=              3.1493    Y=              1.9819    Z=              1.0596  Tot=              3.8690
 Quadrupole moment (field-independent basis, Debye-Ang):
   XX=           -200.8670   YY=           -135.4982   ZZ=           -146.1203
   XY=             -1.1767   XZ=              0.8884   YZ=              0.0058

 Summary of Natural Population Analysis:

                                       Natural Population
                Natural  -----------------------------------------------
    Atom  No    Charge         Core      Valence    Rydberg      Total
 -----------------------------------------------------------------------
      C    1   -0.29197      0.99963     2.28509    0.00725     3.29197
      C    2   -0.14931      0.99956     2.13388    0.01587     3.14931
      C    3   -0.21212      0.99959     2.20078    0.01175     3.21212
      C    4   -0.01631      0.99959     2.00393    0.01279     3.01631
      O    5   -0.37592      0.99990     3.37011    0.00591     4.37592
      S    6    0.09117      4.99955     2.89062    0.01866     7.90883
      C    7   -0.10505      0.99937     2.09287    0.01281     3.10505
      C    8   -0.05233      0.99948     2.04265    0.01020     3.05233
      C    9    0.01155      0.99943     1.97747    0.01155     2.98845
      C   10    0.20259      0.99935     1.78283    0.01523     2.79741
      C   11   -0.14305      0.99949     2.13469    0.00886     3.14305
      C   12    0.07827      0.99943     1.91031    0.01199     2.92173
      N   13   -0.40200      0.99970     2.89361    0.00870     3.90200
      O   14   -0.27238      0.99986     3.26345    0.00906     4.27238
      C   15   -0.04703      0.99954     2.03656    0.01092     3.04703
      C   16    0.32424      0.99969     1.65405    0.02201     2.67576
      O   17   -0.32493      0.99988     3.31885    0.00621     4.32493
      N   18   -0.29565      0.99964     2.78720    0.00881     3.79565
      H   19    0.09841      0.00000     0.40045    0.00114     0.40159
      H   20    0.10324      0.00000     0.39560    0.00116     0.39676
      H   21    0.09701      0.00000     0.40205    0.00094     0.40299
      H   22    0.10482      0.00000     0.39061    0.00456     0.39518
      H   23    0.10432      0.00000     0.39416    0.00152     0.39568
      H   24    0.10019      0.00000     0.39867    0.00115     0.39981
      H   25    0.07914      0.00000     0.41977    0.00109     0.42086
      H   26    0.08873      0.00000     0.40980    0.00147     0.41127
      H   27    0.23548      0.00000     0.26198    0.00254     0.26452
      H   28    0.09952      0.00000     0.39913    0.00135     0.40048
      H   29    0.10062      0.00000     0.39797    0.00140     0.39938
      H   30    0.18246      0.00000     0.31616    0.00139     0.31754
      H   31    0.19540      0.00000     0.30225    0.00236     0.30460
      H   32    0.09229      0.00000     0.40600    0.00171     0.40771
      H   33    0.10074      0.00000     0.39765    0.00161     0.39926
      H   34    0.19787      0.00000     0.29917    0.00296     0.30213
 =======================================================================
   * Total *    0.00000     21.99268    48.77040    0.23693    71.00000

 Normal termination of Gaussian 16 at Fri Dec 11 23:47:27 2020.
