 Gaussian 16, Revision A.03,

 -----------------------------------------------------------
 # opt freq B3LYP/6-31G(d) empiricaldispersion=gd3bj scf=xqc
 -----------------------------------------------------------

 ------------------------------
 CID_81825515_JID_8172_neutraal
 ------------------------------
 Symbolic Z-matrix:
 Charge =  0 Multiplicity = 1

 SCF Done:  E(RB3LYP) =  -1198.98352388     A.U. after   15 cycles
 SCF Done:  E(RB3LYP) =  -1198.98968046     A.U. after   13 cycles
 SCF Done:  E(RB3LYP) =  -1198.98858046     A.U. after   15 cycles
 SCF Done:  E(RB3LYP) =  -1198.98990945     A.U. after   13 cycles
 SCF Done:  E(RB3LYP) =  -1198.99245892     A.U. after   13 cycles
 SCF Done:  E(RB3LYP) =  -1198.99324144     A.U. after   12 cycles
 SCF Done:  E(RB3LYP) =  -1198.99386218     A.U. after   13 cycles
 SCF Done:  E(RB3LYP) =  -1198.99442042     A.U. after   13 cycles
 SCF Done:  E(RB3LYP) =  -1198.99373029     A.U. after   15 cycles
 SCF Done:  E(RB3LYP) =  -1198.99550191     A.U. after   12 cycles
 SCF Done:  E(RB3LYP) =  -1198.99615524     A.U. after   10 cycles
 SCF Done:  E(RB3LYP) =  -1198.99615806     A.U. after    9 cycles
 SCF Done:  E(RB3LYP) =  -1198.99615863     A.U. after    8 cycles
 SCF Done:  E(RB3LYP) =  -1198.99615877     A.U. after    8 cycles
 SCF Done:  E(RB3LYP) =  -1198.99615880     A.U. after    7 cycles
 Optimization completed.
    -- Stationary point found.
 Normal termination of Gaussian 16 at Fri Dec 11 19:22:07 2020.

 --------------------------------------------------------------------
 #N Geom=AllCheck Guess=TCheck SCRF=Check GenChk RB3LYP/6-31G(d) Freq
 --------------------------------------------------------------------

 Structure from the checkpoint file:  "JID_8172.chk"
 ------------------------------
 CID_81825515_JID_8172_neutraal
 ------------------------------
 Charge =  0 Multiplicity = 1

 SCF Done:  E(RB3LYP) =  -1198.99615880     A.U. after    1 cycles

  Exact polarizability: 201.237  17.386 125.484  -1.971   8.999 134.550
 Approx polarizability: 308.725  38.796 178.109  -5.970  20.081 246.909

                      1                      2                      3
                      A                      A                      A
 Frequencies --     18.3341                25.6686                52.8234
 Red. masses --      5.8161                 5.1434                 4.9875
 Frc consts  --      0.0012                 0.0020                 0.0082
 IR Inten    --      0.6402                 0.3670                 1.2945

                      4                      5                      6
                      A                      A                      A
 Frequencies --     65.0992                81.8411               110.0342
 Red. masses --      4.6961                 2.9111                 6.3021
 Frc consts  --      0.0117                 0.0115                 0.0450
 IR Inten    --      1.4082                 1.6003                 4.2362

                      7                      8                      9
                      A                      A                      A
 Frequencies --    121.0541               135.1594               159.5524
 Red. masses --     10.5812                 3.0250                 3.7742
 Frc consts  --      0.0914                 0.0326                 0.0566
 IR Inten    --      9.1856                 1.9557                 1.1204

                     10                     11                     12
                      A                      A                      A
 Frequencies --    197.1153               205.1182               252.4315
 Red. masses --      5.5742                 4.9852                 5.6684
 Frc consts  --      0.1276                 0.1236                 0.2128
 IR Inten    --      0.5115                 2.1744                 2.9091

                     13                     14                     15
                      A                      A                      A
 Frequencies --    269.9452               288.6757               321.5181
 Red. masses --      6.0623                 4.4235                 3.1481
 Frc consts  --      0.2603                 0.2172                 0.1917
 IR Inten    --      0.4263                 0.3209                 1.4241

                     16                     17                     18
                      A                      A                      A
 Frequencies --    341.4395               394.9158               411.8529
 Red. masses --      3.8801                 4.8765                 3.0673
 Frc consts  --      0.2665                 0.4481                 0.3065
 IR Inten    --      5.8011                 8.3485                 0.1562

                     19                     20                     21
                      A                      A                      A
 Frequencies --    422.8033               438.5292               488.1658
 Red. masses --      5.4139                 5.8671                 8.6637
 Frc consts  --      0.5702                 0.6648                 1.2164
 IR Inten    --      5.9176                10.3529                36.8741

                     22                     23                     24
                      A                      A                      A
 Frequencies --    529.0342               558.8578               561.1330
 Red. masses --      5.0826                 2.7147                 7.1630
 Frc consts  --      0.8381                 0.4996                 1.3289
 IR Inten    --     18.5065                 4.6204                 0.2302

                     25                     26                     27
                      A                      A                      A
 Frequencies --    578.5844               590.8240               614.6082
 Red. masses --      5.1417                 4.0781                 3.0080
 Frc consts  --      1.0141                 0.8387                 0.6695
 IR Inten    --     38.0518                62.9263                 6.4294

                     28                     29                     30
                      A                      A                      A
 Frequencies --    653.8750               728.1025               736.1825
 Red. masses --      7.3728                 3.8442                 1.9145
 Frc consts  --      1.8573                 1.2007                 0.6113
 IR Inten    --      0.2664                 6.4553                93.8339

                     31                     32                     33
                      A                      A                      A
 Frequencies --    758.2427               807.0731               811.2832
 Red. masses --      3.4236                 1.6139                 5.9507
 Frc consts  --      1.1597                 0.6194                 2.3076
 IR Inten    --     54.8508                 1.2082                34.2953

                     34                     35                     36
                      A                      A                      A
 Frequencies --    860.1344               866.5076               899.6637
 Red. masses --      1.4419                 1.3036                 1.1869
 Frc consts  --      0.6285                 0.5767                 0.5660
 IR Inten    --     18.3915                 8.4331                 0.7276

                     37                     38                     39
                      A                      A                      A
 Frequencies --    967.0463               987.2864               988.9788
 Red. masses --      2.0488                 1.3187                 2.3698
 Frc consts  --      1.1289                 0.7573                 1.3656
 IR Inten    --     18.4650                 0.3316                 7.0279

                     40                     41                     42
                      A                      A                      A
 Frequencies --    993.8345               996.3423              1025.0888
 Red. masses --      1.3967                 3.2558                 3.2419
 Frc consts  --      0.8128                 1.9042                 2.0071
 IR Inten    --      2.6701                15.8033                 5.9609

                     43                     44                     45
                      A                      A                      A
 Frequencies --   1032.8886              1040.1372              1049.3461
 Red. masses --      2.1346                 3.6621                 2.5204
 Frc consts  --      1.3417                 2.3343                 1.6352
 IR Inten    --     33.3504                11.3001                 5.3295

                     46                     47                     48
                      A                      A                      A
 Frequencies --   1056.8090              1092.8672              1121.9524
 Red. masses --      3.3218                 4.2553                 1.2043
 Frc consts  --      2.1858                 2.9944                 0.8932
 IR Inten    --     37.9206                57.7197                 9.2855

                     49                     50                     51
                      A                      A                      A
 Frequencies --   1133.9593              1140.4627              1144.1951
 Red. masses --      2.9032                 1.4221                 2.8055
 Frc consts  --      2.1995                 1.0898                 2.1640
 IR Inten    --     14.6838                22.2720               223.4730

                     52                     53                     54
                      A                      A                      A
 Frequencies --   1197.3049              1212.9052              1221.6272
 Red. masses --      1.7323                 1.2036                 1.7177
 Frc consts  --      1.4631                 1.0433                 1.5103
 IR Inten    --     38.7384                 2.4607                40.8944

                     55                     56                     57
                      A                      A                      A
 Frequencies --   1229.0185              1242.7128              1262.0315
 Red. masses --      3.4643                 1.6644                 1.2512
 Frc consts  --      3.0831                 1.5144                 1.1741
 IR Inten    --      1.6671                35.7260                 7.0717

                     58                     59                     60
                      A                      A                      A
 Frequencies --   1272.0221              1298.7867              1320.2209
 Red. masses --      1.5482                 1.2725                 4.6837
 Frc consts  --      1.4759                 1.2647                 4.8099
 IR Inten    --     18.9252                 1.0365               125.7754

                     61                     62                     63
                      A                      A                      A
 Frequencies --   1338.6011              1346.9192              1349.1867
 Red. masses --      1.4054                 1.2127                 5.5155
 Frc consts  --      1.4837                 1.2963                 5.9153
 IR Inten    --      5.6205                 4.7142                 1.7782

                     64                     65                     66
                      A                      A                      A
 Frequencies --   1358.0242              1387.9763              1429.0504
 Red. masses --      1.4386                 1.3209                 1.2887
 Frc consts  --      1.5632                 1.4993                 1.5505
 IR Inten    --      7.2592                 7.1077                22.1969

                     67                     68                     69
                      A                      A                      A
 Frequencies --   1440.3324              1443.1792              1483.9585
 Red. masses --      2.5142                 1.3259                 1.0895
 Frc consts  --      3.0731                 1.6270                 1.4136
 IR Inten    --     18.7326                 5.1310                13.0321

                     70                     71                     72
                      A                      A                      A
 Frequencies --   1531.8766              1534.9532              1537.1748
 Red. masses --      1.0923                 1.1730                 1.9370
 Frc consts  --      1.5103                 1.6283                 2.6966
 IR Inten    --      0.5538                 1.6529                 4.8966

                     73                     74                     75
                      A                      A                      A
 Frequencies --   1562.6325              1618.6000              1655.3147
 Red. masses --      1.1153                 6.9551                 5.5239
 Frc consts  --      1.6045                10.7357                 8.9179
 IR Inten    --     10.5567                 1.3590                 1.1310

                     76                     77                     78
                      A                      A                      A
 Frequencies --   2357.0495              3007.1268              3045.1688
 Red. masses --     12.6796                 1.0674                 1.0568
 Frc consts  --     41.5042                 5.6871                 5.7736
 IR Inten    --     11.7131                46.6343                47.4624

                     79                     80                     81
                      A                      A                      A
 Frequencies --   3078.9391              3090.5588              3094.8319
 Red. masses --      1.0624                 1.1038                 1.0960
 Frc consts  --      5.9341                 6.2116                 6.1847
 IR Inten    --      9.7688                45.3980                43.8280

                     82                     83                     84
                      A                      A                      A
 Frequencies --   3101.1543              3131.6952              3134.4630
 Red. masses --      1.0598                 1.1015                 1.0916
 Frc consts  --      6.0049                 6.3650                 6.3189
 IR Inten    --      0.7995                14.7379                45.3936

                     85                     86                     87
                      A                      A                      A
 Frequencies --   3161.2881              3220.3112              3221.4009
 Red. masses --      1.1069                 1.0892                 1.0886
 Frc consts  --      6.5173                 6.6550                 6.6562
 IR Inten    --      4.8543                 0.1353                 1.6294

                     88                     89                     90
                      A                      A                      A
 Frequencies --   3232.8157              3234.2049              3506.2719
 Red. masses --      1.0949                 1.0957                 1.0765
 Frc consts  --      6.7420                 6.7527                 7.7978
 IR Inten    --      0.0986                 2.0835                 2.3769

 - Thermochemistry -
 -------------------
 Temperature   298.150 Kelvin.  Pressure   1.00000 Atm.
 Atom     1 has atomic number  6 and mass  12.00000

 Molecular mass:   266.07251 amu.
 Principal axes and moments of inertia in atomic units:
                           1         2         3
     Eigenvalues --  4104.525675330.513348134.57846
           X            0.99965  -0.02663   0.00016
           Y            0.02663   0.99963   0.00601
           Z           -0.00032  -0.00600   0.99998
 This molecule is an asymmetric top.
 Rotational symmetry number  1.
 Warning -- assumption of classical behavior for rotation
           may cause significant error
 Rotational temperatures (Kelvin)      0.02110     0.01625     0.01065
 Rotational constants (GHZ):           0.43970     0.33857     0.22186
 Zero-point vibrational energy     664041.5 (Joules/Mol)
                                  158.70972 (Kcal/Mol)
 Warning -- explicit consideration of  27 degrees of freedom as
           vibrations may cause significant error
 Vibrational temperatures:     26.38    36.93    76.00    93.66   117.75
          (Kelvin)            158.31   174.17   194.46   229.56   283.60
                              295.12   363.19   388.39   415.34   462.59
                              491.26   568.20   592.56   608.32   630.95
                              702.36   761.16   804.07   807.35   832.45
                              850.06   884.28   940.78  1047.58  1059.20
                             1090.94  1161.20  1167.26  1237.54  1246.71
                             1294.42  1391.36  1420.48  1422.92  1429.91
                             1433.51  1474.87  1486.10  1496.53  1509.78
                             1520.51  1572.39  1614.24  1631.51  1640.87
                             1646.24  1722.65  1745.10  1757.65  1768.28
                             1787.99  1815.78  1830.16  1868.66  1899.50
                             1925.95  1937.92  1941.18  1953.89  1996.99
                             2056.08  2072.32  2076.41  2135.09  2204.03
                             2208.46  2211.65  2248.28  2328.80  2381.63
                             3391.27  4326.58  4381.32  4429.91  4446.62
                             4452.77  4461.87  4505.81  4509.79  4548.39
                             4633.31  4634.88  4651.30  4653.30  5044.74

 Zero-point correction=                           0.252920 (Hartree/Particle)
 Thermal correction to Energy=                    0.269812
 Thermal correction to Enthalpy=                  0.270756
 Thermal correction to Gibbs Free Energy=         0.205983
 Sum of electronic and zero-point Energies=          -1198.743239
 Sum of electronic and thermal Energies=             -1198.726347
 Sum of electronic and thermal Enthalpies=           -1198.725403
 Sum of electronic and thermal Free Energies=        -1198.790176

                     E (Thermal)             CV                S
                      KCal/Mol        Cal/Mol-Kelvin    Cal/Mol-Kelvin
 Total                  169.310             63.055            136.328
 Electronic               0.000              0.000              0.000
 Translational            0.889              2.981             42.635
 Rotational               0.889              2.981             33.542
 Vibrational            167.532             57.094             60.151
 Vibration     1          0.593              1.986              6.807
 Vibration     2          0.593              1.985              6.139
 Vibration     3          0.596              1.976              4.709
 Vibration     4          0.597              1.971              4.296
 Vibration     5          0.600              1.962              3.846
 Vibration     6          0.606              1.941              3.268
 Vibration     7          0.609              1.932              3.083
 Vibration     8          0.613              1.918              2.871
 Vibration     9          0.621              1.892              2.555
 Vibration    10          0.636              1.844              2.160
 Vibration    11          0.640              1.833              2.087
 Vibration    12          0.664              1.759              1.714
 Vibration    13          0.674              1.729              1.597
 Vibration    14          0.685              1.695              1.482
 Vibration    15          0.707              1.632              1.302
 Vibration    16          0.721              1.593              1.205
 Vibration    17          0.762              1.481              0.982
 Vibration    18          0.776              1.444              0.920
 Vibration    19          0.785              1.421              0.882
 Vibration    20          0.799              1.386              0.831
 Vibration    21          0.844              1.276              0.688
 Vibration    22          0.884              1.186              0.589
 Vibration    23          0.914              1.120              0.526
 Vibration    24          0.917              1.115              0.522
 Vibration    25          0.935              1.078              0.488
 Vibration    26          0.948              1.051              0.466
 Vibration    27          0.974              1.001              0.425

                           ! Non-Optimized Parameters !
 Normal termination of Gaussian 16 at Fri Dec 11 19:36:22 2020.

 ----------------------------------------------------------------------
 # B3LYP/6-311++G(d,p) empiricaldispersion=gd3bj scf=xqc pop=npa geom=c
 heck
 ----------------------------------------------------------------------

 --------------------------------------
 CID_81825515_JID_8172_Energie_neutraal
 --------------------------------------
 Structure from the checkpoint file:  "JID_8172.chk"
 Charge =  0 Multiplicity = 1

 SCF Done:  E(RB3LYP) =  -1199.24756635     A.U. after   17 cycles
 Normal termination of Gaussian 16 at Fri Dec 11 19:44:01 2020.

 ----------------------------------------------------------------------
 # B3LYP/6-311++G(d,p) empiricaldispersion=gd3bj scf=xqc pop=npa geom=c
 heck
 ----------------------------------------------------------------------

 ------------------------------------
 CID_81825515_JID_8172_Energie_kation
 ------------------------------------
 Structure from the checkpoint file:  "JID_8172.chk"
 Charge =  1 Multiplicity = 2

 SCF Done:  E(UB3LYP) =  -1198.91101065     A.U. after   33 cycles
 SCF Done:  E(UB3LYP) =  -1198.91101065     a.u. after    1 cycles
 Normal termination of Gaussian 16 at Fri Dec 11 20:05:29 2020.
 Gaussian 16:  ES64L-G16RevA.03 25-Dec-2016

 ----------------------------------------------------------------------
 # B3LYP/6-311++G(d,p) empiricaldispersion=gd3bj scf=xqc pop=npa geom=c
 heck
 ----------------------------------------------------------------------

 -----------------------------------
 CID_81825515_JID_8172_Energie_anion
 -----------------------------------
 Structure from the checkpoint file:  "JID_8172.chk"
 Charge = -1 Multiplicity = 2

                         Standard orientation:
 ---------------------------------------------------------------------
 Center     Atomic      Atomic             Coordinates (Angstroms)
 Number     Number       Type             X           Y           Z
 ---------------------------------------------------------------------
      1          6           0       -0.095589    3.317132    0.742706
      2          6           0       -1.134159    2.936798   -0.343408
      3          6           0        0.054441    2.269860   -1.089207
      4          7           0        0.958023    3.126081   -0.284149
      5          8           0       -2.318789    2.246179   -0.013322
      6          6           0       -2.175682    0.958566    0.556184
      7          6           0       -2.359995   -0.122041   -0.518598
      8         16           0       -1.740549   -1.742713    0.012922
      9          8           0       -2.188766   -1.972114    1.395536
     10          8           0       -2.007578   -2.710165   -1.060256
     11          6           0        0.039460   -1.453087    0.059701
     12          6           0        0.769765   -1.546311   -1.125437
     13          6           0        2.121045   -1.217637   -1.116539
     14          6           0        2.728270   -0.802256    0.080904
     15          6           0        1.987508   -0.742031    1.272940
     16          6           0        0.635867   -1.072620    1.261602
     17          6           0        4.114865   -0.439029    0.087787
     18          7           0        5.236835   -0.134669    0.094319
     19          1           0       -0.070363    2.584191    1.563907
     20          1           0       -0.151380    4.323914    1.170008
     21          1           0       -1.471770    3.825276   -0.879445
     22          1           0        0.143692    1.199044   -0.863590
     23          1           0        0.122180    2.411761   -2.173895
     24          1           0        1.800266    2.660324    0.046232
     25          1           0       -1.204879    0.847615    1.049405
     26          1           0       -2.945030    0.846166    1.323541
     27          1           0       -3.414048   -0.280518   -0.764737
     28          1           0       -1.827222    0.129790   -1.438686
     29          1           0        0.281173   -1.876337   -2.035996
     30          1           0        2.710746   -1.276929   -2.024687
     31          1           0        2.475136   -0.440144    2.193481
     32          1           0        0.042568   -1.045906    2.169045
 ---------------------------------------------------------------------

 SCF Done:  E(UB3LYP) =  -1199.29340997     A.U. after   23 cycles

 The electronic state is 2-A.
 Alpha  occ. eigenvalues --  -88.92638 -19.04910 -18.99899 -18.99833 -14.21166
 Alpha  occ. eigenvalues --  -14.16632 -10.14373 -10.13817 -10.11018 -10.10552
 Alpha  occ. eigenvalues --  -10.10421 -10.06826 -10.06241 -10.06076 -10.05997
 Alpha  occ. eigenvalues --  -10.05917 -10.05852 -10.05792  -7.99016  -5.95323
 Alpha  occ. eigenvalues --   -5.95197  -5.95086  -0.99019  -0.96268  -0.88967
 Alpha  occ. eigenvalues --   -0.84254  -0.77240  -0.74485  -0.70233  -0.65789
 Alpha  occ. eigenvalues --   -0.63584  -0.62935  -0.59325  -0.57672  -0.54129
 Alpha  occ. eigenvalues --   -0.49843  -0.47813  -0.47333  -0.44837  -0.43001
 Alpha  occ. eigenvalues --   -0.42092  -0.40674  -0.37710  -0.37007  -0.36042
 Alpha  occ. eigenvalues --   -0.34699  -0.33666  -0.33317  -0.32885  -0.32059
 Alpha  occ. eigenvalues --   -0.31580  -0.31361  -0.30758  -0.28396  -0.27480
 Alpha  occ. eigenvalues --   -0.26851  -0.26534  -0.24143  -0.23177  -0.22537
 Alpha  occ. eigenvalues --   -0.22383  -0.21824  -0.21008  -0.20004  -0.19403
 Alpha  occ. eigenvalues --   -0.18583  -0.16650  -0.15279  -0.14905  -0.14392
 Alpha  occ. eigenvalues --    0.01461
 Alpha virt. eigenvalues --    0.07015   0.08181   0.08709   0.08820   0.09448
 Alpha virt. eigenvalues --    0.10524   0.10559   0.11127   0.11312   0.12264
 Alpha virt. eigenvalues --    0.13074   0.13555   0.14056   0.14361   0.14694

  Beta  occ. eigenvalues --  -88.92637 -19.04909 -18.99878 -18.99805 -14.21166
  Beta  occ. eigenvalues --  -14.16296 -10.14372 -10.13817 -10.11016 -10.10529
  Beta  occ. eigenvalues --  -10.10421 -10.06865 -10.05970 -10.05867 -10.05819
  Beta  occ. eigenvalues --  -10.05788 -10.05694 -10.05626  -7.99014  -5.95323
  Beta  occ. eigenvalues --   -5.95175  -5.95093  -0.98916  -0.96266  -0.88898
  Beta  occ. eigenvalues --   -0.84253  -0.76725  -0.73967  -0.70111  -0.65103
  Beta  occ. eigenvalues --   -0.63174  -0.62800  -0.59323  -0.57517  -0.53565
  Beta  occ. eigenvalues --   -0.49711  -0.47557  -0.47196  -0.44822  -0.42780
  Beta  occ. eigenvalues --   -0.42078  -0.40463  -0.37533  -0.36880  -0.35933
  Beta  occ. eigenvalues --   -0.34538  -0.33611  -0.33093  -0.32804  -0.31979
  Beta  occ. eigenvalues --   -0.31554  -0.31275  -0.30740  -0.28203  -0.26915
  Beta  occ. eigenvalues --   -0.26590  -0.25827  -0.23977  -0.22672  -0.22418
  Beta  occ. eigenvalues --   -0.21845  -0.21067  -0.20846  -0.19842  -0.19298
  Beta  occ. eigenvalues --   -0.18445  -0.16517  -0.15016  -0.13811  -0.12245
  Beta virt. eigenvalues --    0.06990   0.07547   0.08177   0.08714   0.08842
  Beta virt. eigenvalues --    0.09758   0.10487   0.10572   0.11100   0.11323
  Beta virt. eigenvalues --    0.12301   0.13069   0.13549   0.14100   0.14517

 Mulliken charges and spin densities:
               1          2
     1  C   -0.270857  -0.008890
     2  C   -0.330918  -0.006655
     3  C   -0.350209   0.005149
     4  N   -0.209329   0.002246
     5  O   -0.023432  -0.002808
     6  C   -0.378261   0.011895
     7  C   -0.683854   0.039424
     8  S    0.600996  -0.038182
     9  O   -0.185572   0.008203
    10  O   -0.117131  -0.014598
    11  C   -0.285522   0.210545
    12  C   -0.032067   0.149596
    13  C   -0.630599   0.094752
    14  C    1.782749   0.280089
    15  C   -0.574593   0.119756
    16  C   -0.194412   0.101805
    17  C   -1.691621  -0.134511
    18  N   -0.296584   0.182107
    19  H    0.117925   0.013669
    20  H    0.159083  -0.001730
    21  H    0.180527   0.000304
    22  H    0.444523  -0.017332
    23  H    0.147245   0.002843
    24  H    0.249717   0.003022
    25  H    0.165342  -0.019792
    26  H    0.205844   0.001589
    27  H    0.202935   0.014792
    28  H    0.267687   0.007971
    29  H    0.188204   0.000231
    30  H    0.171480  -0.002231
    31  H    0.167835  -0.004147
    32  H    0.202868   0.000892
 Sum of Mulliken charges =  -1.00000   1.00000

 Dipole moment (field-independent basis, Debye):
    X=             -6.5266    Y=              4.9869    Z=             -0.3197  Tot=              8.2199
 Quadrupole moment (field-independent basis, Debye-Ang):
   XX=           -191.3289   YY=           -150.6638   ZZ=           -120.8534
   XY=             -9.6362   XZ=              1.3779   YZ=              3.3738

 Summary of Natural Population Analysis:

                                       Natural Population
                Natural  -----------------------------------------------
    Atom  No    Charge         Core      Valence    Rydberg      Total
 -----------------------------------------------------------------------
      C    1   -0.09944      0.99965     2.09056    0.00922     3.09944
      C    2    0.06422      0.99952     1.92275    0.01351     2.93578
      C    3   -0.10470      0.99964     2.09510    0.00996     3.10470
      N    4   -0.34413      0.99976     2.83368    0.01069     3.84413
      O    5   -0.30031      0.99987     3.28954    0.01091     4.30031
      C    6   -0.02515      0.99956     2.01304    0.01255     3.02515
      C    7   -0.29694      0.99959     2.28652    0.01083     3.29694
      S    8    1.04048      4.99916     1.86666    0.09371     6.95952
      O    9   -0.47921      0.99991     3.47220    0.00711     4.47921
      O   10   -0.47261      0.99991     3.46728    0.00542     4.47261
      C   11   -0.07124      0.99935     2.05251    0.01938     3.07124
      C   12   -0.09357      0.99951     2.08493    0.00913     3.09357
      C   13   -0.07170      0.99954     2.06257    0.00959     3.07170
      C   14   -0.02356      0.99942     2.01250    0.01164     3.02356
      C   15   -0.06893      0.99954     2.05953    0.00985     3.06893
      C   16   -0.10121      0.99951     2.09253    0.00917     3.10121
      C   17    0.13860      0.99965     1.84351    0.01825     2.86140
      N   18   -0.15308      0.99979     2.64217    0.01112     3.65308
      H   19    0.08757      0.00000     0.41116    0.00127     0.41243
      H   20    0.08610      0.00000     0.41258    0.00132     0.41390
      H   21    0.09051      0.00000     0.40824    0.00124     0.40949
      H   22    0.10093      0.00000     0.39703    0.00204     0.39907
      H   23    0.08748      0.00000     0.41114    0.00139     0.41252
      H   24    0.18162      0.00000     0.31668    0.00170     0.31838
      H   25    0.09501      0.00000     0.40343    0.00156     0.40499
      H   26    0.09392      0.00000     0.40486    0.00122     0.40608
      H   27    0.11202      0.00000     0.38668    0.00130     0.38798
      H   28    0.11401      0.00000     0.38487    0.00112     0.38599
      H   29    0.10699      0.00000     0.39202    0.00099     0.39301
      H   30    0.09909      0.00000     0.40011    0.00080     0.40091
      H   31    0.09844      0.00000     0.40075    0.00081     0.40156
      H   32    0.10881      0.00000     0.39020    0.00099     0.39119
 =======================================================================
   * Total *    0.00000     21.99289    47.70731    0.29979    70.00000

 Normal termination of Gaussian 16 at Fri Dec 11 20:19:51 2020.
