 Gaussian 16, Revision A.03,

 -----------------------------------------------------------
 # opt freq B3LYP/6-31G(d) empiricaldispersion=gd3bj scf=xqc
 -----------------------------------------------------------

 ------------------------------
 CID_11436957_JID_9069_neutraal
 ------------------------------
 Symbolic Z-matrix:
 Charge =  0 Multiplicity = 1

 SCF Done:  E(RB3LYP) =  -848.646929858     A.U. after   15 cycles
 SCF Done:  E(RB3LYP) =  -848.652255435     A.U. after   13 cycles
 SCF Done:  E(RB3LYP) =  -848.650602426     A.U. after   16 cycles
 SCF Done:  E(RB3LYP) =  -848.653025017     A.U. after   14 cycles
 SCF Done:  E(RB3LYP) =  -848.654497323     A.U. after   12 cycles
 SCF Done:  E(RB3LYP) =  -848.655022007     A.U. after   14 cycles
 SCF Done:  E(RB3LYP) =  -848.654756972     A.U. after   13 cycles
 SCF Done:  E(RB3LYP) =  -848.655094866     A.U. after   12 cycles
 SCF Done:  E(RB3LYP) =  -848.655276995     A.U. after   12 cycles
 SCF Done:  E(RB3LYP) =  -848.655290300     A.U. after   12 cycles
 SCF Done:  E(RB3LYP) =  -848.655324421     A.U. after   10 cycles
 SCF Done:  E(RB3LYP) =  -848.655329784     A.U. after   11 cycles
 SCF Done:  E(RB3LYP) =  -848.655331746     A.U. after   10 cycles
 SCF Done:  E(RB3LYP) =  -848.655333395     A.U. after    9 cycles
 SCF Done:  E(RB3LYP) =  -848.655333617     A.U. after    8 cycles
 SCF Done:  E(RB3LYP) =  -848.655333651     A.U. after    7 cycles
 Optimization completed.
    -- Stationary point found.
 Normal termination of Gaussian 16 at Sun Dec 13 16:18:52 2020.

 --------------------------------------------------------------------
 #N Geom=AllCheck Guess=TCheck SCRF=Check GenChk RB3LYP/6-31G(d) Freq
 --------------------------------------------------------------------

 Structure from the checkpoint file:  "JID_9069.chk"
 ------------------------------
 CID_11436957_JID_9069_neutraal
 ------------------------------
 Charge =  0 Multiplicity = 1

 SCF Done:  E(RB3LYP) =  -848.655333651     A.U. after    1 cycles

  Exact polarizability: 335.592  26.284 193.520  21.683 -20.294 129.727
 Approx polarizability: 485.331  41.350 279.448  53.913 -41.655 203.243

                      1                      2                      3
                      A                      A                      A
 Frequencies --     12.5616                24.6612                43.9106
 Red. masses --      4.2506                 3.5055                 4.5767
 Frc consts  --      0.0004                 0.0013                 0.0052
 IR Inten    --      1.7564                 1.3471                 0.2184

                      4                      5                      6
                      A                      A                      A
 Frequencies --     50.8537                59.3814                69.1988
 Red. masses --      2.2541                 3.1641                 3.5033
 Frc consts  --      0.0034                 0.0066                 0.0099
 IR Inten    --      0.9450                 3.9130                 0.2627

                      7                      8                      9
                      A                      A                      A
 Frequencies --     73.6252               113.3019               119.8701
 Red. masses --      5.1015                 2.2692                 2.2879
 Frc consts  --      0.0163                 0.0172                 0.0194
 IR Inten    --      2.4377                 0.2506                 0.4305

                     10                     11                     12
                      A                      A                      A
 Frequencies --    126.9642               143.4663               164.6799
 Red. masses --      1.8461                 3.5425                 2.2027
 Frc consts  --      0.0175                 0.0430                 0.0352
 IR Inten    --      1.4843                 3.5590                 3.7599

                     13                     14                     15
                      A                      A                      A
 Frequencies --    179.9260               191.6197               208.2846
 Red. masses --      1.9585                 2.1249                 1.0997
 Frc consts  --      0.0374                 0.0460                 0.0281
 IR Inten    --      3.2113                 2.8081                 0.0824

                     16                     17                     18
                      A                      A                      A
 Frequencies --    225.9720               237.1398               251.1157
 Red. masses --      2.9626                 2.9756                 1.2770
 Frc consts  --      0.0891                 0.0986                 0.0474
 IR Inten    --      0.4559                 0.5059                 0.6164

                     19                     20                     21
                      A                      A                      A
 Frequencies --    258.2938               271.0296               273.0604
 Red. masses --      2.0327                 1.3444                 1.8296
 Frc consts  --      0.0799                 0.0582                 0.0804
 IR Inten    --      1.3967                 0.6320                 0.7470

                     22                     23                     24
                      A                      A                      A
 Frequencies --    288.2359               321.4804               342.3746
 Red. masses --      3.5629                 2.8641                 2.8922
 Frc consts  --      0.1744                 0.1744                 0.1997
 IR Inten    --      1.3643                 2.7019                 2.4061

                     25                     26                     27
                      A                      A                      A
 Frequencies --    353.2225               369.8164               381.0993
 Red. masses --      2.6272                 3.9579                 3.9309
 Frc consts  --      0.1931                 0.3189                 0.3364
 IR Inten    --      1.7551                 1.6882                 6.1934

                     28                     29                     30
                      A                      A                      A
 Frequencies --    419.5074               444.6675               466.4721
 Red. masses --      3.0869                 3.6039                 2.9613
 Frc consts  --      0.3201                 0.4199                 0.3796
 IR Inten    --      3.2540                 5.8563                 0.7540

                     31                     32                     33
                      A                      A                      A
 Frequencies --    472.2159               509.3487               537.3715
 Red. masses --      2.7108                 2.4332                 3.9659
 Frc consts  --      0.3562                 0.3719                 0.6747
 IR Inten    --      5.2771                 3.2532                 1.5472

                     34                     35                     36
                      A                      A                      A
 Frequencies --    552.7881               574.6312               642.0553
 Red. masses --      3.6467                 3.8996                 3.4339
 Frc consts  --      0.6565                 0.7587                 0.8340
 IR Inten    --     20.6802                15.1446                 1.7017

                     37                     38                     39
                      A                      A                      A
 Frequencies --    702.8506               761.5805               777.0499
 Red. masses --      4.6279                 4.5106                 4.0959
 Frc consts  --      1.3470                 1.5414                 1.4571
 IR Inten    --     14.7192                 4.7838                24.1982

                     40                     41                     42
                      A                      A                      A
 Frequencies --    833.5079               860.9644               874.4632
 Red. masses --      1.4790                 5.7553                 2.9274
 Frc consts  --      0.6054                 2.5136                 1.3189
 IR Inten    --      1.6215                22.6673                 8.4674

                     43                     44                     45
                      A                      A                      A
 Frequencies --    883.2054               905.3322               914.2086
 Red. masses --      1.7732                 1.3735                 1.9358
 Frc consts  --      0.8149                 0.6633                 0.9532
 IR Inten    --     14.7064                 4.5146                 1.7498

                     46                     47                     48
                      A                      A                      A
 Frequencies --    924.8936               938.6112               939.9636
 Red. masses --      2.3347                 1.6341                 1.6605
 Frc consts  --      1.1767                 0.8482                 0.8644
 IR Inten    --      4.7110                 0.1032                 0.2680

                     49                     50                     51
                      A                      A                      A
 Frequencies --    978.8896               982.3108              1014.1680
 Red. masses --      1.1706                 1.1980                 1.6862
 Frc consts  --      0.6609                 0.6811                 1.0218
 IR Inten    --      0.7822                 0.2498                52.7732

                     52                     53                     54
                      A                      A                      A
 Frequencies --   1016.7141              1027.6817              1052.7462
 Red. masses --      1.7897                 1.7855                 1.1633
 Frc consts  --      1.0900                 1.1110                 0.7596
 IR Inten    --     20.9925                24.1227                32.1538

                     55                     56                     57
                      A                      A                      A
 Frequencies --   1066.2576              1072.4415              1077.2367
 Red. masses --      1.4032                 1.4531                 1.4892
 Frc consts  --      0.9399                 0.9847                 1.0182
 IR Inten    --      0.3150                 1.1551                 1.4220

                     58                     59                     60
                      A                      A                      A
 Frequencies --   1079.0023              1108.0386              1148.2520
 Red. masses --      1.5934                 2.7268                 3.5081
 Frc consts  --      1.0930                 1.9725                 2.7252
 IR Inten    --      3.5903                16.4671               259.3576

                     61                     62                     63
                      A                      A                      A
 Frequencies --   1201.8234              1204.4777              1221.5543
 Red. masses --      2.4067                 2.7898                 2.0992
 Frc consts  --      2.0481                 2.3846                 1.8456
 IR Inten    --    221.6358               180.8777               153.9915

                     64                     65                     66
                      A                      A                      A
 Frequencies --   1238.0689              1243.5311              1286.4876
 Red. masses --      1.6185                 1.7185                 2.7185
 Frc consts  --      1.4617                 1.5657                 2.6508
 IR Inten    --      2.7701                 6.2441                15.0737

                     67                     68                     69
                      A                      A                      A
 Frequencies --   1293.0554              1307.1898              1332.4391
 Red. masses --      3.3180                 3.3064                 1.6236
 Frc consts  --      3.2686                 3.3288                 1.6984
 IR Inten    --    162.4789               119.6440                 9.1883

                     70                     71                     72
                      A                      A                      A
 Frequencies --   1338.6201              1355.3933              1385.6540
 Red. masses --      1.4160                 1.3364                 1.5909
 Frc consts  --      1.4950                 1.4465                 1.7997
 IR Inten    --     17.4438                17.2492                21.6874

                     73                     74                     75
                      A                      A                      A
 Frequencies --   1411.0164              1423.7948              1427.5131
 Red. masses --      1.5346                 1.2804                 1.2879
 Frc consts  --      1.8002                 1.5292                 1.5463
 IR Inten    --     14.1157                17.4609                24.8640

                     76                     77                     78
                      A                      A                      A
 Frequencies --   1438.1074              1440.7698              1447.1197
 Red. masses --      1.2981                 1.2462                 1.3714
 Frc consts  --      1.5817                 1.5241                 1.6921
 IR Inten    --      4.6311                 0.5114                 7.1825

                     79                     80                     81
                      A                      A                      A
 Frequencies --   1452.3777              1499.5702              1503.8954
 Red. masses --      1.2370                 1.0482                 1.0688
 Frc consts  --      1.5374                 1.3887                 1.4242
 IR Inten    --     28.8327                 2.3217                 9.3326

                     82                     83                     84
                      A                      A                      A
 Frequencies --   1506.8958              1513.6533              1518.3020
 Red. masses --      1.0652                 1.0590                 1.0471
 Frc consts  --      1.4250                 1.4296                 1.4222
 IR Inten    --     11.0042                 4.4028                 0.7728

                     85                     86                     87
                      A                      A                      A
 Frequencies --   1520.7375              1525.3969              1527.4118
 Red. masses --      1.0521                 1.0654                 1.0579
 Frc consts  --      1.4336                 1.4607                 1.4542
 IR Inten    --      1.6559                20.9970                 6.8481

                     88                     89                     90
                      A                      A                      A
 Frequencies --   1534.8389              1556.4638              1651.6863
 Red. masses --      1.0527                 1.0551                 5.4562
 Frc consts  --      1.4611                 1.5060                 8.7699
 IR Inten    --      1.4244                11.7704               117.8604

                     91                     92                     93
                      A                      A                      A
 Frequencies --   1669.2451              1690.9797              1719.4928
 Red. masses --      5.2357                 5.6285                 6.0483
 Frc consts  --      8.5954                 9.4824                10.5362
 IR Inten    --    180.3638                60.0677                87.4019

                     94                     95                     96
                      A                      A                      A
 Frequencies --   1781.4784              1783.0619              2885.2391
 Red. masses --      9.8296                10.3945                 1.0827
 Frc consts  --     18.3800                19.4710                 5.3105
 IR Inten    --    629.8807                43.0834               161.6921

                     97                     98                     99
                      A                      A                      A
 Frequencies --   3038.0645              3048.2769              3058.9816
 Red. masses --      1.0396                 1.0398                 1.0355
 Frc consts  --      5.6536                 5.6925                 5.7087
 IR Inten    --     19.8050                19.2057                 8.6798

                    100                    101                    102
                      A                      A                      A
 Frequencies --   3061.0191              3067.8876              3082.4115
 Red. masses --      1.0383                 1.0384                 1.0988
 Frc consts  --      5.7320                 5.7584                 6.1512
 IR Inten    --     24.1998                19.1829                12.4591

                    103                    104                    105
                      A                      A                      A
 Frequencies --   3099.3155              3122.9284              3124.8375
 Red. masses --      1.1005                 1.1025                 1.1024
 Frc consts  --      6.2286                 6.3352                 6.3421
 IR Inten    --     26.6419                 6.0612                17.0882

                    106                    107                    108
                      A                      A                      A
 Frequencies --   3134.3974              3138.3967              3139.4280
 Red. masses --      1.1026                 1.0882                 1.1028
 Frc consts  --      6.3821                 6.3149                 6.4042
 IR Inten    --     46.5394                 0.4454                43.6723

                    109                    110                    111
                      A                      A                      A
 Frequencies --   3140.1515              3142.1927              3155.4151
 Red. masses --      1.0981                 1.0881                 1.0981
 Frc consts  --      6.3794                 6.3295                 6.4417
 IR Inten    --     14.9229                23.8266                14.9126

                    112                    113                    114
                      A                      A                      A
 Frequencies --   3164.2909              3174.3384              3176.7809
 Red. masses --      1.0877                 1.0997                 1.0875
 Frc consts  --      6.4168                 6.5286                 6.4665
 IR Inten    --     14.2827                 0.6256                11.6146

                    115                    116                    117
                      A                      A                      A
 Frequencies --   3177.2197              3191.1150              3192.1996
 Red. masses --      1.0991                 1.0885                 1.0905
 Frc consts  --      6.5369                 6.5309                 6.5471
 IR Inten    --      9.6550                 1.9945                 8.4707

 - Thermochemistry -
 -------------------
 Temperature   298.150 Kelvin.  Pressure   1.00000 Atm.
 Atom     1 has atomic number  6 and mass  12.00000

 Molecular mass:   262.15689 amu.
 Principal axes and moments of inertia in atomic units:
                           1         2         3
     Eigenvalues --  3149.30075********************
           X            0.99990  -0.01337  -0.00376
           Y            0.01332   0.99984  -0.01156
           Z            0.00392   0.01151   0.99993
 This molecule is an asymmetric top.
 Rotational symmetry number  1.
 Warning -- assumption of classical behavior for rotation
           may cause significant error
 Rotational temperatures (Kelvin)      0.02750     0.00676     0.00591
 Rotational constants (GHZ):           0.57306     0.14090     0.12314
 Zero-point vibrational energy     910247.9 (Joules/Mol)
                                  217.55447 (Kcal/Mol)
 Warning -- explicit consideration of  35 degrees of freedom as
           vibrations may cause significant error
 Vibrational temperatures:     18.07    35.48    63.18    73.17    85.44
          (Kelvin)             99.56   105.93   163.02   172.47   182.67
                              206.42   236.94   258.87   275.70   299.68
                              325.12   341.19   361.30   371.63   389.95
                              392.87   414.71   462.54   492.60   508.21
                              532.08   548.32   603.58   639.78   671.15
                              679.41   732.84   773.16   795.34   826.77
                              923.77  1011.25  1095.74  1118.00  1199.23
                             1238.74  1258.16  1270.74  1302.57  1315.34
                             1330.72  1350.45  1352.40  1408.40  1413.33
                             1459.16  1462.82  1478.60  1514.67  1534.11
                             1543.00  1549.90  1552.44  1594.22  1652.08
                             1729.16  1732.97  1757.54  1781.31  1789.16
                             1850.97  1860.42  1880.75  1917.08  1925.98
                             1950.11  1993.65  2030.14  2048.52  2053.87
                             2069.12  2072.95  2082.08  2089.65  2157.55
                             2163.77  2168.09  2177.81  2184.50  2188.00
                             2194.71  2197.60  2208.29  2239.40  2376.41
                             2401.67  2432.94  2473.97  2563.15  2565.43
                             4151.22  4371.10  4385.79  4401.19  4404.12
                             4414.01  4434.90  4459.22  4493.20  4495.94
                             4509.70  4515.45  4516.94  4517.98  4520.91
                             4539.94  4552.71  4567.16  4570.68  4571.31
                             4591.30  4592.86

 Zero-point correction=                           0.346695 (Hartree/Particle)
 Thermal correction to Energy=                    0.368982
 Thermal correction to Enthalpy=                  0.369926
 Thermal correction to Gibbs Free Energy=         0.293064
 Sum of electronic and zero-point Energies=           -848.308639
 Sum of electronic and thermal Energies=              -848.286352
 Sum of electronic and thermal Enthalpies=            -848.285407
 Sum of electronic and thermal Free Energies=         -848.362270

                     E (Thermal)             CV                S
                      KCal/Mol        Cal/Mol-Kelvin    Cal/Mol-Kelvin
 Total                  231.540             80.183            161.771
 Electronic               0.000              0.000              0.000
 Translational            0.889              2.981             42.591
 Rotational               0.889              2.981             34.735
 Vibrational            229.762             74.221             84.446
 Vibration     1          0.593              1.987              7.558
 Vibration     2          0.593              1.985              6.218
 Vibration     3          0.595              1.980              5.074
 Vibration     4          0.595              1.977              4.784
 Vibration     5          0.597              1.974              4.478
 Vibration     6          0.598              1.969              4.176
 Vibration     7          0.599              1.966              4.054
 Vibration     8          0.607              1.938              3.212
 Vibration     9          0.609              1.933              3.102
 Vibration    10          0.611              1.926              2.992
 Vibration    11          0.616              1.910              2.757
 Vibration    12          0.623              1.886              2.495
 Vibration    13          0.629              1.867              2.329
 Vibration    14          0.634              1.851              2.212
 Vibration    15          0.642              1.828              2.059
 Vibration    16          0.650              1.801              1.911
 Vibration    17          0.656              1.784              1.824
 Vibration    18          0.663              1.761              1.723
 Vibration    19          0.667              1.749              1.673
 Vibration    20          0.675              1.727              1.590
 Vibration    21          0.676              1.723              1.577
 Vibration    22          0.685              1.696              1.484
 Vibration    23          0.707              1.632              1.303
 Vibration    24          0.722              1.591              1.201
 Vibration    25          0.729              1.569              1.152
 Vibration    26          0.742              1.534              1.081
 Vibration    27          0.751              1.510              1.035
 Vibration    28          0.782              1.428              0.894
 Vibration    29          0.804              1.373              0.812
 Vibration    30          0.824              1.324              0.747
 Vibration    31          0.829              1.312              0.731
 Vibration    32          0.864              1.229              0.635
 Vibration    33          0.892              1.167              0.571
 Vibration    34          0.908              1.134              0.538
 Vibration    35          0.931              1.086              0.495

                           ! Non-Optimized Parameters !
 Normal termination of Gaussian 16 at Sun Dec 13 16:38:26 2020.

 ----------------------------------------------------------------------
 # B3LYP/6-311++G(d,p) empiricaldispersion=gd3bj scf=xqc pop=npa geom=c
 heck
 ----------------------------------------------------------------------

 --------------------------------------
 CID_11436957_JID_9069_Energie_neutraal
 --------------------------------------
 Structure from the checkpoint file:  "JID_9069.chk"
 Charge =  0 Multiplicity = 1

 SCF Done:  E(RB3LYP) =  -848.895901157     A.U. after   16 cycles
 Normal termination of Gaussian 16 at Sun Dec 13 16:48:38 2020.

 ----------------------------------------------------------------------
 # B3LYP/6-311++G(d,p) empiricaldispersion=gd3bj scf=xqc pop=npa geom=c
 heck
 ----------------------------------------------------------------------

 ------------------------------------
 CID_11436957_JID_9069_Energie_kation
 ------------------------------------
 Structure from the checkpoint file:  "JID_9069.chk"
 Charge =  1 Multiplicity = 2

 SCF Done:  E(UB3LYP) =  -848.610689685     A.U. after   26 cycles
 Normal termination of Gaussian 16 at Sun Dec 13 17:11:52 2020.
 Gaussian 16:  ES64L-G16RevA.03 25-Dec-2016

 ----------------------------------------------------------------------
 # B3LYP/6-311++G(d,p) empiricaldispersion=gd3bj scf=xqc pop=npa geom=c
 heck
 ----------------------------------------------------------------------

 -----------------------------------
 CID_11436957_JID_9069_Energie_anion
 -----------------------------------
 Structure from the checkpoint file:  "JID_9069.chk"
 Charge = -1 Multiplicity = 2

                         Standard orientation:
 ---------------------------------------------------------------------
 Center     Atomic      Atomic             Coordinates (Angstroms)
 Number     Number       Type             X           Y           Z
 ---------------------------------------------------------------------
      1          6           0        0.451088    3.985664   -0.255963
      2          6           0        1.518248    2.940340   -0.239867
      3          6           0        1.329728    1.612565   -0.104547
      4          6           0       -0.009787    0.999284   -0.020946
      5          6           0       -0.444533    0.135172    0.923258
      6          6           0        0.417175   -0.334635    2.070512
      7          6           0       -1.796030   -0.423584    0.891817
      8          6           0       -2.872924    0.043766    0.215934
      9          6           0       -4.156913   -0.602647    0.251469
     10          6           0       -5.263047   -0.178793   -0.404579
     11          6           0       -6.526298   -0.904916   -0.306134
     12          8           0       -7.559014   -0.582141   -0.869006
     13          6           0        2.569926    0.764782   -0.136439
     14          8           0        3.698231    1.210752   -0.032463
     15          8           0        2.266263   -0.532048   -0.326082
     16          6           0        3.313731   -1.562915   -0.397771
     17          6           0        4.220585   -1.299725   -1.601501
     18          6           0        4.092214   -1.611376    0.918400
     19          6           0        2.503726   -2.843294   -0.598528
     20          1           0       -0.547729    3.570439   -0.100604
     21          1           0        0.460568    4.535299   -1.206854
     22          1           0        0.636892    4.728691    0.531004
     23          1           0        2.547187    3.280971   -0.332565
     24          1           0       -0.703595    1.284929   -0.808947
     25          1           0       -0.145113   -0.300625    3.011173
     26          1           0        0.736704   -1.372823    1.916757
     27          1           0        1.312612    0.277432    2.191345
     28          1           0       -1.944978   -1.309197    1.511577
     29          1           0       -2.795316    0.952266   -0.378419
     30          1           0       -4.232761   -1.506387    0.859207
     31          1           0       -5.252300    0.713049   -1.027346
     32          1           0       -6.489142   -1.810926    0.342367
     33          1           0        4.794518   -0.382317   -1.467564
     34          1           0        4.914931   -2.137949   -1.724995
     35          1           0        3.621430   -1.215438   -2.514296
     36          1           0        3.406341   -1.749186    1.761003
     37          1           0        4.783776   -2.460688    0.900502
     38          1           0        4.663245   -0.695178    1.071956
     39          1           0        1.830640   -3.011830    0.248205
     40          1           0        1.901287   -2.777944   -1.509665
     41          1           0        3.175650   -3.703219   -0.684132
 ---------------------------------------------------------------------

 SCF Done:  E(UB3LYP) =  -848.940531065     A.U. after   23 cycles

 The electronic state is 2-A.
 Alpha  occ. eigenvalues --  -19.06360 -19.00326 -18.95183 -10.19686 -10.16364
 Alpha  occ. eigenvalues --  -10.09413 -10.08692 -10.08501 -10.08444 -10.07205
 Alpha  occ. eigenvalues --  -10.07127 -10.06708 -10.05698 -10.05369 -10.04205
 Alpha  occ. eigenvalues --  -10.03496 -10.03361 -10.03289 -10.02121  -1.00300
 Alpha  occ. eigenvalues --   -0.91782  -0.88536  -0.73906  -0.71415  -0.69013
 Alpha  occ. eigenvalues --   -0.66471  -0.62191  -0.62051  -0.61951  -0.60439
 Alpha  occ. eigenvalues --   -0.56702  -0.54668  -0.51461  -0.45856  -0.44810
 Alpha  occ. eigenvalues --   -0.42942  -0.42409  -0.41647  -0.38765  -0.38643
 Alpha  occ. eigenvalues --   -0.37021  -0.36704  -0.35852  -0.34601  -0.34008
 Alpha  occ. eigenvalues --   -0.33196  -0.32221  -0.31976  -0.31597  -0.30963
 Alpha  occ. eigenvalues --   -0.30505  -0.30341  -0.29457  -0.29377  -0.27825
 Alpha  occ. eigenvalues --   -0.27380  -0.27086  -0.26919  -0.25720  -0.25226
 Alpha  occ. eigenvalues --   -0.24772  -0.24716  -0.22834  -0.22049  -0.20967
 Alpha  occ. eigenvalues --   -0.20511  -0.18488  -0.16235  -0.14241  -0.10794
 Alpha  occ. eigenvalues --   -0.08758   0.00892
 Alpha virt. eigenvalues --    0.05613   0.05713   0.07500   0.07929   0.08302
 Alpha virt. eigenvalues --    0.08683   0.09753   0.10070   0.10183   0.10682
 Alpha virt. eigenvalues --    0.11066   0.11161   0.11411   0.11887   0.12134

  Beta  occ. eigenvalues --  -19.06351 -19.00331 -18.94827 -10.19646 -10.16364
  Beta  occ. eigenvalues --  -10.09316 -10.08692 -10.08501 -10.08442 -10.07214
  Beta  occ. eigenvalues --  -10.07192 -10.06462 -10.05692 -10.05397 -10.04035
  Beta  occ. eigenvalues --  -10.03281 -10.03206 -10.03011 -10.01976  -1.00279
  Beta  occ. eigenvalues --   -0.91778  -0.87912  -0.73863  -0.71117  -0.68620
  Beta  occ. eigenvalues --   -0.66097  -0.62082  -0.62039  -0.61867  -0.60172
  Beta  occ. eigenvalues --   -0.56399  -0.54578  -0.50687  -0.45621  -0.44565
  Beta  occ. eigenvalues --   -0.42747  -0.42277  -0.41406  -0.38740  -0.38605
  Beta  occ. eigenvalues --   -0.36954  -0.36524  -0.35768  -0.34523  -0.33943
  Beta  occ. eigenvalues --   -0.33053  -0.32007  -0.31928  -0.31402  -0.30862
  Beta  occ. eigenvalues --   -0.30440  -0.30218  -0.29432  -0.29313  -0.27612
  Beta  occ. eigenvalues --   -0.27352  -0.27003  -0.26820  -0.25573  -0.24670
  Beta  occ. eigenvalues --   -0.24613  -0.23671  -0.22730  -0.21817  -0.20943
  Beta  occ. eigenvalues --   -0.19334  -0.17971  -0.15677  -0.13009  -0.10456
  Beta  occ. eigenvalues --   -0.07119
  Beta virt. eigenvalues --    0.05607   0.05751   0.07261   0.07517   0.07963
  Beta virt. eigenvalues --    0.08306   0.08697   0.09750   0.10066   0.10197
  Beta virt. eigenvalues --    0.10697   0.11111   0.11225   0.11880   0.11959

 Mulliken charges and spin densities:
               1          2
     1  C   -0.609599  -0.037797
     2  C   -0.290182   0.222707
     3  C    1.146325  -0.058297
     4  C   -0.825704   0.227586
     5  C    0.665169  -0.041115
     6  C   -0.726868  -0.003675
     7  C    0.026618   0.221378
     8  C   -0.445800   0.055008
     9  C   -0.262930   0.101634
    10  C    0.013554   0.101629
    11  C   -0.247865   0.098170
    12  O   -0.371810   0.117175
    13  C   -0.729609   0.033317
    14  O   -0.232993  -0.001515
    15  O    0.247860  -0.000086
    16  C    0.012983   0.002080
    17  C   -0.463826   0.000064
    18  C   -0.389013  -0.004223
    19  C   -0.395288  -0.000218
    20  H    0.144099   0.008616
    21  H    0.131408   0.002177
    22  H    0.123031   0.015810
    23  H    0.177909  -0.005928
    24  H    0.186244  -0.012712
    25  H    0.154837   0.000617
    26  H    0.139961  -0.000239
    27  H    0.133061   0.000173
    28  H    0.172266  -0.015144
    29  H   -0.057874  -0.009017
    30  H    0.012589  -0.007791
    31  H    0.141832  -0.007622
    32  H    0.033472  -0.006335
    33  H    0.192238   0.001287
    34  H    0.137361  -0.000004
    35  H    0.146808   0.000048
    36  H    0.122566   0.001265
    37  H    0.155267   0.000438
    38  H    0.196309  -0.000039
    39  H    0.148244   0.000389
    40  H    0.160390   0.000222
    41  H    0.126963  -0.000032
 Sum of Mulliken charges =  -1.00000   1.00000

 Dipole moment (field-independent basis, Debye):
    X=             14.9977    Y=             -1.7573    Z=              1.2089  Tot=             15.1486
 Quadrupole moment (field-independent basis, Debye-Ang):
   XX=           -269.6937   YY=           -124.8850   ZZ=           -125.4687
   XY=            -17.3025   XZ=            -14.5485   YZ=             -3.3895

 Summary of Natural Population Analysis:

                                       Natural Population
                Natural  -----------------------------------------------
    Atom  No    Charge         Core      Valence    Rydberg      Total
 -----------------------------------------------------------------------
      C    1   -0.30739      0.99966     2.30312    0.00462     3.30739
      C    2    0.00405      0.99951     1.98863    0.00782     2.99595
      C    3   -0.10404      0.99941     2.09387    0.01076     3.10404
      C    4   -0.04397      0.99946     2.03641    0.00810     3.04397
      C    5   -0.02657      0.99949     2.01888    0.00820     3.02657
      C    6   -0.29088      0.99963     2.28640    0.00485     3.29088
      C    7   -0.02359      0.99952     2.01465    0.00942     3.02359
      C    8   -0.10329      0.99953     2.09556    0.00820     3.10329
      C    9   -0.04359      0.99954     2.03457    0.00949     3.04359
      C   10   -0.12855      0.99952     2.11909    0.00994     3.12855
      C   11    0.19841      0.99970     1.78063    0.02126     2.80159
      O   12   -0.26834      0.99988     3.25997    0.00849     4.26834
      C   13    0.40881      0.99962     1.56655    0.02502     2.59119
      O   14   -0.33001      0.99987     3.32480    0.00533     4.33001
      O   15   -0.28882      0.99985     3.27762    0.01136     4.28882
      C   16    0.13534      0.99955     1.85359    0.01152     2.86466
      C   17   -0.30116      0.99961     2.29633    0.00522     3.30116
      C   18   -0.30207      0.99961     2.29718    0.00528     3.30207
      C   19   -0.28834      0.99961     2.28286    0.00588     3.28834
      H   20    0.10768      0.00000     0.39138    0.00094     0.39232
      H   21    0.10120      0.00000     0.39786    0.00094     0.39880
      H   22    0.10285      0.00000     0.39617    0.00098     0.39715
      H   23    0.09533      0.00000     0.40347    0.00121     0.40467
      H   24    0.09379      0.00000     0.40489    0.00132     0.40621
      H   25    0.09787      0.00000     0.40109    0.00105     0.40213
      H   26    0.09646      0.00000     0.40222    0.00132     0.40354
      H   27    0.09926      0.00000     0.39993    0.00081     0.40074
      H   28    0.08101      0.00000     0.41753    0.00146     0.41899
      H   29    0.08883      0.00000     0.40950    0.00167     0.41117
      H   30    0.08328      0.00000     0.41479    0.00192     0.41672
      H   31    0.08988      0.00000     0.40837    0.00175     0.41012
      H   32    0.03092      0.00000     0.46631    0.00277     0.46908
      H   33    0.11515      0.00000     0.38389    0.00096     0.38485
      H   34    0.09637      0.00000     0.40284    0.00079     0.40363
      H   35    0.10238      0.00000     0.39682    0.00080     0.39762
      H   36    0.10342      0.00000     0.39570    0.00088     0.39658
      H   37    0.09656      0.00000     0.40265    0.00079     0.40344
      H   38    0.11502      0.00000     0.38406    0.00092     0.38498
      H   39    0.10532      0.00000     0.39379    0.00089     0.39468
      H   40    0.10608      0.00000     0.39313    0.00078     0.39392
      H   41    0.09534      0.00000     0.40393    0.00074     0.40466
 =======================================================================
   * Total *    0.00000     18.99255    51.80101    0.20644    71.00000

 Normal termination of Gaussian 16 at Sun Dec 13 17:32:41 2020.
