 Gaussian 16, Revision A.03,

 -----------------------------------------------------------
 # opt freq B3LYP/6-31G(d) empiricaldispersion=gd3bj scf=xqc
 -----------------------------------------------------------

 -------------------------------
 CID_112462944_JID_6220_neutraal
 -------------------------------
 Symbolic Z-matrix:
 Charge =  0 Multiplicity = 1

 SCF Done:  E(RB3LYP) =  -1052.29132494     A.U. after   15 cycles
 SCF Done:  E(RB3LYP) =  -1052.29771584     A.U. after   14 cycles
 SCF Done:  E(RB3LYP) =  -1052.29865936     A.U. after   14 cycles
 SCF Done:  E(RB3LYP) =  -1052.29931982     A.U. after   13 cycles
 SCF Done:  E(RB3LYP) =  -1052.29939786     A.U. after   13 cycles
 SCF Done:  E(RB3LYP) =  -1052.29949816     A.U. after   11 cycles
 SCF Done:  E(RB3LYP) =  -1052.29951988     A.U. after   10 cycles
 SCF Done:  E(RB3LYP) =  -1052.29954668     A.U. after   10 cycles
 SCF Done:  E(RB3LYP) =  -1052.29955774     A.U. after   10 cycles
 SCF Done:  E(RB3LYP) =  -1052.29956482     A.U. after    9 cycles
 SCF Done:  E(RB3LYP) =  -1052.29957224     A.U. after    9 cycles
 SCF Done:  E(RB3LYP) =  -1052.29957893     A.U. after    9 cycles
 SCF Done:  E(RB3LYP) =  -1052.29958547     A.U. after   10 cycles
 SCF Done:  E(RB3LYP) =  -1052.29958975     A.U. after    9 cycles
 SCF Done:  E(RB3LYP) =  -1052.29959054     A.U. after    8 cycles
 SCF Done:  E(RB3LYP) =  -1052.29959059     A.U. after    8 cycles
 Optimization completed.
    -- Stationary point found.
 Normal termination of Gaussian 16 at Thu Dec 10 21:24:02 2020.

 --------------------------------------------------------------------
 #N Geom=AllCheck Guess=TCheck SCRF=Check GenChk RB3LYP/6-31G(d) Freq
 --------------------------------------------------------------------

 Structure from the checkpoint file:  "JID_6220.chk"
 -------------------------------
 CID_112462944_JID_6220_neutraal
 -------------------------------
 Charge =  0 Multiplicity = 1

 SCF Done:  E(RB3LYP) =  -1052.29959059     A.U. after    1 cycles

  Exact polarizability: 211.321   3.080 154.446  -6.501  -2.098 115.572
 Approx polarizability: 277.133  26.644 276.327 -11.891  -9.950 173.577

                      1                      2                      3
                      A                      A                      A
 Frequencies --     25.4690                41.1197                61.9803
 Red. masses --      4.3216                 3.5006                 3.5036
 Frc consts  --      0.0017                 0.0035                 0.0079
 IR Inten    --      0.5978                 0.4011                 1.8058

                      4                      5                      6
                      A                      A                      A
 Frequencies --     73.2797                86.9790                93.0644
 Red. masses --      3.5876                 1.3041                 1.9582
 Frc consts  --      0.0114                 0.0058                 0.0100
 IR Inten    --      1.2017                 0.0669                 0.0565

                      7                      8                      9
                      A                      A                      A
 Frequencies --    111.1232               118.8738               155.8237
 Red. masses --      2.3141                 4.1170                 4.5482
 Frc consts  --      0.0168                 0.0343                 0.0651
 IR Inten    --      0.1097                 0.7413                 4.6578

                     10                     11                     12
                      A                      A                      A
 Frequencies --    185.1601               211.9193               218.7517
 Red. masses --      3.2652                 2.3838                 1.4604
 Frc consts  --      0.0660                 0.0631                 0.0412
 IR Inten    --      3.6236                 0.8844                 1.3016

                     13                     14                     15
                      A                      A                      A
 Frequencies --    238.3816               244.8887               260.9762
 Red. masses --      1.6967                 1.4427                 1.6539
 Frc consts  --      0.0568                 0.0510                 0.0664
 IR Inten    --      2.5948                 0.4768                 0.9397

                     16                     17                     18
                      A                      A                      A
 Frequencies --    269.7512               284.6183               306.6622
 Red. masses --      1.0425                 3.2833                 1.6927
 Frc consts  --      0.0447                 0.1567                 0.0938
 IR Inten    --      0.0693                 0.2663                 0.6763

                     19                     20                     21
                      A                      A                      A
 Frequencies --    310.4323               344.9770               365.6713
 Red. masses --      2.8663                 2.7340                 5.2956
 Frc consts  --      0.1627                 0.1917                 0.4172
 IR Inten    --      1.6022                 0.1480                 4.7722

                     22                     23                     24
                      A                      A                      A
 Frequencies --    369.4911               418.3451               494.6109
 Red. masses --      3.0992                 2.8667                 3.6972
 Frc consts  --      0.2493                 0.2956                 0.5329
 IR Inten    --      1.1884                 0.1637                 4.9436

                     25                     26                     27
                      A                      A                      A
 Frequencies --    507.4728               530.2578               551.2846
 Red. masses --      3.7198                 3.6918                 3.8136
 Frc consts  --      0.5644                 0.6116                 0.6829
 IR Inten    --      5.3622                 5.0357                 3.4780

                     28                     29                     30
                      A                      A                      A
 Frequencies --    578.2732               611.4284               647.4389
 Red. masses --      5.0496                 3.4558                 3.7285
 Frc consts  --      0.9949                 0.7612                 0.9208
 IR Inten    --      9.5479                 0.6239                22.3083

                     31                     32                     33
                      A                      A                      A
 Frequencies --    669.5443               709.3156               744.7129
 Red. masses --      4.2138                 5.2103                 3.9248
 Frc consts  --      1.1130                 1.5445                 1.2825
 IR Inten    --      3.7649                 0.5594                 3.0992

                     34                     35                     36
                      A                      A                      A
 Frequencies --    762.4632               796.8514               817.1595
 Red. masses --      2.7936                 1.1505                 1.1411
 Frc consts  --      0.9569                 0.4304                 0.4489
 IR Inten    --      5.0860                 4.1581                 3.6780

                     37                     38                     39
                      A                      A                      A
 Frequencies --    913.4824               926.6087               935.0600
 Red. masses --      3.3923                 2.3587                 1.9428
 Frc consts  --      1.6678                 1.1932                 1.0008
 IR Inten    --     12.0720                 4.3205                 1.0769

                     40                     41                     42
                      A                      A                      A
 Frequencies --    981.0422              1016.8881              1039.9596
 Red. masses --      2.1229                 1.7825                 2.5361
 Frc consts  --      1.2038                 1.0860                 1.6160
 IR Inten    --     14.2125                21.3580                 8.5997

                     43                     44                     45
                      A                      A                      A
 Frequencies --   1050.7581              1063.7790              1069.0298
 Red. masses --      1.7419                 2.1043                 1.5467
 Frc consts  --      1.1331                 1.4030                 1.0414
 IR Inten    --      2.3095                 2.4005                 3.4997

                     46                     47                     48
                      A                      A                      A
 Frequencies --   1081.7970              1089.8979              1102.1723
 Red. masses --      2.2282                 2.3126                 2.7622
 Frc consts  --      1.5364                 1.6185                 1.9770
 IR Inten    --      6.1937                16.4770                19.7520

                     49                     50                     51
                      A                      A                      A
 Frequencies --   1114.8574              1127.7443              1143.8547
 Red. masses --      2.0109                 1.9205                 1.8397
 Frc consts  --      1.4726                 1.4391                 1.4182
 IR Inten    --     58.6841                20.4249                40.2261

                     52                     53                     54
                      A                      A                      A
 Frequencies --   1203.1773              1243.3961              1257.6557
 Red. masses --      2.6204                 2.4514                 2.3887
 Frc consts  --      2.2350                 2.2330                 2.2261
 IR Inten    --      9.4939                24.8193                53.9755

                     55                     56                     57
                      A                      A                      A
 Frequencies --   1296.5225              1329.7201              1334.5684
 Red. masses --      3.3405                 1.4367                 1.2191
 Frc consts  --      3.3084                 1.4967                 1.2793
 IR Inten    --     70.4132                 6.6817                 9.9963

                     58                     59                     60
                      A                      A                      A
 Frequencies --   1365.1611              1371.8687              1403.1671
 Red. masses --      3.8057                 1.3764                 1.2814
 Frc consts  --      4.1788                 1.5263                 1.4864
 IR Inten    --    237.2238                19.1262                23.7326

                     61                     62                     63
                      A                      A                      A
 Frequencies --   1409.7811              1412.1807              1431.3819
 Red. masses --      1.2823                 1.3541                 1.2776
 Frc consts  --      1.5016                 1.5911                 1.5423
 IR Inten    --     27.7022                24.9067                24.6786

                     64                     65                     66
                      A                      A                      A
 Frequencies --   1433.6404              1434.4851              1438.2490
 Red. masses --      1.3117                 1.2794                 1.2288
 Frc consts  --      1.5884                 1.5511                 1.4976
 IR Inten    --     18.5460                 2.9189                21.9266

                     67                     68                     69
                      A                      A                      A
 Frequencies --   1447.4338              1488.4617              1495.7468
 Red. masses --      1.3699                 1.0947                 6.9405
 Frc consts  --      1.6910                 1.4290                 9.1487
 IR Inten    --     18.5756                27.0348                33.0620

                     70                     71                     72
                      A                      A                      A
 Frequencies --   1501.4003              1511.6734              1516.1701
 Red. masses --      1.0478                 1.0703                 1.1287
 Frc consts  --      1.3917                 1.4411                 1.5287
 IR Inten    --      1.9907                 3.2343                 4.9697

                     73                     74                     75
                      A                      A                      A
 Frequencies --   1517.8598              1520.7933              1525.2183
 Red. masses --      1.0534                 1.0560                 1.0458
 Frc consts  --      1.4299                 1.4390                 1.4334
 IR Inten    --      5.9517                 8.3915                16.9669

                     76                     77                     78
                      A                      A                      A
 Frequencies --   1526.6769              1531.7943              1535.2827
 Red. masses --      1.0523                 1.0452                 1.0511
 Frc consts  --      1.4451                 1.4449                 1.4597
 IR Inten    --      4.5527                 1.9800                 6.8198

                     79                     80                     81
                      A                      A                      A
 Frequencies --   1537.5135              1553.2956              1562.0690
 Red. masses --      1.0596                 1.0979                 6.0990
 Frc consts  --      1.4758                 1.5607                 8.7682
 IR Inten    --      5.0268                 7.3071                58.3281

                     82                     83                     84
                      A                      A                      A
 Frequencies --   1746.8683              2952.8845              3036.0803
 Red. masses --     10.4874                 1.0734                 1.0749
 Frc consts  --     18.8555                 5.5144                 5.8376
 IR Inten    --    218.5609                73.5718                10.1677

                     85                     86                     87
                      A                      A                      A
 Frequencies --   3041.5273              3047.0204              3059.1773
 Red. masses --      1.0688                 1.0353                 1.0383
 Frc consts  --      5.8257                 5.6631                 5.7249
 IR Inten    --     31.2726                23.2576                 4.6115

                     88                     89                     90
                      A                      A                      A
 Frequencies --   3059.2860              3063.2335              3066.8765
 Red. masses --      1.0371                 1.0367                 1.0380
 Frc consts  --      5.7191                 5.7313                 5.7521
 IR Inten    --     21.7575                18.5076                 7.9016

                     91                     92                     93
                      A                      A                      A
 Frequencies --   3068.7800              3076.7120              3112.3556
 Red. masses --      1.0891                 1.1013                 1.1015
 Frc consts  --      6.0432                 6.1422                 6.2866
 IR Inten    --     17.3654                25.2114                55.7498

                     94                     95                     96
                      A                      A                      A
 Frequencies --   3114.9700              3121.6695              3124.4890
 Red. masses --      1.1008                 1.1034                 1.0999
 Frc consts  --      6.2934                 6.3350                 6.3265
 IR Inten    --      8.5445                27.4791                13.1113

                     97                     98                     99
                      A                      A                      A
 Frequencies --   3124.7443              3131.8557              3144.0529
 Red. masses --      1.0999                 1.1011                 1.1030
 Frc consts  --      6.3273                 6.3631                 6.4238
 IR Inten    --     79.9013                12.4492                20.3605

                    100                    101                    102
                      A                      A                      A
 Frequencies --   3152.7601              3161.5300              3170.9608
 Red. masses --      1.1011                 1.1002                 1.1024
 Frc consts  --      6.4486                 6.4794                 6.5310
 IR Inten    --     21.6143                 8.5993                 9.3660

 - Thermochemistry -
 -------------------
 Temperature   298.150 Kelvin.  Pressure   1.00000 Atm.
 Atom     1 has atomic number  6 and mass  12.00000

 Molecular mass:   240.12964 amu.
 Principal axes and moments of inertia in atomic units:
                           1         2         3
     Eigenvalues --  1821.156157139.153397734.66777
           X            0.99975  -0.02220  -0.00163
           Y            0.02221   0.99975   0.00387
           Z            0.00154  -0.00391   0.99999
 This molecule is an asymmetric top.
 Rotational symmetry number  1.
 Warning -- assumption of classical behavior for rotation
           may cause significant error
 Rotational temperatures (Kelvin)      0.04756     0.01213     0.01120
 Rotational constants (GHZ):           0.99099     0.25279     0.23333
 Zero-point vibrational energy     811006.3 (Joules/Mol)
                                  193.83515 (Kcal/Mol)
 Warning -- explicit consideration of  29 degrees of freedom as
           vibrations may cause significant error
 Vibrational temperatures:     36.64    59.16    89.18   105.43   125.14
          (Kelvin)            133.90   159.88   171.03   224.20   266.40
                              304.90   314.73   342.98   352.34   375.49
                              388.11   409.50   441.22   446.64   496.34
                              526.12   531.62   601.91   711.63   730.14
                              762.92   793.18   832.01   879.71   931.52
                              963.32  1020.55  1071.48  1097.01  1146.49
                             1175.71  1314.30  1333.18  1345.34  1411.50
                             1463.08  1496.27  1511.81  1530.54  1538.10
                             1556.46  1568.12  1585.78  1604.03  1622.57
                             1645.75  1731.10  1788.97  1809.49  1865.41
                             1913.17  1920.15  1964.16  1973.81  2018.84
                             2028.36  2031.81  2059.44  2062.69  2063.90
                             2069.32  2082.53  2141.56  2152.05  2160.18
                             2174.96  2181.43  2183.86  2188.08  2194.45
                             2196.55  2203.91  2208.93  2212.14  2234.85
                             2247.47  2513.35  4248.54  4368.24  4376.08
                             4383.98  4401.47  4401.63  4407.31  4412.55
                             4415.29  4426.70  4477.99  4481.75  4491.39
                             4495.44  4495.81  4506.04  4523.59  4536.12
                             4548.74  4562.31

 Zero-point correction=                           0.308896 (Hartree/Particle)
 Thermal correction to Energy=                    0.327376
 Thermal correction to Enthalpy=                  0.328320
 Thermal correction to Gibbs Free Energy=         0.261784
 Sum of electronic and zero-point Energies=          -1051.990695
 Sum of electronic and thermal Energies=             -1051.972215
 Sum of electronic and thermal Enthalpies=           -1051.971270
 Sum of electronic and thermal Free Energies=        -1052.037806

                     E (Thermal)             CV                S
                      KCal/Mol        Cal/Mol-Kelvin    Cal/Mol-Kelvin
 Total                  205.432             67.505            140.036
 Electronic               0.000              0.000              0.000
 Translational            0.889              2.981             42.329
 Rotational               0.889              2.981             32.975
 Vibrational            203.654             61.543             64.732
 Vibration     1          0.593              1.985              6.154
 Vibration     2          0.594              1.981              5.204
 Vibration     3          0.597              1.972              4.393
 Vibration     4          0.599              1.967              4.063
 Vibration     5          0.601              1.958              3.727
 Vibration     6          0.602              1.954              3.595
 Vibration     7          0.607              1.940              3.249
 Vibration     8          0.609              1.934              3.119
 Vibration     9          0.620              1.896              2.600
 Vibration    10          0.631              1.860              2.276
 Vibration    11          0.643              1.823              2.027
 Vibration    12          0.647              1.813              1.969
 Vibration    13          0.656              1.782              1.815
 Vibration    14          0.660              1.771              1.767
 Vibration    15          0.669              1.744              1.655
 Vibration    16          0.674              1.729              1.598
 Vibration    17          0.683              1.702              1.506
 Vibration    18          0.697              1.661              1.380
 Vibration    19          0.699              1.654              1.360
 Vibration    20          0.723              1.585              1.189
 Vibration    21          0.739              1.543              1.098
 Vibration    22          0.742              1.535              1.082
 Vibration    23          0.781              1.430              0.898
 Vibration    24          0.850              1.262              0.672
 Vibration    25          0.863              1.233              0.640
 Vibration    26          0.885              1.183              0.587
 Vibration    27          0.907              1.137              0.542
 Vibration    28          0.935              1.078              0.489
 Vibration    29          0.971              1.008              0.430

                           ! Non-Optimized Parameters !
 Normal termination of Gaussian 16 at Thu Dec 10 21:37:26 2020.

 ----------------------------------------------------------------------
 # B3LYP/6-311++G(d,p) empiricaldispersion=gd3bj scf=xqc pop=npa geom=c
 heck
 ----------------------------------------------------------------------

 ---------------------------------------
 CID_112462944_JID_6220_Energie_neutraal
 ---------------------------------------
 Structure from the checkpoint file:  "JID_6220.chk"
 Charge =  0 Multiplicity = 1

 SCF Done:  E(RB3LYP) =  -1052.50552287     A.U. after   16 cycles
 Normal termination of Gaussian 16 at Thu Dec 10 21:45:16 2020.

 ----------------------------------------------------------------------
 # B3LYP/6-311++G(d,p) empiricaldispersion=gd3bj scf=xqc pop=npa geom=c
 heck
 ----------------------------------------------------------------------

 -------------------------------------
 CID_112462944_JID_6220_Energie_kation
 -------------------------------------
 Structure from the checkpoint file:  "JID_6220.chk"
 Charge =  1 Multiplicity = 2

 SCF Done:  E(UB3LYP) =  -1052.22707141     A.U. after   30 cycles
 Normal termination of Gaussian 16 at Thu Dec 10 22:05:55 2020.
 Gaussian 16:  ES64L-G16RevA.03 25-Dec-2016

 ----------------------------------------------------------------------
 # B3LYP/6-311++G(d,p) empiricaldispersion=gd3bj scf=xqc pop=npa geom=c
 heck
 ----------------------------------------------------------------------

 ------------------------------------
 CID_112462944_JID_6220_Energie_anion
 ------------------------------------
 Structure from the checkpoint file:  "JID_6220.chk"
 Charge = -1 Multiplicity = 2

                         Standard orientation:
 ---------------------------------------------------------------------
 Center     Atomic      Atomic             Coordinates (Angstroms)
 Number     Number       Type             X           Y           Z
 ---------------------------------------------------------------------
      1          6           0        1.533365    0.240008    2.392234
      2          6           0        2.783768    0.200469    1.511532
      3          7           0        2.512358    0.487275    0.107970
      4          6           0        3.637000    1.031690   -0.642639
      5          6           0        4.807400    0.078784   -0.936991
      6          6           0        1.676142   -0.463002   -0.620000
      7          6           0        1.966972   -1.952544   -0.358712
      8          6           0        0.201272   -0.122062   -0.438797
      9          7           0       -0.252276    1.105659   -0.475773
     10          6           0       -1.615347    1.156503   -0.317249
     11          6           0       -2.230585   -0.075796   -0.157991
     12         16           0       -1.026559   -1.342600   -0.216681
     13          6           0       -3.626710   -0.490063    0.038156
     14          8           0       -3.904288   -1.679337    0.146782
     15          6           0       -4.712355    0.567629    0.104481
     16          6           0       -2.256071    2.515819   -0.334841
     17          1           0        1.003150    1.186452    2.253776
     18          1           0        1.816355    0.138506    3.446144
     19          1           0        0.836674   -0.571177    2.159741
     20          1           0        3.476052    0.977100    1.856581
     21          1           0        3.306409   -0.761512    1.663308
     22          1           0        3.244489    1.430854   -1.586129
     23          1           0        4.012752    1.894889   -0.079012
     24          1           0        4.501639   -0.745531   -1.590915
     25          1           0        5.620381    0.615955   -1.439840
     26          1           0        5.211042   -0.352850   -0.014257
     27          1           0        1.873939   -0.280421   -1.684446
     28          1           0        1.717872   -2.244789    0.665743
     29          1           0        1.389372   -2.587114   -1.039171
     30          1           0        3.026712   -2.161924   -0.521846
     31          1           0       -4.531779    1.268187    0.927086
     32          1           0       -4.749843    1.153594   -0.820347
     33          1           0       -5.669672    0.066505    0.256588
     34          1           0       -2.773208    2.737401    0.604954
     35          1           0       -1.473776    3.262455   -0.483039
     36          1           0       -2.988993    2.614559   -1.142757
 ---------------------------------------------------------------------

 SCF Done:  E(UB3LYP) =  -1052.51896013     A.U. after   28 cycles

 The electronic state is 2-A.
 Alpha  occ. eigenvalues --  -88.71267 -18.92687 -14.18632 -14.15242 -10.09348
 Alpha  occ. eigenvalues --  -10.09096 -10.08954 -10.08079 -10.06729 -10.06144
 Alpha  occ. eigenvalues --  -10.05280 -10.05146 -10.04791 -10.04200 -10.03635
 Alpha  occ. eigenvalues --  -10.03261  -7.79942  -5.76216  -5.75864  -5.75575
 Alpha  occ. eigenvalues --   -0.86785  -0.82031  -0.79894  -0.66921  -0.65931
 Alpha  occ. eigenvalues --   -0.64164  -0.62840  -0.60877  -0.59610  -0.54991
 Alpha  occ. eigenvalues --   -0.52609  -0.52367  -0.46876  -0.44245  -0.40561
 Alpha  occ. eigenvalues --   -0.38543  -0.38026  -0.35870  -0.34962  -0.32958
 Alpha  occ. eigenvalues --   -0.32173  -0.31462  -0.30690  -0.30051  -0.29957
 Alpha  occ. eigenvalues --   -0.28968  -0.28837  -0.28620  -0.27419  -0.27026
 Alpha  occ. eigenvalues --   -0.26530  -0.25824  -0.25265  -0.25035  -0.23605
 Alpha  occ. eigenvalues --   -0.23345  -0.22908  -0.22088  -0.20311  -0.19881
 Alpha  occ. eigenvalues --   -0.12871  -0.12516  -0.09943  -0.09166  -0.08716
 Alpha  occ. eigenvalues --    0.04192
 Alpha virt. eigenvalues --    0.06317   0.08125   0.08477   0.08743   0.09548
 Alpha virt. eigenvalues --    0.10431   0.10788   0.11079   0.11215   0.12136
 Alpha virt. eigenvalues --    0.12622   0.13174   0.13519   0.13881   0.14247

  Beta  occ. eigenvalues --  -88.71213 -18.92278 -14.18606 -14.15392 -10.09340
  Beta  occ. eigenvalues --  -10.09135 -10.08952 -10.07796 -10.06717 -10.05641
  Beta  occ. eigenvalues --  -10.05271 -10.04874 -10.04791 -10.04223 -10.03655
  Beta  occ. eigenvalues --  -10.03183  -7.79893  -5.76195  -5.75844  -5.75389
  Beta  occ. eigenvalues --   -0.86031  -0.81904  -0.79709  -0.66749  -0.65881
  Beta  occ. eigenvalues --   -0.63919  -0.62602  -0.60839  -0.59413  -0.54760
  Beta  occ. eigenvalues --   -0.52500  -0.52257  -0.46491  -0.43861  -0.40302
  Beta  occ. eigenvalues --   -0.38267  -0.37925  -0.35699  -0.34909  -0.32791
  Beta  occ. eigenvalues --   -0.32100  -0.30981  -0.30580  -0.29980  -0.29876
  Beta  occ. eigenvalues --   -0.28919  -0.28582  -0.28394  -0.27306  -0.26942
  Beta  occ. eigenvalues --   -0.26183  -0.25511  -0.25084  -0.24843  -0.23583
  Beta  occ. eigenvalues --   -0.23136  -0.22415  -0.21795  -0.19677  -0.18737
  Beta  occ. eigenvalues --   -0.12828  -0.11839  -0.09598  -0.08450  -0.07401
  Beta virt. eigenvalues --    0.06269   0.08063   0.08377   0.08711   0.09448
  Beta virt. eigenvalues --    0.10339   0.10453   0.10765   0.11126   0.11252
  Beta virt. eigenvalues --    0.12109   0.12623   0.13134   0.13499   0.13915

 Mulliken charges and spin densities:
               1          2
     1  C   -0.583929   0.029870
     2  C   -0.086454  -0.108490
     3  N    0.480536  -0.019255
     4  C   -0.357155   0.261568
     5  C   -0.129062  -0.382074
     6  C   -0.240388  -0.026255
     7  C   -0.326083  -0.235070
     8  C    0.058853   0.280726
     9  N    0.152610  -0.074173
    10  C   -1.547833   0.137093
    11  C    1.490572   0.058498
    12  S   -0.482744   0.142881
    13  C    0.085918   0.188077
    14  O   -0.401664   0.147012
    15  C   -0.448918  -0.011297
    16  C   -0.800627  -0.027434
    17  H    0.171181   0.000294
    18  H    0.105055   0.006533
    19  H    0.158326  -0.003012
    20  H    0.139831  -0.008854
    21  H    0.067259   0.022664
    22  H    0.124591   0.018674
    23  H    0.087818   0.029348
    24  H    0.046506   0.099123
    25  H    0.015586   0.110209
    26  H    0.095799   0.040418
    27  H   -0.001204   0.205998
    28  H    0.168602  -0.001850
    29  H    0.083955   0.061047
    30  H    0.101847   0.021193
    31  H    0.111512   0.006653
    32  H    0.111563   0.008235
    33  H    0.154779  -0.000999
    34  H    0.125999   0.012605
    35  H    0.143604   0.000134
    36  H    0.123761   0.009908
 Sum of Mulliken charges =  -1.00000   1.00000

 Dipole moment (field-independent basis, Debye):
    X=              6.1763    Y=              2.9320    Z=              1.0741  Tot=              6.9208
 Quadrupole moment (field-independent basis, Debye-Ang):
   XX=           -161.7675   YY=           -129.4023   ZZ=           -117.9509
   XY=            -15.5099   XZ=              4.0062   YZ=              0.9918

 Summary of Natural Population Analysis:

                                       Natural Population
                Natural  -----------------------------------------------
    Atom  No    Charge         Core      Valence    Rydberg      Total
 -----------------------------------------------------------------------
      C    1   -0.29270      0.99966     2.28849    0.00454     3.29270
      C    2   -0.08028      0.99963     2.07148    0.00918     3.08028
      N    3   -0.27436      0.99970     2.76104    0.01362     3.77436
      C    4   -0.07645      0.99963     2.06520    0.01162     3.07645
      C    5   -0.29850      0.99967     2.29448    0.00435     3.29850
      C    6   -0.02959      0.99953     2.01465    0.01541     3.02959
      C    7   -0.30040      0.99965     2.29351    0.00723     3.30040
      C    8    0.11810      0.99959     1.86199    0.02031     2.88190
      N    9   -0.29011      0.99964     2.77846    0.01201     3.79011
      C   10    0.12679      0.99948     1.86122    0.01251     2.87321
      C   11   -0.15305      0.99940     2.14113    0.01252     3.15305
      S   12    0.21180      4.99940     2.76867    0.02013     7.78820
      C   13    0.28714      0.99961     1.69270    0.02055     2.71286
      O   14   -0.27262      0.99988     3.26581    0.00693     4.27262
      C   15   -0.32399      0.99964     2.32025    0.00410     3.32399
      C   16   -0.29747      0.99964     2.29334    0.00449     3.29747
      H   17    0.10699      0.00000     0.39195    0.00106     0.39301
      H   18    0.08962      0.00000     0.40950    0.00088     0.41038
      H   19    0.10644      0.00000     0.39251    0.00105     0.39356
      H   20    0.08831      0.00000     0.41021    0.00148     0.41169
      H   21    0.07360      0.00000     0.42357    0.00284     0.42640
      H   22    0.09433      0.00000     0.40460    0.00107     0.40567
      H   23    0.08693      0.00000     0.41200    0.00107     0.41307
      H   24    0.09656      0.00000     0.40195    0.00149     0.40344
      H   25    0.09356      0.00000     0.40485    0.00160     0.40644
      H   26    0.09463      0.00000     0.40444    0.00093     0.40537
      H   27    0.10713      0.00000     0.39119    0.00169     0.39287
      H   28    0.10017      0.00000     0.39895    0.00088     0.39983
      H   29    0.10644      0.00000     0.39264    0.00092     0.39356
      H   30    0.09574      0.00000     0.40341    0.00085     0.40426
      H   31    0.10030      0.00000     0.39871    0.00098     0.39970
      H   32    0.10033      0.00000     0.39868    0.00099     0.39967
      H   33    0.10134      0.00000     0.39706    0.00160     0.39866
      H   34    0.09906      0.00000     0.39999    0.00095     0.40094
      H   35    0.10526      0.00000     0.39368    0.00106     0.39474
      H   36    0.09896      0.00000     0.40007    0.00097     0.40104
 =======================================================================
   * Total *   -0.00000     19.99375    44.80238    0.20387    65.00000

 Normal termination of Gaussian 16 at Thu Dec 10 22:25:30 2020.
