 Gaussian 16, Revision A.03,

 -----------------------------------------------------------
 # opt freq B3LYP/6-31G(d) empiricaldispersion=gd3bj scf=xqc
 -----------------------------------------------------------

 ------------------------------
 CID_91073619_JID_5463_neutraal
 ------------------------------
 Symbolic Z-matrix:
 Charge =  0 Multiplicity = 1

 SCF Done:  E(RB3LYP) =  -666.502354818     A.U. after   15 cycles
 SCF Done:  E(RB3LYP) =  -666.507187877     A.U. after   13 cycles
 SCF Done:  E(RB3LYP) =  -666.508281668     A.U. after   13 cycles
 SCF Done:  E(RB3LYP) =  -666.509295634     A.U. after   13 cycles
 SCF Done:  E(RB3LYP) =  -666.510102280     A.U. after   15 cycles
 SCF Done:  E(RB3LYP) =  -666.511329694     A.U. after   12 cycles
 SCF Done:  E(RB3LYP) =  -666.512027602     A.U. after   13 cycles
 SCF Done:  E(RB3LYP) =  -666.512189922     A.U. after   12 cycles
 SCF Done:  E(RB3LYP) =  -666.512370962     A.U. after   11 cycles
 SCF Done:  E(RB3LYP) =  -666.512491780     A.U. after   12 cycles
 SCF Done:  E(RB3LYP) =  -666.513714665     A.U. after   10 cycles
 SCF Done:  E(RB3LYP) =  -666.513722022     A.U. after   11 cycles
 SCF Done:  E(RB3LYP) =  -666.513723111     A.U. after   10 cycles
 SCF Done:  E(RB3LYP) =  -666.513724213     A.U. after   10 cycles
 SCF Done:  E(RB3LYP) =  -666.513724366     A.U. after    8 cycles
 Optimization completed.
    -- Stationary point found.
 Normal termination of Gaussian 16 at Thu Dec 10 16:35:55 2020.

 --------------------------------------------------------------------
 #N Geom=AllCheck Guess=TCheck SCRF=Check GenChk RB3LYP/6-31G(d) Freq
 --------------------------------------------------------------------

 Structure from the checkpoint file:  "JID_5463.chk"
 ------------------------------
 CID_91073619_JID_5463_neutraal
 ------------------------------
 Charge =  0 Multiplicity = 1

 SCF Done:  E(RB3LYP) =  -666.513724366     A.U. after    1 cycles

  Exact polarizability: 218.797   0.980 139.595  -9.993   0.540  76.802
 Approx polarizability: 286.387  11.163 238.805 -19.341   1.557 117.151

                      1                      2                      3
                      A                      A                      A
 Frequencies --     34.7975                36.2849                56.0209
 Red. masses --      3.3191                 3.4876                 6.6222
 Frc consts  --      0.0024                 0.0027                 0.0122
 IR Inten    --      0.3957                 1.5501                 0.8708

                      4                      5                      6
                      A                      A                      A
 Frequencies --     80.5941                90.9037               128.7947
 Red. masses --      4.5946                 4.5685                 2.1874
 Frc consts  --      0.0176                 0.0222                 0.0214
 IR Inten    --      1.3436                 4.1999                 9.6887

                      7                      8                      9
                      A                      A                      A
 Frequencies --    138.1288               155.4356               190.7362
 Red. masses --      2.2518                 1.8028                 1.0385
 Frc consts  --      0.0253                 0.0257                 0.0223
 IR Inten    --      3.6006                 0.6645                 0.0655

                     10                     11                     12
                      A                      A                      A
 Frequencies --    234.7043               275.4894               282.8833
 Red. masses --      3.5694                 3.9199                 3.8840
 Frc consts  --      0.1158                 0.1753                 0.1831
 IR Inten    --      3.9326                 2.8424                 4.4437

                     13                     14                     15
                      A                      A                      A
 Frequencies --    339.5149               379.2529               383.7431
 Red. masses --      4.1467                 3.2117                 5.2370
 Frc consts  --      0.2816                 0.2722                 0.4544
 IR Inten    --      1.2383                15.7077                 1.4810

                     16                     17                     18
                      A                      A                      A
 Frequencies --    428.6448               469.4337               501.5832
 Red. masses --      3.4033                 3.3927                 3.5579
 Frc consts  --      0.3684                 0.4405                 0.5274
 IR Inten    --      2.9936                 2.1378                 9.1788

                     19                     20                     21
                      A                      A                      A
 Frequencies --    525.6682               549.4991               561.3834
 Red. masses --      1.6642                 3.3830                 3.4729
 Frc consts  --      0.2709                 0.6019                 0.6449
 IR Inten    --     30.3390                10.4618                 2.8459

                     22                     23                     24
                      A                      A                      A
 Frequencies --    610.8586               650.1576               661.3487
 Red. masses --      3.8352                 2.3371                 2.7793
 Frc consts  --      0.8432                 0.5821                 0.7162
 IR Inten    --      3.8915                63.7892                21.6841

                     25                     26                     27
                      A                      A                      A
 Frequencies --    678.1285               717.6966               752.0356
 Red. masses --      4.7533                 2.1298                 1.7423
 Frc consts  --      1.2879                 0.6463                 0.5806
 IR Inten    --      8.8086                20.4428                 2.0389

                     28                     29                     30
                      A                      A                      A
 Frequencies --    788.9787               796.5419               826.7843
 Red. masses --      2.9523                 1.9996                 2.8980
 Frc consts  --      1.0828                 0.7475                 1.1671
 IR Inten    --     18.1365                26.8375                18.5307

                     31                     32                     33
                      A                      A                      A
 Frequencies --    877.3142               893.6636               898.8612
 Red. masses --      1.7011                 1.5043                 2.8929
 Frc consts  --      0.7714                 0.7079                 1.3771
 IR Inten    --     21.5653                 0.3017                 4.8531

                     34                     35                     36
                      A                      A                      A
 Frequencies --    969.1934               993.7058              1018.3908
 Red. masses --      1.2582                 2.3130                 5.6649
 Frc consts  --      0.6963                 1.3457                 3.4616
 IR Inten    --      0.6337                 2.5032                 2.0282

                     37                     38                     39
                      A                      A                      A
 Frequencies --   1033.9389              1048.7426              1068.3404
 Red. masses --      1.7568                 1.6859                 1.7118
 Frc consts  --      1.1065                 1.0925                 1.1511
 IR Inten    --     12.1602                28.0070                 8.7470

                     40                     41                     42
                      A                      A                      A
 Frequencies --   1071.9356              1080.7207              1121.4708
 Red. masses --      1.6626                 1.3748                 1.5500
 Frc consts  --      1.1256                 0.9460                 1.1486
 IR Inten    --      7.0033                16.9493                 4.0470

                     43                     44                     45
                      A                      A                      A
 Frequencies --   1197.2285              1212.2815              1232.1215
 Red. masses --      1.1840                 1.5558                 1.6509
 Frc consts  --      0.9999                 1.3472                 1.4766
 IR Inten    --     33.5459                22.4517                21.6225

                     46                     47                     48
                      A                      A                      A
 Frequencies --   1255.8646              1303.8760              1339.6142
 Red. masses --      3.4622                 3.3325                 2.6072
 Frc consts  --      3.2173                 3.3380                 2.7567
 IR Inten    --    189.8557                 4.2085                80.8860

                     49                     50                     51
                      A                      A                      A
 Frequencies --   1349.1130              1367.4256              1425.9471
 Red. masses --      2.0836                 3.7593                 1.6323
 Frc consts  --      2.2344                 4.1416                 1.9555
 IR Inten    --    217.5926                99.4634                99.6527

                     52                     53                     54
                      A                      A                      A
 Frequencies --   1428.1453              1429.9513              1502.1300
 Red. masses --      1.2705                 1.7184                 1.0591
 Frc consts  --      1.5268                 2.0703                 1.4080
 IR Inten    --     19.8501                12.8517                32.1167

                     55                     56                     57
                      A                      A                      A
 Frequencies --   1502.7836              1506.1671              1514.8624
 Red. masses --      1.0567                 1.0651                 1.1536
 Frc consts  --      1.4061                 1.4236                 1.5598
 IR Inten    --      1.0224                13.7352                 1.6830

                     58                     59                     60
                      A                      A                      A
 Frequencies --   1515.9964              1527.9767              1540.3360
 Red. masses --      1.1662                 2.2711                 2.3920
 Frc consts  --      1.5791                 3.1241                 3.3439
 IR Inten    --     34.4057                60.9692                41.4281

                     61                     62                     63
                      A                      A                      A
 Frequencies --   1641.6418              1656.2290              1711.6841
 Red. masses --      5.9102                 5.8183                 9.4172
 Frc consts  --      9.3844                 9.4035                16.2561
 IR Inten    --     61.5009               222.7070               290.6084

                     64                     65                     66
                      A                      A                      A
 Frequencies --   1745.7064              1793.8093              3064.1073
 Red. masses --      6.4335                 7.8762                 1.0381
 Frc consts  --     11.5515                14.9320                 5.7423
 IR Inten    --     47.4747               459.3846                 6.2238

                     67                     68                     69
                      A                      A                      A
 Frequencies --   3069.3769              3073.0456              3119.6562
 Red. masses --      1.0396                 1.0585                 1.1001
 Frc consts  --      5.7703                 5.8898                 6.3082
 IR Inten    --      2.8684                27.7801                 7.6283

                     70                     71                     72
                      A                      A                      A
 Frequencies --   3138.4732              3174.5469              3174.7755
 Red. masses --      1.0963                 1.1014                 1.1043
 Frc consts  --      6.3624                 6.5394                 6.5580
 IR Inten    --      7.9295                 7.8540                10.6579

                     73                     74                     75
                      A                      A                      A
 Frequencies --   3183.8163              3193.8716              3196.9370
 Red. masses --      1.1135                 1.0878                 1.0904
 Frc consts  --      6.6501                 6.5378                 6.5663
 IR Inten    --     32.3828                12.7906                 3.0225

                     76                     77                     78
                      A                      A                      A
 Frequencies --   3217.3873              3237.1343              3582.6804
 Red. masses --      1.0932                 1.0925                 1.0753
 Frc consts  --      6.6677                 6.7453                 8.1322
 IR Inten    --     10.4811                 8.5437                18.8087

 - Thermochemistry -
 -------------------
 Temperature   298.150 Kelvin.  Pressure   1.00000 Atm.
 Atom     1 has atomic number  6 and mass  12.00000

 Molecular mass:   203.10586 amu.
 Principal axes and moments of inertia in atomic units:
                           1         2         3
     Eigenvalues --  1342.033686681.711967504.21878
           X            0.99991  -0.01187   0.00588
           Y            0.01199   0.99972  -0.02020
           Z           -0.00564   0.02027   0.99978
 This molecule is an asymmetric top.
 Rotational symmetry number  1.
 Warning -- assumption of classical behavior for rotation
           may cause significant error
 Rotational temperatures (Kelvin)      0.06454     0.01296     0.01154
 Rotational constants (GHZ):           1.34478     0.27010     0.24050
 Zero-point vibrational energy     595315.7 (Joules/Mol)
                                  142.28386 (Kcal/Mol)
 Warning -- explicit consideration of  22 degrees of freedom as
           vibrations may cause significant error
 Vibrational temperatures:     50.07    52.21    80.60   115.96   130.79
          (Kelvin)            185.31   198.74   223.64   274.43   337.69
                              396.37   407.01   488.49   545.66   552.12
                              616.72   675.41   721.67   756.32   790.61
                              807.71   878.89   935.43   951.53   975.68
                             1032.61  1082.01  1135.16  1146.05  1189.56
                             1262.26  1285.78  1293.26  1394.45  1429.72
                             1465.24  1487.61  1508.91  1537.10  1542.28
                             1554.92  1613.55  1722.54  1744.20  1772.75
                             1806.91  1875.99  1927.41  1941.07  1967.42
                             2051.62  2054.78  2057.38  2161.23  2162.17
                             2167.04  2179.55  2181.18  2198.42  2216.20
                             2361.96  2382.94  2462.73  2511.68  2580.89
                             4408.57  4416.15  4421.43  4488.49  4515.56
                             4567.46  4567.79  4580.80  4595.27  4599.68
                             4629.10  4657.51  5154.68

 Zero-point correction=                           0.226744 (Hartree/Particle)
 Thermal correction to Energy=                    0.241554
 Thermal correction to Enthalpy=                  0.242498
 Thermal correction to Gibbs Free Energy=         0.183380
 Sum of electronic and zero-point Energies=           -666.286981
 Sum of electronic and thermal Energies=              -666.272170
 Sum of electronic and thermal Enthalpies=            -666.271226
 Sum of electronic and thermal Free Energies=         -666.330344

                     E (Thermal)             CV                S
                      KCal/Mol        Cal/Mol-Kelvin    Cal/Mol-Kelvin
 Total                  151.577             54.614            124.424
 Electronic               0.000              0.000              0.000
 Translational            0.889              2.981             41.830
 Rotational               0.889              2.981             32.576
 Vibrational            149.800             48.653             50.018
 Vibration     1          0.594              1.983              5.535
 Vibration     2          0.594              1.982              5.452
 Vibration     3          0.596              1.975              4.593
 Vibration     4          0.600              1.962              3.876
 Vibration     5          0.602              1.956              3.641
 Vibration     6          0.611              1.924              2.964
 Vibration     7          0.614              1.915              2.830
 Vibration     8          0.620              1.897              2.605
 Vibration     9          0.634              1.853              2.221
 Vibration    10          0.655              1.788              1.843
 Vibration    11          0.677              1.719              1.562
 Vibration    12          0.682              1.705              1.516
 Vibration    13          0.719              1.597              1.214
 Vibration    14          0.749              1.514              1.042
 Vibration    15          0.753              1.505              1.024
 Vibration    16          0.790              1.408              0.863
 Vibration    17          0.827              1.318              0.739
 Vibration    18          0.857              1.246              0.654
 Vibration    19          0.881              1.193              0.597
 Vibration    20          0.905              1.141              0.545
 Vibration    21          0.917              1.115              0.521
 Vibration    22          0.970              1.009              0.431

                           ! Non-Optimized Parameters !
 Normal termination of Gaussian 16 at Thu Dec 10 16:44:35 2020.

 ----------------------------------------------------------------------
 # B3LYP/6-311++G(d,p) empiricaldispersion=gd3bj scf=xqc pop=npa geom=c
 heck
 ----------------------------------------------------------------------

 --------------------------------------
 CID_91073619_JID_5463_Energie_neutraal
 --------------------------------------
 Structure from the checkpoint file:  "JID_5463.chk"
 Charge =  0 Multiplicity = 1

 SCF Done:  E(RB3LYP) =  -666.699798605     A.U. after   16 cycles
 Normal termination of Gaussian 16 at Thu Dec 10 16:49:01 2020.

 ----------------------------------------------------------------------
 # B3LYP/6-311++G(d,p) empiricaldispersion=gd3bj scf=xqc pop=npa geom=c
 heck
 ----------------------------------------------------------------------

 ------------------------------------
 CID_91073619_JID_5463_Energie_kation
 ------------------------------------
 Structure from the checkpoint file:  "JID_5463.chk"
 Charge =  1 Multiplicity = 2

 SCF Done:  E(UB3LYP) =  -666.407669730     A.U. after   26 cycles
 Normal termination of Gaussian 16 at Thu Dec 10 16:59:45 2020.
 Gaussian 16:  ES64L-G16RevA.03 25-Dec-2016

 ----------------------------------------------------------------------
 # B3LYP/6-311++G(d,p) empiricaldispersion=gd3bj scf=xqc pop=npa geom=c
 heck
 ----------------------------------------------------------------------

 -----------------------------------
 CID_91073619_JID_5463_Energie_anion
 -----------------------------------
 Structure from the checkpoint file:  "JID_5463.chk"
 Charge = -1 Multiplicity = 2

                         Standard orientation:
 ---------------------------------------------------------------------
 Center     Atomic      Atomic             Coordinates (Angstroms)
 Number     Number       Type             X           Y           Z
 ---------------------------------------------------------------------
      1          6           0       -4.219037    0.421082   -0.815779
      2          6           0       -3.681672   -0.857606   -0.203798
      3          8           0       -4.363268   -1.867648   -0.106097
      4          7           0       -2.370731   -0.876318    0.241505
      5          6           0       -1.363649    0.113085    0.212619
      6          6           0       -0.062595   -0.279328   -0.126977
      7          6           0        0.984901    0.649872   -0.140992
      8          6           0        0.713668    1.994628    0.156064
      9          6           0       -0.575738    2.374751    0.512484
     10          6           0       -1.615835    1.445716    0.559785
     11          7           0        2.281566    0.294078   -0.544470
     12          6           0        2.966701   -0.587686    0.080321
     13          6           0        2.613289   -1.318993    1.351122
     14          7           0        4.204231   -1.000186   -0.459176
     15          6           0        5.014516   -0.110262   -0.865580
     16          1           0       -5.033996    0.142240   -1.485710
     17          1           0       -3.457480    0.985308   -1.359401
     18          1           0       -4.631296    1.071092   -0.035902
     19          1           0       -2.081403   -1.811664    0.503533
     20          1           0        0.131729   -1.308134   -0.415771
     21          1           0        1.523060    2.715818    0.114347
     22          1           0       -0.776957    3.410178    0.772233
     23          1           0       -2.604805    1.748304    0.880609
     24          1           0        3.472323   -1.303438    2.030428
     25          1           0        1.745789   -0.876353    1.841948
     26          1           0        2.402686   -2.371626    1.131181
     27          1           0        4.810640    0.963654   -0.781888
     28          1           0        5.953097   -0.418771   -1.327468
 ---------------------------------------------------------------------

 SCF Done:  E(UB3LYP) =  -666.705505154     A.U. after   33 cycles
 SCF Done:  E(UB3LYP) =  -666.705505154     a.u. after    1 cycles

 The electronic state is 2-A.
 Alpha  occ. eigenvalues --  -18.99800 -14.24896 -14.14929 -14.14753 -10.18590
 Alpha  occ. eigenvalues --  -10.11106 -10.08563 -10.08456 -10.08436 -10.06746
 Alpha  occ. eigenvalues --  -10.05832 -10.05666 -10.04988 -10.04330 -10.04008
 Alpha  occ. eigenvalues --   -0.95083  -0.83884  -0.81385  -0.75543  -0.71785
 Alpha  occ. eigenvalues --   -0.65726  -0.63304  -0.62961  -0.59934  -0.52543
 Alpha  occ. eigenvalues --   -0.51401  -0.49633  -0.46489  -0.43393  -0.39157
 Alpha  occ. eigenvalues --   -0.38276  -0.37887  -0.36559  -0.35132  -0.34537
 Alpha  occ. eigenvalues --   -0.32806  -0.32523  -0.31530  -0.31346  -0.30813
 Alpha  occ. eigenvalues --   -0.29208  -0.28600  -0.26454  -0.26197  -0.25783
 Alpha  occ. eigenvalues --   -0.24766  -0.20591  -0.19725  -0.17177  -0.16890
 Alpha  occ. eigenvalues --   -0.15364  -0.12674  -0.11207  -0.09538   0.04764
 Alpha virt. eigenvalues --    0.06396   0.07847   0.08303   0.08732   0.09424
 Alpha virt. eigenvalues --    0.09886   0.10121   0.11047   0.11339   0.11977
 Alpha virt. eigenvalues --    0.12120   0.12356   0.13112   0.13656   0.13966

  Beta  occ. eigenvalues --  -18.99788 -14.24898 -14.14774 -14.14506 -10.18570
  Beta  occ. eigenvalues --  -10.11090 -10.08548 -10.08379 -10.08163 -10.06752
  Beta  occ. eigenvalues --  -10.05756 -10.05656 -10.04940 -10.04339 -10.03546
  Beta  occ. eigenvalues --   -0.95057  -0.83856  -0.80810  -0.75156  -0.71516
  Beta  occ. eigenvalues --   -0.65685  -0.63233  -0.62707  -0.59730  -0.52371
  Beta  occ. eigenvalues --   -0.51196  -0.49145  -0.46204  -0.43189  -0.39041
  Beta  occ. eigenvalues --   -0.38204  -0.37581  -0.36401  -0.34935  -0.34347
  Beta  occ. eigenvalues --   -0.32507  -0.32421  -0.31490  -0.31281  -0.30466
  Beta  occ. eigenvalues --   -0.29052  -0.28476  -0.26288  -0.25965  -0.25679
  Beta  occ. eigenvalues --   -0.24661  -0.20386  -0.18412  -0.17143  -0.16495
  Beta  occ. eigenvalues --   -0.13740  -0.12545  -0.10584  -0.09125
  Beta virt. eigenvalues --    0.06587   0.07961   0.08301   0.08742   0.09410
  Beta virt. eigenvalues --    0.09817   0.10052   0.10710   0.11134   0.11806
  Beta virt. eigenvalues --    0.11920   0.12108   0.12575   0.13083   0.13580

 Mulliken charges and spin densities:
               1          2
     1  C   -0.147937  -0.310943
     2  C    0.008474   0.086227
     3  O   -0.358710   0.008737
     4  N   -0.128689  -0.028754
     5  C   -0.218111   0.175437
     6  C   -0.023086   0.066133
     7  C   -0.789920  -0.057281
     8  C   -0.026065   0.040242
     9  C   -0.055858  -0.148908
    10  C    0.238068  -0.024035
    11  N    0.026228   0.106492
    12  C   -0.173469   0.170112
    13  C   -0.465115  -0.133998
    14  N   -0.001172   0.028394
    15  C   -0.295093   0.473025
    16  H    0.098215   0.065332
    17  H    0.130222   0.040260
    18  H   -0.014161   0.184763
    19  H    0.252598   0.038442
    20  H    0.181251  -0.000769
    21  H    0.151038  -0.011693
    22  H   -0.001159   0.156913
    23  H    0.107234   0.005300
    24  H    0.154256  -0.003331
    25  H    0.122379   0.001515
    26  H    0.059681   0.113232
    27  H    0.056408  -0.025819
    28  H    0.112491  -0.015029
 Sum of Mulliken charges =  -1.00000   1.00000

 Dipole moment (field-independent basis, Debye):
    X=             -4.7309    Y=              2.3017    Z=              1.8503  Tot=              5.5770
 Quadrupole moment (field-independent basis, Debye-Ang):
   XX=           -176.2685   YY=           -109.9139   ZZ=           -102.4138
   XY=             -2.7185   XZ=              8.4177   YZ=              0.0092

 Summary of Natural Population Analysis:

                                       Natural Population
                Natural  -----------------------------------------------
    Atom  No    Charge         Core      Valence    Rydberg      Total
 -----------------------------------------------------------------------
      C    1   -0.33435      0.99962     2.33032    0.00441     3.33435
      C    2    0.34533      0.99971     1.63391    0.02105     2.65467
      O    3   -0.32565      0.99988     3.31965    0.00612     4.32565
      N    4   -0.31116      0.99964     2.80199    0.00953     3.81116
      C    5    0.07421      0.99947     1.91645    0.00987     2.92579
      C    6   -0.13066      0.99948     2.12337    0.00782     3.13066
      C    7    0.09902      0.99947     1.88983    0.01168     2.90098
      C    8   -0.10937      0.99951     2.10061    0.00925     3.10937
      C    9   -0.09825      0.99958     2.08924    0.00943     3.09825
      C   10   -0.12849      0.99953     2.11975    0.00921     3.12849
      N   11   -0.23462      0.99958     2.72302    0.01202     3.73462
      C   12    0.27165      0.99956     1.71186    0.01693     2.72835
      C   13   -0.32192      0.99963     2.31614    0.00615     3.32192
      N   14   -0.23807      0.99965     2.72458    0.01384     3.73807
      C   15    0.07648      0.99967     1.91004    0.01381     2.92352
      H   16    0.10959      0.00000     0.38927    0.00114     0.39041
      H   17    0.11337      0.00000     0.38574    0.00089     0.38663
      H   18    0.11001      0.00000     0.38857    0.00142     0.38999
      H   19    0.19600      0.00000     0.30143    0.00257     0.30400
      H   20    0.10172      0.00000     0.39674    0.00154     0.39828
      H   21    0.10119      0.00000     0.39732    0.00149     0.39881
      H   22    0.09580      0.00000     0.40328    0.00092     0.40420
      H   23    0.09715      0.00000     0.40130    0.00154     0.40285
      H   24    0.10511      0.00000     0.39411    0.00079     0.39489
      H   25    0.10176      0.00000     0.39748    0.00076     0.39824
      H   26    0.10784      0.00000     0.39071    0.00146     0.39216
      H   27    0.06255      0.00000     0.43566    0.00179     0.43745
      H   28    0.06377      0.00000     0.43501    0.00122     0.43623
 =======================================================================
   * Total *    0.00000     14.99398    38.82737    0.17865    54.00000

 Normal termination of Gaussian 16 at Thu Dec 10 17:12:43 2020.
