 Gaussian 16, Revision A.03,

 -----------------------------------------------------------
 # opt freq B3LYP/6-31G(d) empiricaldispersion=gd3bj scf=xqc
 -----------------------------------------------------------

 ------------------------------
 CID_64240525_JID_6712_neutraal
 ------------------------------
 Symbolic Z-matrix:
 Charge =  0 Multiplicity = 1

 SCF Done:  E(RB3LYP) =  -695.848023710     A.U. after   14 cycles
 SCF Done:  E(RB3LYP) =  -695.852714107     A.U. after   11 cycles
 SCF Done:  E(RB3LYP) =  -695.853485747     A.U. after   11 cycles
 SCF Done:  E(RB3LYP) =  -695.854117419     A.U. after   12 cycles
 SCF Done:  E(RB3LYP) =  -695.854889558     A.U. after   12 cycles
 SCF Done:  E(RB3LYP) =  -695.855583121     A.U. after   11 cycles
 SCF Done:  E(RB3LYP) =  -695.855904115     A.U. after   12 cycles
 SCF Done:  E(RB3LYP) =  -695.856030914     A.U. after   11 cycles
 SCF Done:  E(RB3LYP) =  -695.856141787     A.U. after   11 cycles
 SCF Done:  E(RB3LYP) =  -695.856269908     A.U. after   12 cycles
 SCF Done:  E(RB3LYP) =  -695.865204557     A.U. after    9 cycles
 SCF Done:  E(RB3LYP) =  -695.865209053     A.U. after    9 cycles
 SCF Done:  E(RB3LYP) =  -695.865211003     A.U. after    9 cycles
 SCF Done:  E(RB3LYP) =  -695.865212085     A.U. after    8 cycles
 SCF Done:  E(RB3LYP) =  -695.865212885     A.U. after    8 cycles
 SCF Done:  E(RB3LYP) =  -695.865212947     A.U. after    6 cycles
 Optimization completed.
    -- Stationary point found.
 Normal termination of Gaussian 16 at Thu Dec 10 23:54:07 2020.

 --------------------------------------------------------------------
 #N Geom=AllCheck Guess=TCheck SCRF=Check GenChk RB3LYP/6-31G(d) Freq
 --------------------------------------------------------------------

 Structure from the checkpoint file:  "JID_6712.chk"
 ------------------------------
 CID_64240525_JID_6712_neutraal
 ------------------------------
 Charge =  0 Multiplicity = 1

 SCF Done:  E(RB3LYP) =  -695.865212947     A.U. after    1 cycles

  Exact polarizability: 172.130  -1.749 149.428  -1.932   2.659 126.931
 Approx polarizability: 209.808  -4.971 210.891  -5.283  12.905 203.456

                      1                      2                      3
                      A                      A                      A
 Frequencies --     35.0234                40.0684                55.8379
 Red. masses --      3.0192                 3.6591                 2.9059
 Frc consts  --      0.0022                 0.0035                 0.0053
 IR Inten    --      0.0698                 0.1723                 0.2640

                      4                      5                      6
                      A                      A                      A
 Frequencies --     62.7300                88.7625               119.2011
 Red. masses --      3.0439                 3.1893                 2.1491
 Frc consts  --      0.0071                 0.0148                 0.0180
 IR Inten    --      1.2711                 0.4879                 0.0605

                      7                      8                      9
                      A                      A                      A
 Frequencies --    128.7138               155.8338               163.1316
 Red. masses --      2.6116                 2.2064                 3.3785
 Frc consts  --      0.0255                 0.0316                 0.0530
 IR Inten    --      2.0130                 0.6322                 2.1893

                     10                     11                     12
                      A                      A                      A
 Frequencies --    187.5240               213.6353               226.8297
 Red. masses --      2.2677                 1.9209                 1.8466
 Frc consts  --      0.0470                 0.0517                 0.0560
 IR Inten    --      0.7628                 0.6746                 0.5251

                     13                     14                     15
                      A                      A                      A
 Frequencies --    237.4792               245.1842               273.0477
 Red. masses --      1.3945                 1.4086                 2.2766
 Frc consts  --      0.0463                 0.0499                 0.1000
 IR Inten    --      2.9101                 1.1519                 0.1809

                     16                     17                     18
                      A                      A                      A
 Frequencies --    301.0013               304.0081               336.0310
 Red. masses --      1.8716                 1.7521                 2.9897
 Frc consts  --      0.0999                 0.0954                 0.1989
 IR Inten    --      0.9772                 0.2207                20.7107

                     19                     20                     21
                      A                      A                      A
 Frequencies --    359.7036               398.3647               416.4128
 Red. masses --      2.1651                 2.8585                 2.5644
 Frc consts  --      0.1651                 0.2673                 0.2620
 IR Inten    --      4.4469                 1.1734                 4.6817

                     22                     23                     24
                      A                      A                      A
 Frequencies --    434.5522               455.6890               472.6038
 Red. masses --      3.0949                 2.3700                 3.1303
 Frc consts  --      0.3443                 0.2900                 0.4119
 IR Inten    --      0.9825                 7.9683                 2.6589

                     25                     26                     27
                      A                      A                      A
 Frequencies --    495.4382               540.3159               571.3336
 Red. masses --      2.8250                 3.3885                 3.7918
 Frc consts  --      0.4086                 0.5828                 0.7292
 IR Inten    --      6.6937                 3.2353                 6.0129

                     28                     29                     30
                      A                      A                      A
 Frequencies --    619.7999               678.6665               757.1151
 Red. masses --      2.6747                 3.0489                 1.4048
 Frc consts  --      0.6054                 0.8274                 0.4744
 IR Inten    --      5.5710                 6.7631                15.0110

                     31                     32                     33
                      A                      A                      A
 Frequencies --    763.2473               772.3946               804.2785
 Red. masses --      1.7673                 1.2895                 2.7584
 Frc consts  --      0.6066                 0.4533                 1.0513
 IR Inten    --     79.4053                 7.6125                16.1231

                     34                     35                     36
                      A                      A                      A
 Frequencies --    855.4631               873.2540               886.7134
 Red. masses --      1.8866                 1.9830                 1.9575
 Frc consts  --      0.8134                 0.8910                 0.9068
 IR Inten    --      1.1947                 0.4834                17.3891

                     37                     38                     39
                      A                      A                      A
 Frequencies --    890.4676               901.0344               915.9641
 Red. masses --      1.9453                 1.6292                 1.7270
 Frc consts  --      0.9088                 0.7793                 0.8537
 IR Inten    --     50.8849                 2.5497                 2.7863

                     40                     41                     42
                      A                      A                      A
 Frequencies --    933.3437               940.8100               953.6675
 Red. masses --      1.9190                 1.6096                 2.0472
 Frc consts  --      0.9849                 0.8394                 1.0970
 IR Inten    --      4.9413                 8.4282                 1.4074

                     43                     44                     45
                      A                      A                      A
 Frequencies --   1007.2930              1019.2593              1023.8471
 Red. masses --      1.5708                 1.4207                 1.4653
 Frc consts  --      0.9390                 0.8696                 0.9050
 IR Inten    --     12.3804                 3.2241                 2.6535

                     46                     47                     48
                      A                      A                      A
 Frequencies --   1058.6935              1067.5674              1084.6167
 Red. masses --      2.0002                 2.3517                 2.1352
 Frc consts  --      1.3209                 1.5792                 1.4800
 IR Inten    --      5.0486                 3.4448                 2.3519

                     49                     50                     51
                      A                      A                      A
 Frequencies --   1098.9888              1112.9855              1137.9747
 Red. masses --      2.0500                 1.7941                 1.8137
 Frc consts  --      1.4588                 1.3094                 1.3838
 IR Inten    --      0.8531                 2.3562                15.4748

                     52                     53                     54
                      A                      A                      A
 Frequencies --   1157.2925              1167.9343              1178.3285
 Red. masses --      2.3468                 2.0603                 2.3740
 Frc consts  --      1.8519                 1.6558                 1.9421
 IR Inten    --     12.8015                10.0638                12.4834

                     55                     56                     57
                      A                      A                      A
 Frequencies --   1188.8427              1198.8515              1220.9910
 Red. masses --      2.2724                 1.9737                 2.0643
 Frc consts  --      1.8923                 1.6713                 1.8132
 IR Inten    --      7.5330                 8.3128                27.1368

                     58                     59                     60
                      A                      A                      A
 Frequencies --   1227.0765              1235.7068              1286.6275
 Red. masses --      2.0690                 1.5342                 1.4356
 Frc consts  --      1.8355                 1.3803                 1.4002
 IR Inten    --     22.2893                46.2410                 5.5055

                     61                     62                     63
                      A                      A                      A
 Frequencies --   1296.1084              1308.9989              1315.7666
 Red. masses --      1.2088                 1.2581                 1.2018
 Frc consts  --      1.1964                 1.2701                 1.2259
 IR Inten    --      9.8633                 4.7696                 9.5025

                     64                     65                     66
                      A                      A                      A
 Frequencies --   1316.8185              1350.8675              1364.2389
 Red. masses --      1.2165                 1.4063                 1.3224
 Frc consts  --      1.2428                 1.5120                 1.4501
 IR Inten    --      3.2548                59.6231                12.7692

                     67                     68                     69
                      A                      A                      A
 Frequencies --   1368.5111              1376.1495              1392.5441
 Red. masses --      1.3007                 1.4631                 1.4235
 Frc consts  --      1.4352                 1.6325                 1.6264
 IR Inten    --      9.5708                21.8313                 0.8700

                     70                     71                     72
                      A                      A                      A
 Frequencies --   1395.7251              1401.7638              1406.0427
 Red. masses --      1.4414                 1.4017                 1.3600
 Frc consts  --      1.6544                 1.6228                 1.5841
 IR Inten    --     11.6561                 8.5515                 8.7703

                     73                     74                     75
                      A                      A                      A
 Frequencies --   1407.6689              1416.8765              1421.2803
 Red. masses --      1.3242                 1.5481                 1.3422
 Frc consts  --      1.5460                 1.8311                 1.5974
 IR Inten    --      7.1086                 2.6793                13.7930

                     76                     77                     78
                      A                      A                      A
 Frequencies --   1435.3215              1443.1630              1445.6518
 Red. masses --      1.3361                 1.2623                 1.2589
 Frc consts  --      1.6218                 1.5489                 1.5501
 IR Inten    --     30.0383                 5.1968                16.2846

                     79                     80                     81
                      A                      A                      A
 Frequencies --   1504.6238              1512.4300              1515.7947
 Red. masses --      1.3878                 1.0984                 1.0893
 Frc consts  --      1.8512                 1.4804                 1.4746
 IR Inten    --     25.9482                 5.3676                 0.1050

                     82                     83                     84
                      A                      A                      A
 Frequencies --   1517.1824              1520.1263              1524.4374
 Red. masses --      1.0839                 1.1314                 1.0761
 Frc consts  --      1.4700                 1.5403                 1.4734
 IR Inten    --      5.9379                10.9403                 3.3874

                     85                     86                     87
                      A                      A                      A
 Frequencies --   1526.8985              1529.7122              1533.2095
 Red. masses --      1.0489                 1.0828                 1.0720
 Frc consts  --      1.4408                 1.4928                 1.4847
 IR Inten    --      1.8481                11.2489                 1.6360

                     88                     89                     90
                      A                      A                      A
 Frequencies --   1535.9427              1539.1458              1540.9238
 Red. masses --      1.1236                 1.2012                 1.0721
 Frc consts  --      1.5617                 1.6765                 1.4998
 IR Inten    --      5.5244                13.1779                10.5617

                     91                     92                     93
                      A                      A                      A
 Frequencies --   1543.1028              1552.7769              1553.6042
 Red. masses --      1.0903                 1.1187                 1.1102
 Frc consts  --      1.5296                 1.5892                 1.5788
 IR Inten    --      5.2123                 4.6251                19.0728

                     94                     95                     96
                      A                      A                      A
 Frequencies --   1724.5935              2996.2986              3000.2690
 Red. masses --      9.4251                 1.0825                 1.0698
 Frc consts  --     16.5162                 5.7258                 5.6739
 IR Inten    --    220.0325                25.4235                35.0429

                     97                     98                     99
                      A                      A                      A
 Frequencies --   3025.3467              3029.7217              3040.2801
 Red. masses --      1.0621                 1.0719                 1.0676
 Frc consts  --      5.7275                 5.7973                 5.8142
 IR Inten    --     25.7788                22.3138                14.5461

                    100                    101                    102
                      A                      A                      A
 Frequencies --   3041.6538              3043.4892              3045.0803
 Red. masses --      1.0410                 1.0437                 1.0622
 Frc consts  --      5.6742                 5.6963                 5.8030
 IR Inten    --     11.4002                24.9354                37.3917

                    103                    104                    105
                      A                      A                      A
 Frequencies --   3045.1214              3057.6526              3059.8371
 Red. masses --      1.0652                 1.0749                 1.0620
 Frc consts  --      5.8196                 5.9212                 5.8585
 IR Inten    --     15.4798                 2.7184                 7.2916

                    106                    107                    108
                      A                      A                      A
 Frequencies --   3063.1099              3063.5478              3069.5228
 Red. masses --      1.0706                 1.0747                 1.0829
 Frc consts  --      5.9182                 5.9426                 6.0116
 IR Inten    --    120.0265                32.5790                43.3854

                    109                    110                    111
                      A                      A                      A
 Frequencies --   3074.4409              3083.8568              3097.7670
 Red. masses --      1.0984                 1.0992                 1.0987
 Frc consts  --      6.1173                 6.1589                 6.2117
 IR Inten    --     30.8346                47.3524                41.0459

                    112                    113                    114
                      A                      A                      A
 Frequencies --   3103.9890              3106.3342              3107.1430
 Red. masses --      1.1010                 1.1046                 1.1019
 Frc consts  --      6.2498                 6.2799                 6.2677
 IR Inten    --     44.4508                34.5996                69.8068

                    115                    116                    117
                      A                      A                      A
 Frequencies --   3113.6222              3120.7071              3128.3502
 Red. masses --      1.1013                 1.1014                 1.0925
 Frc consts  --      6.2907                 6.3196                 6.2997
 IR Inten    --     53.9284                35.5584                11.9617

                    118                    119                    120
                      A                      A                      A
 Frequencies --   3146.5118              3175.8113              3503.8806
 Red. masses --      1.0991                 1.0988                 1.0728
 Frc consts  --      6.4114                 6.5295                 7.7604
 IR Inten    --     10.4407                 6.7291                 4.1899

 - Thermochemistry -
 -------------------
 Temperature   298.150 Kelvin.  Pressure   1.00000 Atm.
 Atom     1 has atomic number  6 and mass  12.00000

 Molecular mass:   226.20451 amu.
 Principal axes and moments of inertia in atomic units:
                           1         2         3
     Eigenvalues --  2207.940435471.669876583.88750
           X            0.99999  -0.00394   0.00349
           Y            0.00397   0.99996  -0.00776
           Z           -0.00345   0.00777   0.99996
 This molecule is an asymmetric top.
 Rotational symmetry number  1.
 Warning -- assumption of classical behavior for rotation
           may cause significant error
 Rotational temperatures (Kelvin)      0.03923     0.01583     0.01316
 Rotational constants (GHZ):           0.81739     0.32983     0.27411
 Zero-point vibrational energy    1018135.1 (Joules/Mol)
                                  243.34013 (Kcal/Mol)
 Warning -- explicit consideration of  28 degrees of freedom as
           vibrations may cause significant error
 Vibrational temperatures:     50.39    57.65    80.34    90.25   127.71
          (Kelvin)            171.50   185.19   224.21   234.71   269.81
                              307.37   326.36   341.68   352.77   392.85
                              433.07   437.40   483.47   517.53   573.16
                              599.13   625.22   655.63   679.97   712.83
                              777.39   822.02   891.75   976.45  1089.32
                             1098.14  1111.30  1157.18  1230.82  1256.42
                             1275.78  1281.18  1296.39  1317.87  1342.87
                             1353.62  1372.11  1449.27  1466.49  1473.09
                             1523.22  1535.99  1560.52  1581.20  1601.34
                             1637.29  1665.09  1680.40  1695.35  1710.48
                             1724.88  1756.73  1765.49  1777.91  1851.17
                             1864.81  1883.36  1893.09  1894.61  1943.60
                             1962.84  1968.98  1979.97  2003.56  2008.14
                             2016.83  2022.98  2025.32  2038.57  2044.91
                             2065.11  2076.39  2079.97  2164.82  2176.05
                             2180.89  2182.89  2187.12  2193.33  2196.87
                             2200.91  2205.95  2209.88  2214.49  2217.05
                             2220.18  2234.10  2235.29  2481.31  4311.01
                             4316.72  4352.80  4359.09  4374.28  4376.26
                             4378.90  4381.19  4381.25  4399.28  4402.42
                             4407.13  4407.76  4416.36  4423.43  4436.98
                             4457.00  4465.95  4469.32  4470.49  4479.81
                             4490.00  4501.00  4527.13  4569.28  5041.30

 Zero-point correction=                           0.387787 (Hartree/Particle)
 Thermal correction to Energy=                    0.405719
 Thermal correction to Enthalpy=                  0.406664
 Thermal correction to Gibbs Free Energy=         0.341851
 Sum of electronic and zero-point Energies=           -695.477426
 Sum of electronic and thermal Energies=              -695.459494
 Sum of electronic and thermal Enthalpies=            -695.458549
 Sum of electronic and thermal Free Energies=         -695.523362

                     E (Thermal)             CV                S
                      KCal/Mol        Cal/Mol-Kelvin    Cal/Mol-Kelvin
 Total                  254.593             67.996            136.410
 Electronic               0.000              0.000              0.000
 Translational            0.889              2.981             42.151
 Rotational               0.889              2.981             32.742
 Vibrational            252.815             62.034             61.517
 Vibration     1          0.594              1.982              5.522
 Vibration     2          0.594              1.981              5.256
 Vibration     3          0.596              1.975              4.599
 Vibration     4          0.597              1.972              4.369
 Vibration     5          0.602              1.957              3.687
 Vibration     6          0.609              1.933              3.113
 Vibration     7          0.611              1.925              2.965
 Vibration     8          0.620              1.896              2.600
 Vibration     9          0.623              1.888              2.513
 Vibration    10          0.632              1.857              2.252
 Vibration    11          0.644              1.820              2.012
 Vibration    12          0.650              1.800              1.904
 Vibration    13          0.656              1.783              1.822
 Vibration    14          0.660              1.771              1.765
 Vibration    15          0.676              1.723              1.577
 Vibration    16          0.693              1.672              1.411
 Vibration    17          0.695              1.666              1.395
 Vibration    18          0.717              1.604              1.231
 Vibration    19          0.734              1.555              1.123
 Vibration    20          0.765              1.474              0.969
 Vibration    21          0.780              1.435              0.904
 Vibration    22          0.795              1.395              0.844
 Vibration    23          0.814              1.348              0.779
 Vibration    24          0.829              1.311              0.730
 Vibration    25          0.851              1.260              0.670
 Vibration    26          0.895              1.161              0.565
 Vibration    27          0.927              1.093              0.502
 Vibration    28          0.980              0.990              0.417

 Optimization completed.
    -- Stationary point found.
 Normal termination of Gaussian 16 at Fri Dec 11 00:10:40 2020.

 ----------------------------------------------------------------------
 # B3LYP/6-311++G(d,p) empiricaldispersion=gd3bj scf=xqc pop=npa geom=c
 heck
 ----------------------------------------------------------------------

 --------------------------------------
 CID_64240525_JID_6712_Energie_neutraal
 --------------------------------------
 Structure from the checkpoint file:  "JID_6712.chk"
 Charge =  0 Multiplicity = 1

 SCF Done:  E(RB3LYP) =  -696.061081370     A.U. after   15 cycles
 Normal termination of Gaussian 16 at Fri Dec 11 00:19:09 2020.

 ----------------------------------------------------------------------
 # B3LYP/6-311++G(d,p) empiricaldispersion=gd3bj scf=xqc pop=npa geom=c
 heck
 ----------------------------------------------------------------------

 ------------------------------------
 CID_64240525_JID_6712_Energie_kation
 ------------------------------------
 Structure from the checkpoint file:  "JID_6712.chk"
 Charge =  1 Multiplicity = 2

 SCF Done:  E(UB3LYP) =  -695.771890000     A.U. after   25 cycles
 Normal termination of Gaussian 16 at Fri Dec 11 00:37:43 2020.
 Gaussian 16:  ES64L-G16RevA.03 25-Dec-2016

 ----------------------------------------------------------------------
 # B3LYP/6-311++G(d,p) empiricaldispersion=gd3bj scf=xqc pop=npa geom=c
 heck
 ----------------------------------------------------------------------

 -----------------------------------
 CID_64240525_JID_6712_Energie_anion
 -----------------------------------
 Structure from the checkpoint file:  "JID_6712.chk"
 Charge = -1 Multiplicity = 2

                         Standard orientation:
 ---------------------------------------------------------------------
 Center     Atomic      Atomic             Coordinates (Angstroms)
 Number     Number       Type             X           Y           Z
 ---------------------------------------------------------------------
      1          6           0       -4.908832   -0.060284    0.401175
      2          6           0       -4.046890   -0.724236   -0.677602
      3          6           0       -2.664738   -0.083289   -0.865430
      4          6           0       -1.779908   -0.083301    0.393388
      5          6           0       -1.500088   -1.479184    0.960233
      6          7           0       -0.531074    0.679450    0.152820
      7          6           0       -0.394485    1.923881    0.915338
      8          6           0        0.716171    2.826180    0.390437
      9          6           0        1.997187    2.017615    0.212166
     10          6           0        1.755160    0.960688   -0.862495
     11          6           0        0.425823    0.185388   -0.683290
     12          8           0        0.260634   -0.845940   -1.341476
     13          7           0        2.891081    0.067322   -1.078555
     14          6           0        3.519780   -0.530165    0.103580
     15          6           0        2.662315   -1.416161    1.028310
     16          6           0        2.235074   -2.740585    0.391537
     17          1           0       -4.478682   -0.182534    1.402088
     18          1           0       -5.915072   -0.492820    0.424744
     19          1           0       -5.012692    1.016121    0.214708
     20          1           0       -3.933420   -1.792151   -0.452237
     21          1           0       -4.575266   -0.675749   -1.638304
     22          1           0       -2.121119   -0.598094   -1.661694
     23          1           0       -2.793575    0.960670   -1.185275
     24          1           0       -2.297387    0.486513    1.172547
     25          1           0       -1.058242   -2.126790    0.202223
     26          1           0       -0.807366   -1.412376    1.806381
     27          1           0       -2.428705   -1.932567    1.321972
     28          1           0       -0.208486    1.682437    1.973666
     29          1           0       -1.355870    2.450063    0.873494
     30          1           0        0.858709    3.653595    1.094177
     31          1           0        0.413138    3.264450   -0.569483
     32          1           0        2.255607    1.549520    1.169328
     33          1           0        2.844169    2.648117   -0.078172
     34          1           0        1.610496    1.498605   -1.812719
     35          1           0        2.566966   -0.668656   -1.703483
     36          1           0        4.362045   -1.127821   -0.269120
     37          1           0        3.967776    0.279030    0.691515
     38          1           0        3.248154   -1.616735    1.936789
     39          1           0        1.774197   -0.860145    1.358378
     40          1           0        3.112680   -3.330101    0.096838
     41          1           0        1.649083   -3.344698    1.093525
     42          1           0        1.618320   -2.567051   -0.494026
 ---------------------------------------------------------------------

 SCF Done:  E(UB3LYP) =  -696.049731165     A.U. after   32 cycles

 The electronic state is 2-A.
 Alpha  occ. eigenvalues --  -18.98736 -14.24619 -14.20172 -10.16951 -10.11381
 Alpha  occ. eigenvalues --  -10.11154 -10.10978 -10.09823 -10.07767 -10.07604
 Alpha  occ. eigenvalues --  -10.07420 -10.07206 -10.06595 -10.06426 -10.06307
 Alpha  occ. eigenvalues --  -10.06119  -0.94111  -0.84269  -0.81302  -0.72236
 Alpha  occ. eigenvalues --   -0.69585  -0.67829  -0.64962  -0.63803  -0.58996
 Alpha  occ. eigenvalues --   -0.58758  -0.54951  -0.54092  -0.51167  -0.48641
 Alpha  occ. eigenvalues --   -0.46831  -0.43093  -0.42007  -0.39587  -0.38805
 Alpha  occ. eigenvalues --   -0.37554  -0.36627  -0.36057  -0.34900  -0.34435
 Alpha  occ. eigenvalues --   -0.33594  -0.32710  -0.32603  -0.31856  -0.31357
 Alpha  occ. eigenvalues --   -0.30658  -0.29767  -0.29000  -0.27232  -0.26734
 Alpha  occ. eigenvalues --   -0.26512  -0.25957  -0.25666  -0.25313  -0.24913
 Alpha  occ. eigenvalues --   -0.24469  -0.23691  -0.23436  -0.22852  -0.22430
 Alpha  occ. eigenvalues --   -0.16211  -0.14859  -0.13022   0.04155
 Alpha virt. eigenvalues --    0.06116   0.06617   0.07243   0.08026   0.08288
 Alpha virt. eigenvalues --    0.08536   0.08889   0.09519   0.09934   0.10308
 Alpha virt. eigenvalues --    0.11036   0.11535   0.11671   0.11901   0.11950

  Beta  occ. eigenvalues --  -18.98732 -14.24621 -14.20171 -10.16946 -10.11373
  Beta  occ. eigenvalues --  -10.11151 -10.10940 -10.09817 -10.07737 -10.07586
  Beta  occ. eigenvalues --  -10.07411 -10.07193 -10.06585 -10.06390 -10.06303
  Beta  occ. eigenvalues --  -10.06105  -0.94104  -0.84255  -0.81296  -0.72209
  Beta  occ. eigenvalues --   -0.69560  -0.67806  -0.64931  -0.63763  -0.58955
  Beta  occ. eigenvalues --   -0.58733  -0.54913  -0.54051  -0.51109  -0.48605
  Beta  occ. eigenvalues --   -0.46786  -0.43069  -0.41977  -0.39548  -0.38783
  Beta  occ. eigenvalues --   -0.37516  -0.36602  -0.36033  -0.34868  -0.34414
  Beta  occ. eigenvalues --   -0.33578  -0.32682  -0.32574  -0.31831  -0.31324
  Beta  occ. eigenvalues --   -0.30627  -0.29746  -0.28972  -0.27203  -0.26714
  Beta  occ. eigenvalues --   -0.26485  -0.25935  -0.25625  -0.25272  -0.24888
  Beta  occ. eigenvalues --   -0.24449  -0.23669  -0.23413  -0.22829  -0.22398
  Beta  occ. eigenvalues --   -0.16203  -0.14846  -0.13013
  Beta virt. eigenvalues --    0.06290   0.06698   0.07189   0.07724   0.08414
  Beta virt. eigenvalues --    0.08620   0.08788   0.09315   0.09858   0.10222
  Beta virt. eigenvalues --    0.10575   0.11321   0.11744   0.11898   0.12144

 Mulliken charges and spin densities:
               1          2
     1  C    0.795885  -1.388983
     2  C   -0.849112   0.624522
     3  C    0.436483  -0.375264
     4  C   -1.338931   0.867111
     5  C    0.112686  -0.719488
     6  N    0.432416   0.125355
     7  C    1.175573  -1.325315
     8  C    1.033614  -1.653347
     9  C   -0.992959   0.849254
    10  C    0.263437  -0.574635
    11  C   -0.242008  -0.316841
    12  O   -0.245075   0.009581
    13  N    0.016860   0.021878
    14  C   -0.149938  -0.288020
    15  C   -0.019880  -0.013391
    16  C   -0.431089  -0.175666
    17  H   -0.318767   0.456932
    18  H   -0.254183   0.393802
    19  H   -0.195629   0.340525
    20  H    0.129376   0.001220
    21  H   -0.037070   0.187585
    22  H    0.198845  -0.008217
    23  H   -0.048778   0.199825
    24  H    0.263383  -0.062083
    25  H    0.161128   0.035489
    26  H   -0.142903   0.290398
    27  H    0.027356   0.142483
    28  H   -0.495280   0.691646
    29  H   -0.248450   0.430483
    30  H   -0.713736   0.931644
    31  H    0.003877   0.143750
    32  H    0.026670   0.106488
    33  H   -0.220032   0.422426
    34  H    0.136675   0.093078
    35  H    0.241154  -0.010511
    36  H    0.154148   0.009256
    37  H   -0.122699   0.280080
    38  H   -0.218944   0.390556
    39  H    0.334537  -0.207438
    40  H    0.104824   0.014874
    41  H    0.108828   0.015273
    42  H    0.127708   0.043690
 Sum of Mulliken charges =  -1.00000   1.00000

 Dipole moment (field-independent basis, Debye):
    X=              2.9398    Y=             -5.1045    Z=             -3.9149  Tot=              7.0728
 Quadrupole moment (field-independent basis, Debye-Ang):
   XX=           -182.0222   YY=           -155.6292   ZZ=           -144.6448
   XY=             -0.4402   XZ=              3.2029   YZ=             -9.2402

 Summary of Natural Population Analysis:

                                       Natural Population
                Natural  -----------------------------------------------
    Atom  No    Charge         Core      Valence    Rydberg      Total
 -----------------------------------------------------------------------
      C    1   -0.28849      0.99967     2.28394    0.00489     3.28849
      C    2   -0.19069      0.99964     2.18284    0.00821     3.19069
      C    3   -0.19512      0.99960     2.18627    0.00926     3.19512
      C    4   -0.00370      0.99958     1.99025    0.01386     3.00370
      C    5   -0.29416      0.99963     2.28808    0.00644     3.29416
      N    6   -0.25510      0.99962     2.74316    0.01231     3.75510
      C    7   -0.07437      0.99960     2.06400    0.01078     3.07437
      C    8   -0.19277      0.99963     2.18378    0.00936     3.19277
      C    9   -0.19642      0.99961     2.18740    0.00941     3.19642
      C   10   -0.04382      0.99955     2.02993    0.01434     3.04382
      C   11    0.34410      0.99961     1.63196    0.02434     2.65590
      O   12   -0.34670      0.99988     3.34162    0.00519     4.34670
      N   13   -0.33894      0.99975     2.82844    0.01076     3.83894
      C   14   -0.08985      0.99962     2.07765    0.01259     3.08985
      C   15   -0.20419      0.99964     2.19707    0.00748     3.20419
      C   16   -0.29330      0.99966     2.28885    0.00478     3.29330
      H   17    0.09703      0.00000     0.40178    0.00119     0.40297
      H   18    0.09806      0.00000     0.40099    0.00094     0.40194
      H   19    0.09861      0.00000     0.40008    0.00131     0.40139
      H   20    0.09315      0.00000     0.40576    0.00109     0.40685
      H   21    0.09507      0.00000     0.40404    0.00088     0.40493
      H   22    0.11100      0.00000     0.38787    0.00114     0.38900
      H   23    0.09698      0.00000     0.40178    0.00124     0.40302
      H   24    0.09878      0.00000     0.39852    0.00270     0.40122
      H   25    0.11071      0.00000     0.38828    0.00101     0.38929
      H   26    0.10152      0.00000     0.39746    0.00101     0.39848
      H   27    0.09936      0.00000     0.39990    0.00074     0.40064
      H   28    0.09443      0.00000     0.40292    0.00265     0.40557
      H   29    0.10110      0.00000     0.39673    0.00217     0.39890
      H   30    0.10970      0.00000     0.38774    0.00256     0.39030
      H   31    0.09546      0.00000     0.40308    0.00146     0.40454
      H   32    0.09920      0.00000     0.39900    0.00180     0.40080
      H   33    0.10494      0.00000     0.39385    0.00120     0.39506
      H   34    0.10285      0.00000     0.39560    0.00155     0.39715
      H   35    0.18227      0.00000     0.31573    0.00200     0.31773
      H   36    0.09033      0.00000     0.40874    0.00094     0.40967
      H   37    0.09336      0.00000     0.40559    0.00104     0.40664
      H   38    0.09457      0.00000     0.40431    0.00112     0.40543
      H   39    0.09681      0.00000     0.40141    0.00178     0.40319
      H   40    0.08944      0.00000     0.40967    0.00089     0.41056
      H   41    0.09763      0.00000     0.40160    0.00077     0.40237
      H   42    0.11114      0.00000     0.38775    0.00112     0.38886
 =======================================================================
   * Total *    0.00000     15.99428    46.80543    0.20029    63.00000

 Normal termination of Gaussian 16 at Fri Dec 11 01:01:41 2020.
