 Gaussian 16, Revision A.03,

 -----------------------------------------------------------
 # opt freq B3LYP/6-31G(d) empiricaldispersion=gd3bj scf=xqc
 -----------------------------------------------------------

 -------------------------------
 CID_149417279_JID_5898_neutraal
 -------------------------------
 Symbolic Z-matrix:
 Charge =  0 Multiplicity = 1

 SCF Done:  E(RB3LYP) =  -672.735530178     A.U. after   14 cycles
 SCF Done:  E(RB3LYP) =  -672.740119870     A.U. after   14 cycles
 SCF Done:  E(RB3LYP) =  -672.740981495     A.U. after   14 cycles
 SCF Done:  E(RB3LYP) =  -672.741628868     A.U. after   12 cycles
 SCF Done:  E(RB3LYP) =  -672.742243490     A.U. after   12 cycles
 SCF Done:  E(RB3LYP) =  -672.742061514     A.U. after   13 cycles
 SCF Done:  E(RB3LYP) =  -672.742658946     A.U. after   12 cycles
 SCF Done:  E(RB3LYP) =  -672.742998152     A.U. after   11 cycles
 SCF Done:  E(RB3LYP) =  -672.743549097     A.U. after   13 cycles
 SCF Done:  E(RB3LYP) =  -672.742480656     A.U. after   15 cycles
 SCF Done:  E(RB3LYP) =  -672.746686104     A.U. after   10 cycles
 SCF Done:  E(RB3LYP) =  -672.746691907     A.U. after   10 cycles
 SCF Done:  E(RB3LYP) =  -672.746692154     A.U. after    9 cycles
 SCF Done:  E(RB3LYP) =  -672.746692130     A.U. after    7 cycles
 SCF Done:  E(RB3LYP) =  -672.746692106     A.U. after    7 cycles
 Optimization completed.
    -- Stationary point found.
 Normal termination of Gaussian 16 at Thu Dec 10 17:48:59 2020.

 --------------------------------------------------------------------
 #N Geom=AllCheck Guess=TCheck SCRF=Check GenChk RB3LYP/6-31G(d) Freq
 --------------------------------------------------------------------

 Structure from the checkpoint file:  "JID_5898.chk"
 -------------------------------
 CID_149417279_JID_5898_neutraal
 -------------------------------
 Charge =  0 Multiplicity = 1

 SCF Done:  E(RB3LYP) =  -672.746692106     A.U. after    1 cycles

  Exact polarizability: 155.276   3.774 125.986 -12.709  -3.759 111.057
 Approx polarizability: 209.335  16.182 202.532 -21.274  -2.416 164.238

                      1                      2                      3
                      A                      A                      A
 Frequencies --     34.0854                51.0132                65.5842
 Red. masses --      3.4731                 5.9513                 4.0882
 Frc consts  --      0.0024                 0.0091                 0.0104
 IR Inten    --      0.7156                 4.1488                 2.7567

                      4                      5                      6
                      A                      A                      A
 Frequencies --     95.9580               114.2877               144.7625
 Red. masses --      4.1800                 3.0926                 3.2251
 Frc consts  --      0.0227                 0.0238                 0.0398
 IR Inten    --      2.7400                 0.1970                 0.1389

                      7                      8                      9
                      A                      A                      A
 Frequencies --    184.4977               194.5718               236.2790
 Red. masses --      1.0856                 4.0385                 2.1808
 Frc consts  --      0.0218                 0.0901                 0.0717
 IR Inten    --      0.2507                 0.9862                 1.5778

                     10                     11                     12
                      A                      A                      A
 Frequencies --    261.5886               265.1707               292.3333
 Red. masses --      3.9067                 2.2967                 2.0938
 Frc consts  --      0.1575                 0.0951                 0.1054
 IR Inten    --      4.0404                 1.2167                 2.0527

                     13                     14                     15
                      A                      A                      A
 Frequencies --    309.2704               342.5725               379.4590
 Red. masses --      4.4116                 3.7711                 3.0337
 Frc consts  --      0.2486                 0.2607                 0.2574
 IR Inten    --      0.1158                 3.0174                 2.3875

                     16                     17                     18
                      A                      A                      A
 Frequencies --    427.6139               454.8658               469.4455
 Red. masses --      2.9892                 3.5374                 3.6909
 Frc consts  --      0.3220                 0.4312                 0.4792
 IR Inten    --      1.2773                13.1209                 8.5902

                     19                     20                     21
                      A                      A                      A
 Frequencies --    506.6017               558.2832               577.4856
 Red. masses --      3.6479                 3.7030                 2.4073
 Frc consts  --      0.5516                 0.6800                 0.4730
 IR Inten    --      3.5891                 7.8579                14.7805

                     22                     23                     24
                      A                      A                      A
 Frequencies --    605.3962               631.2206               644.4478
 Red. masses --      2.7704                 2.4282                 1.9415
 Frc consts  --      0.5982                 0.5700                 0.4751
 IR Inten    --      6.2679                20.4305                34.4237

                     25                     26                     27
                      A                      A                      A
 Frequencies --    735.6844               757.3535               773.6121
 Red. masses --      2.5914                 2.9867                 2.7457
 Frc consts  --      0.8263                 1.0093                 0.9682
 IR Inten    --     24.8562                28.6092                 3.8803

                     28                     29                     30
                      A                      A                      A
 Frequencies --    810.1390               829.8820               863.2095
 Red. masses --      1.1064                 1.3630                 3.1267
 Frc consts  --      0.4278                 0.5531                 1.3727
 IR Inten    --      2.7049                 2.3568                 1.5554

                     31                     32                     33
                      A                      A                      A
 Frequencies --    874.7141               901.1023               924.5425
 Red. masses --      3.3566                 1.6937                 3.2756
 Frc consts  --      1.5132                 0.8103                 1.6497
 IR Inten    --      1.6289                 1.5923                10.9651

                     34                     35                     36
                      A                      A                      A
 Frequencies --    943.6128               962.2494               974.9336
 Red. masses --      2.2388                 1.7909                 1.4490
 Frc consts  --      1.1745                 0.9770                 0.8114
 IR Inten    --      6.0014                 4.9377                 0.6219

                     37                     38                     39
                      A                      A                      A
 Frequencies --    983.4243              1003.0747              1039.4982
 Red. masses --      1.6508                 1.8908                 2.3165
 Frc consts  --      0.9406                 1.1209                 1.4748
 IR Inten    --      1.4196                25.5236                22.2897

                     40                     41                     42
                      A                      A                      A
 Frequencies --   1063.1125              1065.8116              1078.9713
 Red. masses --      1.8711                 1.8454                 1.3308
 Frc consts  --      1.2460                 1.2351                 0.9128
 IR Inten    --      4.1231                 0.4908                12.7241

                     43                     44                     45
                      A                      A                      A
 Frequencies --   1100.1362              1105.0283              1108.5913
 Red. masses --      1.5693                 1.8817                 1.4874
 Frc consts  --      1.1191                 1.3538                 1.0770
 IR Inten    --      9.6792                 0.4938                 3.5119

                     46                     47                     48
                      A                      A                      A
 Frequencies --   1125.5994              1176.3710              1178.6106
 Red. masses --      2.1781                 1.2353                 2.3309
 Frc consts  --      1.6259                 1.0072                 1.9077
 IR Inten    --      1.5032                 2.5417                53.3887

                     49                     50                     51
                      A                      A                      A
 Frequencies --   1211.5969              1222.6359              1288.4791
 Red. masses --      1.3920                 1.2877                 1.2490
 Frc consts  --      1.2039                 1.1341                 1.2217
 IR Inten    --      4.8950                 0.2896                 1.0995

                     52                     53                     54
                      A                      A                      A
 Frequencies --   1312.4884              1319.7023              1341.8298
 Red. masses --      1.4288                 2.3368                 3.7976
 Frc consts  --      1.4501                 2.3979                 4.0286
 IR Inten    --     22.0512                41.0261                64.4341

                     55                     56                     57
                      A                      A                      A
 Frequencies --   1348.0806              1367.2881              1389.2027
 Red. masses --      1.3342                 3.4940                 1.3978
 Frc consts  --      1.4286                 3.8485                 1.5894
 IR Inten    --      7.3219               327.2020                 3.9165

                     58                     59                     60
                      A                      A                      A
 Frequencies --   1397.6782              1403.7806              1414.4635
 Red. masses --      1.5733                 1.6961                 1.6995
 Frc consts  --      1.8109                 1.9692                 2.0033
 IR Inten    --      5.6300                 6.4091                 4.2968

                     61                     62                     63
                      A                      A                      A
 Frequencies --   1416.2130              1463.7098              1474.1725
 Red. masses --      1.3307                 1.2972                 1.3051
 Frc consts  --      1.5725                 1.6374                 1.6710
 IR Inten    --     32.6940                18.2252                 4.1980

                     64                     65                     66
                      A                      A                      A
 Frequencies --   1493.4765              1497.3249              1505.3534
 Red. masses --      1.0581                 1.0917                 1.0531
 Frc consts  --      1.3905                 1.4420                 1.4060
 IR Inten    --     10.2288                 5.7492                 6.7591

                     67                     68                     69
                      A                      A                      A
 Frequencies --   1506.9738              1512.7289              1520.6507
 Red. masses --      1.2663                 1.1267                 1.0893
 Frc consts  --      1.6943                 1.5191                 1.4840
 IR Inten    --      4.5239                 6.5302                 3.5810

                     70                     71                     72
                      A                      A                      A
 Frequencies --   1530.8547              1700.4406              1760.9995
 Red. masses --      1.0998                 6.8934                 7.6323
 Frc consts  --      1.5185                11.7437                13.9451
 IR Inten    --      1.3665                83.0062               224.8659

                     73                     74                     75
                      A                      A                      A
 Frequencies --   1790.6677              3009.2935              3035.3300
 Red. masses --     10.4575                 1.0699                 1.0697
 Frc consts  --     19.7565                 5.7083                 5.8067
 IR Inten    --    100.2494                25.0134                15.0414

                     76                     77                     78
                      A                      A                      A
 Frequencies --   3041.2066              3050.8696              3055.0057
 Red. masses --      1.0652                 1.0642                 1.0857
 Frc consts  --      5.8047                 5.8361                 5.9704
 IR Inten    --     17.6412                21.7101                42.8872

                     79                     80                     81
                      A                      A                      A
 Frequencies --   3062.2075              3088.2320              3089.8156
 Red. masses --      1.0368                 1.0945                 1.1001
 Frc consts  --      5.7283                 6.1500                 6.1879
 IR Inten    --      2.9309                37.9185                49.2424

                     82                     83                     84
                      A                      A                      A
 Frequencies --   3096.7940              3124.3697              3154.6781
 Red. masses --      1.1022                 1.0987                 1.0543
 Frc consts  --      6.2280                 6.3189                 6.1818
 IR Inten    --     33.0300                 3.5065                 9.2191

                     85                     86                     87
                      A                      A                      A
 Frequencies --   3171.0985              3171.9315              3194.4353
 Red. masses --      1.0539                 1.1032                 1.0891
 Frc consts  --      6.2441                 6.5399                 6.5481
 IR Inten    --      7.0908                 6.7956                 2.2808

                     88                     89                     90
                      A                      A                      A
 Frequencies --   3245.0515              3267.0442              3564.4713
 Red. masses --      1.1196                 1.1189                 1.0754
 Frc consts  --      6.9462                 7.0362                 8.0500
 IR Inten    --      1.7266                 2.0889                20.8103

 - Thermochemistry -
 -------------------
 Temperature   298.150 Kelvin.  Pressure   1.00000 Atm.
 Atom     1 has atomic number  6 and mass  12.00000

 Molecular mass:   207.12593 amu.
 Principal axes and moments of inertia in atomic units:
                           1         2         3
     Eigenvalues --  2024.279944073.493384578.92688
           X            0.99961  -0.02659  -0.00798
           Y            0.02591   0.99674  -0.07637
           Z            0.00999   0.07614   0.99705
 This molecule is an asymmetric top.
 Rotational symmetry number  1.
 Warning -- assumption of classical behavior for rotation
           may cause significant error
 Rotational temperatures (Kelvin)      0.04279     0.02126     0.01892
 Rotational constants (GHZ):           0.89155     0.44305     0.39414
 Zero-point vibrational energy     722775.8 (Joules/Mol)
                                  172.74757 (Kcal/Mol)
 Warning -- explicit consideration of  22 degrees of freedom as
           vibrations may cause significant error
 Vibrational temperatures:     49.04    73.40    94.36   138.06   164.43
          (Kelvin)            208.28   265.45   279.95   339.95   376.37
                              381.52   420.60   444.97   492.89   545.96
                              615.24   654.45   675.43   728.89   803.24
                              830.87   871.03   908.19   927.22  1058.49
                             1089.66  1113.06  1165.61  1194.02  1241.97
                             1258.52  1296.49  1330.21  1357.65  1384.46
                             1402.71  1414.93  1443.20  1495.61  1529.58
                             1533.47  1552.40  1582.85  1589.89  1595.02
                             1619.49  1692.54  1695.76  1743.22  1759.10
                             1853.83  1888.38  1898.76  1930.59  1939.59
                             1967.22  1998.75  2010.95  2019.73  2035.10
                             2037.61  2105.95  2121.01  2148.78  2154.32
                             2165.87  2168.20  2176.48  2187.88  2202.56
                             2446.55  2533.69  2576.37  4329.70  4367.16
                             4375.62  4389.52  4395.47  4405.83  4443.28
                             4445.56  4455.60  4495.27  4538.88  4562.50
                             4563.70  4596.08  4668.91  4700.55  5128.48

 Zero-point correction=                           0.275291 (Hartree/Particle)
 Thermal correction to Energy=                    0.289947
 Thermal correction to Enthalpy=                  0.290892
 Thermal correction to Gibbs Free Energy=         0.233313
 Sum of electronic and zero-point Energies=           -672.471401
 Sum of electronic and thermal Energies=              -672.456745
 Sum of electronic and thermal Enthalpies=            -672.455801
 Sum of electronic and thermal Free Energies=         -672.513379

                     E (Thermal)             CV                S
                      KCal/Mol        Cal/Mol-Kelvin    Cal/Mol-Kelvin
 Total                  181.945             56.335            121.184
 Electronic               0.000              0.000              0.000
 Translational            0.889              2.981             41.888
 Rotational               0.889              2.981             32.002
 Vibrational            180.167             50.373             47.294
 Vibration     1          0.594              1.983              5.576
 Vibration     2          0.595              1.977              4.778
 Vibration     3          0.597              1.971              4.282
 Vibration     4          0.603              1.952              3.535
 Vibration     5          0.607              1.938              3.195
 Vibration     6          0.616              1.908              2.740
 Vibration     7          0.631              1.861              2.282
 Vibration     8          0.635              1.847              2.184
 Vibration     9          0.655              1.785              1.831
 Vibration    10          0.669              1.743              1.651
 Vibration    11          0.671              1.737              1.627
 Vibration    12          0.688              1.688              1.460
 Vibration    13          0.699              1.656              1.366
 Vibration    14          0.722              1.590              1.200
 Vibration    15          0.749              1.514              1.041
 Vibration    16          0.789              1.410              0.866
 Vibration    17          0.813              1.350              0.781
 Vibration    18          0.827              1.318              0.739
 Vibration    19          0.862              1.235              0.642
 Vibration    20          0.914              1.122              0.527
 Vibration    21          0.934              1.080              0.490
 Vibration    22          0.964              1.020              0.440

 Optimization completed.
    -- Stationary point found.
 Normal termination of Gaussian 16 at Thu Dec 10 18:00:12 2020.

 ----------------------------------------------------------------------
 # B3LYP/6-311++G(d,p) empiricaldispersion=gd3bj scf=xqc pop=npa geom=c
 heck
 ----------------------------------------------------------------------

 ---------------------------------------
 CID_149417279_JID_5898_Energie_neutraal
 ---------------------------------------
 Structure from the checkpoint file:  "JID_5898.chk"
 Charge =  0 Multiplicity = 1

 SCF Done:  E(RB3LYP) =  -672.937079849     A.U. after   16 cycles
 Normal termination of Gaussian 16 at Thu Dec 10 18:04:55 2020.

 ----------------------------------------------------------------------
 # B3LYP/6-311++G(d,p) empiricaldispersion=gd3bj scf=xqc pop=npa geom=c
 heck
 ----------------------------------------------------------------------

 -------------------------------------
 CID_149417279_JID_5898_Energie_kation
 -------------------------------------
 Structure from the checkpoint file:  "JID_5898.chk"
 Charge =  1 Multiplicity = 2

 SCF Done:  E(UB3LYP) =  -672.623633005     A.U. after   27 cycles
 Normal termination of Gaussian 16 at Thu Dec 10 18:17:11 2020.
 Gaussian 16:  ES64L-G16RevA.03 25-Dec-2016

 ----------------------------------------------------------------------
 # B3LYP/6-311++G(d,p) empiricaldispersion=gd3bj scf=xqc pop=npa geom=c
 heck
 ----------------------------------------------------------------------

 ------------------------------------
 CID_149417279_JID_5898_Energie_anion
 ------------------------------------
 Structure from the checkpoint file:  "JID_5898.chk"
 Charge = -1 Multiplicity = 2

                         Standard orientation:
 ---------------------------------------------------------------------
 Center     Atomic      Atomic             Coordinates (Angstroms)
 Number     Number       Type             X           Y           Z
 ---------------------------------------------------------------------
      1          6           0       -1.249433    0.193769   -2.222374
      2          6           0       -1.793730   -0.644298   -1.085418
      3          8           0       -2.145706   -1.801084   -1.248120
      4          6           0       -1.922223    0.001721    0.274254
      5          6           0       -3.313651   -0.143689    0.892572
      6          6           0       -2.179315   -0.931293    1.446834
      7          7           0       -1.280171    1.263834    0.512035
      8          6           0        0.044800    1.635393    0.341710
      9          8           0        0.303424    2.832956    0.255506
     10          6           0        1.118856    0.587903    0.255316
     11          6           0        2.240820    0.964173   -0.383167
     12          6           0        3.441039    0.086961   -0.589071
     13          6           0        3.174221   -1.376471   -0.215692
     14          6           0        2.360255   -1.447914    1.078657
     15          6           0        0.990269   -0.782053    0.892278
     16          1           0       -1.442164   -0.321951   -3.164517
     17          1           0       -0.168885    0.332721   -2.101977
     18          1           0       -1.697453    1.192901   -2.233220
     19          1           0       -3.677455    0.710652    1.456880
     20          1           0       -4.053401   -0.658930    0.288760
     21          1           0       -2.136656   -1.991614    1.222759
     22          1           0       -1.759868   -0.617503    2.395920
     23          1           0       -1.873360    2.085430    0.469175
     24          1           0        2.286983    1.981738   -0.763056
     25          1           0        4.269534    0.488320    0.016060
     26          1           0        3.779273    0.168857   -1.631052
     27          1           0        4.119829   -1.921330   -0.117328
     28          1           0        2.608527   -1.862808   -1.022078
     29          1           0        2.222859   -2.487680    1.396468
     30          1           0        2.908794   -0.936211    1.881140
     31          1           0        0.353731   -1.439019    0.286369
     32          1           0        0.487713   -0.690603    1.860980
 ---------------------------------------------------------------------

 SCF Done:  E(UB3LYP) =  -672.929936034     A.U. after   33 cycles
 SCF Done:  E(UB3LYP) =  -672.929936034     a.u. after    1 cycles

 The electronic state is 2-A.
 Alpha  occ. eigenvalues --  -18.98020 -18.95210 -14.21367 -10.13591 -10.12556
 Alpha  occ. eigenvalues --  -10.11451 -10.08068 -10.07079 -10.05181 -10.04979
 Alpha  occ. eigenvalues --  -10.04970 -10.04936 -10.04763 -10.04119 -10.03427
 Alpha  occ. eigenvalues --   -0.91845  -0.90680  -0.81596  -0.73400  -0.71539
 Alpha  occ. eigenvalues --   -0.63145  -0.62704  -0.62321  -0.53438  -0.51682
 Alpha  occ. eigenvalues --   -0.51262  -0.49324  -0.46625  -0.43589  -0.39939
 Alpha  occ. eigenvalues --   -0.38558  -0.37467  -0.37250  -0.33671  -0.33104
 Alpha  occ. eigenvalues --   -0.32630  -0.31054  -0.30819  -0.30589  -0.29119
 Alpha  occ. eigenvalues --   -0.28726  -0.27669  -0.27212  -0.26823  -0.26194
 Alpha  occ. eigenvalues --   -0.25764  -0.24215  -0.22269  -0.21420  -0.20343
 Alpha  occ. eigenvalues --   -0.19419  -0.19292  -0.15421  -0.13448  -0.12159
 Alpha  occ. eigenvalues --   -0.11644   0.05121
 Alpha virt. eigenvalues --    0.07474   0.07641   0.08546   0.08997   0.09446
 Alpha virt. eigenvalues --    0.09930   0.10206   0.10585   0.11410   0.12200
 Alpha virt. eigenvalues --    0.12358   0.12716   0.13429   0.13646   0.14172

  Beta  occ. eigenvalues --  -18.97872 -18.95118 -14.21329 -10.13462 -10.12304
  Beta  occ. eigenvalues --  -10.11488 -10.08003 -10.07030 -10.05199 -10.04981
  Beta  occ. eigenvalues --  -10.04956 -10.04933 -10.04735 -10.04072 -10.03212
  Beta  occ. eigenvalues --   -0.91526  -0.90480  -0.81482  -0.73278  -0.71403
  Beta  occ. eigenvalues --   -0.62974  -0.62484  -0.62136  -0.53263  -0.51482
  Beta  occ. eigenvalues --   -0.51140  -0.49125  -0.46473  -0.43439  -0.39783
  Beta  occ. eigenvalues --   -0.38356  -0.37309  -0.37114  -0.33516  -0.33004
  Beta  occ. eigenvalues --   -0.32167  -0.30874  -0.30657  -0.30439  -0.28826
  Beta  occ. eigenvalues --   -0.28540  -0.27589  -0.27030  -0.26705  -0.26085
  Beta  occ. eigenvalues --   -0.25599  -0.23628  -0.22080  -0.21334  -0.20164
  Beta  occ. eigenvalues --   -0.19333  -0.19019  -0.15115  -0.13208  -0.11846
  Beta  occ. eigenvalues --   -0.10977
  Beta virt. eigenvalues --    0.07529   0.08037   0.08802   0.09415   0.09680
  Beta virt. eigenvalues --    0.09965   0.10223   0.10409   0.11048   0.11452
  Beta virt. eigenvalues --    0.12451   0.12472   0.12684   0.13398   0.13682

 Mulliken charges and spin densities:
               1          2
     1  C   -0.293370  -0.255833
     2  C   -0.385140   0.325158
     3  O   -0.328886   0.056955
     4  C    0.139226   0.113594
     5  C    0.035340  -0.259465
     6  C   -0.382098   0.096387
     7  N   -0.220062   0.023267
     8  C   -0.309343   0.036707
     9  O   -0.348757   0.027762
    10  C    0.988666   0.038678
    11  C   -0.774180   0.736574
    12  C    0.829091  -1.607963
    13  C   -0.513192   0.275306
    14  C   -0.347294  -0.200259
    15  C   -0.096113  -0.252887
    16  H    0.151613   0.015597
    17  H    0.129841   0.089514
    18  H    0.110871   0.031884
    19  H    0.086740   0.033379
    20  H    0.167545   0.009953
    21  H    0.176893   0.018467
    22  H    0.140858   0.001875
    23  H    0.300357  -0.003482
    24  H    0.116346   0.083082
    25  H   -0.066645   0.216900
    26  H   -0.055092   0.199326
    27  H   -0.558203   0.721891
    28  H    0.080024   0.053047
    29  H   -0.118263   0.271001
    30  H   -0.048466   0.180354
    31  H    0.186149  -0.011333
    32  H    0.205543  -0.065434
 Sum of Mulliken charges =  -1.00000   1.00000

 Dipole moment (field-independent basis, Debye):
    X=             -5.5354    Y=              0.5969    Z=              1.1968  Tot=              5.6946
 Quadrupole moment (field-independent basis, Debye-Ang):
   XX=           -143.7362   YY=           -131.7113   ZZ=           -108.5713
   XY=             -1.5054   XZ=             -4.4100   YZ=             -3.9836

 Summary of Natural Population Analysis:

                                       Natural Population
                Natural  -----------------------------------------------
    Atom  No    Charge         Core      Valence    Rydberg      Total
 -----------------------------------------------------------------------
      C    1   -0.33854      0.99962     2.33355    0.00537     3.33854
      C    2    0.31838      0.99961     1.66101    0.02100     2.68162
      O    3   -0.29559      0.99988     3.28947    0.00624     4.29559
      C    4    0.00730      0.99949     1.97934    0.01388     2.99270
      C    5   -0.17460      0.99961     2.16829    0.00670     3.17460
      C    6   -0.18272      0.99959     2.17394    0.00918     3.18272
      N    7   -0.32352      0.99965     2.81331    0.01057     3.82352
      C    8    0.35779      0.99961     1.62015    0.02246     2.64221
      O    9   -0.32742      0.99988     3.32199    0.00555     4.32742
      C   10   -0.07340      0.99942     2.06392    0.01006     3.07340
      C   11   -0.01645      0.99949     2.00738    0.00958     3.01645
      C   12   -0.20860      0.99962     2.19985    0.00914     3.20860
      C   13   -0.18904      0.99964     2.18109    0.00832     3.18904
      C   14   -0.18534      0.99964     2.17646    0.00924     3.18534
      C   15   -0.20284      0.99960     2.19462    0.00862     3.20284
      H   16    0.10480      0.00000     0.39418    0.00101     0.39520
      H   17    0.12490      0.00000     0.37340    0.00170     0.37510
      H   18    0.10524      0.00000     0.39391    0.00085     0.39476
      H   19    0.09856      0.00000     0.40012    0.00131     0.40144
      H   20    0.10641      0.00000     0.39236    0.00123     0.39359
      H   21    0.11392      0.00000     0.38496    0.00112     0.38608
      H   22    0.10325      0.00000     0.39564    0.00111     0.39675
      H   23    0.18764      0.00000     0.30997    0.00239     0.31236
      H   24    0.10330      0.00000     0.39557    0.00113     0.39670
      H   25    0.10356      0.00000     0.39483    0.00161     0.39644
      H   26    0.10040      0.00000     0.39871    0.00089     0.39960
      H   27    0.09768      0.00000     0.40063    0.00169     0.40232
      H   28    0.09407      0.00000     0.40450    0.00143     0.40593
      H   29    0.09571      0.00000     0.40343    0.00086     0.40429
      H   30    0.09309      0.00000     0.40575    0.00116     0.40691
      H   31    0.10489      0.00000     0.39331    0.00179     0.39511
      H   32    0.09719      0.00000     0.40087    0.00194     0.40281
 =======================================================================
   * Total *    0.00000     14.99434    40.82651    0.17915    56.00000

 Normal termination of Gaussian 16 at Thu Dec 10 18:29:16 2020.
