 Gaussian 16, Revision A.03,

 -----------------------------------------------------------
 # opt freq B3LYP/6-31G(d) empiricaldispersion=gd3bj scf=xqc
 -----------------------------------------------------------

 -------------------------------
 CID_134326998_JID_4556_neutraal
 -------------------------------
 Symbolic Z-matrix:
 Charge =  0 Multiplicity = 1

 SCF Done:  E(RB3LYP) =  -622.203836748     A.U. after   13 cycles
 SCF Done:  E(RB3LYP) =  -622.205840727     A.U. after   11 cycles
 SCF Done:  E(RB3LYP) =  -622.206663538     A.U. after   11 cycles
 SCF Done:  E(RB3LYP) =  -622.207315921     A.U. after   11 cycles
 SCF Done:  E(RB3LYP) =  -622.207580138     A.U. after   11 cycles
 SCF Done:  E(RB3LYP) =  -622.207667974     A.U. after   10 cycles
 SCF Done:  E(RB3LYP) =  -622.207707556     A.U. after   10 cycles
 SCF Done:  E(RB3LYP) =  -622.207717670     A.U. after    9 cycles
 SCF Done:  E(RB3LYP) =  -622.207721062     A.U. after    9 cycles
 SCF Done:  E(RB3LYP) =  -622.207723145     A.U. after    8 cycles
 SCF Done:  E(RB3LYP) =  -622.207723868     A.U. after    8 cycles
 SCF Done:  E(RB3LYP) =  -622.207723971     A.U. after    7 cycles
 SCF Done:  E(RB3LYP) =  -622.207723970     A.U. after    6 cycles
 Optimization completed.
    -- Stationary point found.
 Normal termination of Gaussian 16 at Thu Dec 10 10:04:21 2020.

 --------------------------------------------------------------------
 #N Geom=AllCheck Guess=TCheck SCRF=Check GenChk RB3LYP/6-31G(d) Freq
 --------------------------------------------------------------------

 Structure from the checkpoint file:  "JID_4556.chk"
 -------------------------------
 CID_134326998_JID_4556_neutraal
 -------------------------------
 Charge =  0 Multiplicity = 1

 SCF Done:  E(RB3LYP) =  -622.207723970     A.U. after    1 cycles

  Exact polarizability: 178.455  -0.608 122.641  -0.064  -2.128 108.517
 Approx polarizability: 212.316  -1.821 179.488   0.892  -2.292 157.609

                      1                      2                      3
                      A                      A                      A
 Frequencies --     14.7534                28.0914                36.5087
 Red. masses --      4.3029                 4.0279                 4.3090
 Frc consts  --      0.0006                 0.0019                 0.0034
 IR Inten    --      0.8669                 0.8439                 1.0149

                      4                      5                      6
                      A                      A                      A
 Frequencies --     47.1557                63.4462                71.0545
 Red. masses --      3.6344                 3.7781                 2.7323
 Frc consts  --      0.0048                 0.0090                 0.0081
 IR Inten    --      1.2368                 0.4193                 0.3570

                      7                      8                      9
                      A                      A                      A
 Frequencies --     97.0663               124.3628               194.6912
 Red. masses --      3.0503                 2.2066                 2.5547
 Frc consts  --      0.0169                 0.0201                 0.0571
 IR Inten    --      0.5821                 0.1224                 0.2378

                     10                     11                     12
                      A                      A                      A
 Frequencies --    209.8544               232.3574               251.0011
 Red. masses --      1.5576                 3.4875                 2.5066
 Frc consts  --      0.0404                 0.1109                 0.0930
 IR Inten    --      0.2947                 1.9054                 3.9695

                     13                     14                     15
                      A                      A                      A
 Frequencies --    272.0996               294.1762               318.1479
 Red. masses --      1.9055                 1.6950                 1.9369
 Frc consts  --      0.0831                 0.0864                 0.1155
 IR Inten    --      1.4547                 2.4978                27.9632

                     16                     17                     18
                      A                      A                      A
 Frequencies --    329.7880               345.6336               358.1463
 Red. masses --      1.5282                 2.5755                 2.1470
 Frc consts  --      0.0979                 0.1813                 0.1623
 IR Inten    --     23.8911                 5.1399                11.2761

                     19                     20                     21
                      A                      A                      A
 Frequencies --    394.9545               414.9033               445.1909
 Red. masses --      1.9774                 4.1311                 1.8108
 Frc consts  --      0.1817                 0.4190                 0.2114
 IR Inten    --      1.0050                 4.0573                 0.8455

                     22                     23                     24
                      A                      A                      A
 Frequencies --    464.6216               536.1102               548.1151
 Red. masses --      2.0580                 2.0883                 1.1365
 Frc consts  --      0.2618                 0.3536                 0.2012
 IR Inten    --      0.6862                 5.3632               140.8582

                     25                     26                     27
                      A                      A                      A
 Frequencies --    575.0613               603.4823               719.4020
 Red. masses --      2.7810                 2.0534                 1.2485
 Frc consts  --      0.5419                 0.4406                 0.3807
 IR Inten    --      2.4204                 4.9120                16.5408

                     28                     29                     30
                      A                      A                      A
 Frequencies --    758.3857               780.5812               828.1925
 Red. masses --      1.6175                 2.7574                 1.8730
 Frc consts  --      0.5481                 0.9899                 0.7569
 IR Inten    --      0.4662                 0.8692                 1.4278

                     31                     32                     33
                      A                      A                      A
 Frequencies --    837.5145               847.8516               889.2351
 Red. masses --      2.0316                 1.7305                 1.9924
 Frc consts  --      0.8396                 0.7329                 0.9282
 IR Inten    --      1.4848                 1.4460                21.1728

                     34                     35                     36
                      A                      A                      A
 Frequencies --    906.3900               928.6411               943.1923
 Red. masses --      1.7067                 2.0723                 2.0025
 Frc consts  --      0.8261                 1.0529                 1.0496
 IR Inten    --      1.5871                 5.8832                 1.8587

                     37                     38                     39
                      A                      A                      A
 Frequencies --    967.4106               984.5089              1003.1632
 Red. masses --      1.7243                 1.7094                 1.9914
 Frc consts  --      0.9508                 0.9762                 1.1807
 IR Inten    --      4.0275                 3.4157                 7.5664

                     40                     41                     42
                      A                      A                      A
 Frequencies --   1017.0172              1028.7013              1049.5830
 Red. masses --      1.3835                 1.3417                 1.6958
 Frc consts  --      0.8431                 0.8366                 1.1007
 IR Inten    --     10.9826                13.0830                 0.0189

                     43                     44                     45
                      A                      A                      A
 Frequencies --   1060.0911              1076.4058              1104.5834
 Red. masses --      1.5845                 2.0224                 3.0854
 Frc consts  --      1.0491                 1.3806                 2.2180
 IR Inten    --      2.6211                 8.7384                92.2623

                     46                     47                     48
                      A                      A                      A
 Frequencies --   1109.7824              1114.9202              1128.6598
 Red. masses --      2.1910                 3.0052                 2.0456
 Frc consts  --      1.5899                 2.2010                 1.5353
 IR Inten    --      4.4813                59.1297                22.8622

                     49                     50                     51
                      A                      A                      A
 Frequencies --   1141.3748              1161.7280              1200.9526
 Red. masses --      1.8727                 2.1779                 1.3634
 Frc consts  --      1.4374                 1.7318                 1.1586
 IR Inten    --      0.1720                 2.2257                 2.0116

                     52                     53                     54
                      A                      A                      A
 Frequencies --   1215.8563              1224.7947              1238.2523
 Red. masses --      1.2685                 1.1356                 1.3192
 Frc consts  --      1.1048                 1.0037                 1.1917
 IR Inten    --      1.3765                81.5365                 0.2369

                     55                     56                     57
                      A                      A                      A
 Frequencies --   1268.6222              1282.7279              1300.6272
 Red. masses --      1.2126                 1.2421                 1.1799
 Frc consts  --      1.1499                 1.2042                 1.1760
 IR Inten    --      5.8615                 2.3053                31.3910

                     58                     59                     60
                      A                      A                      A
 Frequencies --   1309.4306              1318.9700              1342.0949
 Red. masses --      1.2453                 1.2312                 1.2046
 Frc consts  --      1.2580                 1.2619                 1.2784
 IR Inten    --      1.1656                 1.1861                 1.9340

                     61                     62                     63
                      A                      A                      A
 Frequencies --   1348.0376              1361.3968              1375.9815
 Red. masses --      1.2056                 1.2265                 1.4858
 Frc consts  --      1.2908                 1.3394                 1.6574
 IR Inten    --      2.4150                 3.7371                 0.6731

                     64                     65                     66
                      A                      A                      A
 Frequencies --   1385.8779              1396.6219              1401.1272
 Red. masses --      1.3177                 1.3803                 1.4604
 Frc consts  --      1.4912                 1.5863                 1.6892
 IR Inten    --     16.0501                19.5175                 2.0707

                     67                     68                     69
                      A                      A                      A
 Frequencies --   1404.7235              1414.7917              1417.3496
 Red. masses --      1.2997                 1.3957                 1.3838
 Frc consts  --      1.5111                 1.6460                 1.6379
 IR Inten    --      9.8442                 1.6262                 2.1957

                     70                     71                     72
                      A                      A                      A
 Frequencies --   1422.5126              1443.8460              1454.3008
 Red. masses --      1.4321                 1.2722                 1.5160
 Frc consts  --      1.7074                 1.5626                 1.8891
 IR Inten    --      1.5397                 4.6512                40.7227

                     73                     74                     75
                      A                      A                      A
 Frequencies --   1491.1314              1503.0491              1506.3297
 Red. masses --      1.1567                 1.1485                 1.0808
 Frc consts  --      1.5154                 1.5287                 1.4449
 IR Inten    --     77.5958                60.8822                 0.5751

                     76                     77                     78
                      A                      A                      A
 Frequencies --   1515.6286              1516.7945              1521.8133
 Red. masses --      1.0920                 1.0982                 1.0726
 Frc consts  --      1.4780                 1.4886                 1.4635
 IR Inten    --      7.9559                 2.9270                 8.5681

                     79                     80                     81
                      A                      A                      A
 Frequencies --   1528.9794              1530.2279              1535.9436
 Red. masses --      1.0701                 1.0757                 1.0649
 Frc consts  --      1.4739                 1.4840                 1.4801
 IR Inten    --      5.1842                 2.7413                 4.5695

                     82                     83                     84
                      A                      A                      A
 Frequencies --   1543.5465              1555.6891              1754.6412
 Red. masses --      1.0782                 1.0903                 6.0044
 Frc consts  --      1.5135                 1.5546                10.8917
 IR Inten    --      2.4804                 1.3651                 0.1734

                     85                     86                     87
                      A                      A                      A
 Frequencies --   2966.0018              3002.7695              3025.6954
 Red. masses --      1.0740                 1.0846                 1.0639
 Frc consts  --      5.5669                 5.7621                 5.7387
 IR Inten    --     86.2568                39.4716                32.0901

                     88                     89                     90
                      A                      A                      A
 Frequencies --   3026.3972              3033.0215              3035.5264
 Red. masses --      1.0618                 1.0648                 1.0625
 Frc consts  --      5.7296                 5.7712                 5.7680
 IR Inten    --     25.7127                40.1154                10.5582

                     91                     92                     93
                      A                      A                      A
 Frequencies --   3037.3394              3044.1615              3047.2809
 Red. masses --      1.0608                 1.0454                 1.0558
 Frc consts  --      5.7659                 5.7078                 5.7762
 IR Inten    --     19.7586                 9.3168                12.2688

                     94                     95                     96
                      A                      A                      A
 Frequencies --   3057.7462              3058.2699              3066.7127
 Red. masses --      1.0641                 1.0975                 1.1006
 Frc consts  --      5.8618                 6.0482                 6.0987
 IR Inten    --     16.2684                23.5311                32.3708

                     97                     98                     99
                      A                      A                      A
 Frequencies --   3072.7575              3076.1522              3079.3491
 Red. masses --      1.0975                 1.0887                 1.0953
 Frc consts  --      6.1056                 6.0695                 6.1195
 IR Inten    --     64.5489                66.2048                17.7322

                    100                    101                    102
                      A                      A                      A
 Frequencies --   3079.9149              3083.7778              3101.2058
 Red. masses --      1.0998                 1.1042                 1.1034
 Frc consts  --      6.1469                 6.1865                 6.2525
 IR Inten    --     82.1402                83.2117                33.1797

                    103                    104                    105
                      A                      A                      A
 Frequencies --   3109.7845              3116.5574              3135.9357
 Red. masses --      1.1016                 1.1020                 1.0898
 Frc consts  --      6.2769                 6.3064                 6.3141
 IR Inten    --     48.8127                48.7598                11.8794

                    106                    107                    108
                      A                      A                      A
 Frequencies --   3146.5654              3672.1793              3741.4205
 Red. masses --      1.0871                 1.0658                 1.0660
 Frc consts  --      6.3414                 8.4676                 8.7922
 IR Inten    --     33.6272               131.6717                 9.6410

 - Thermochemistry -
 -------------------
 Temperature   298.150 Kelvin.  Pressure   1.00000 Atm.
 Atom     1 has atomic number  6 and mass  12.00000

 Molecular mass:   200.17763 amu.
 Principal axes and moments of inertia in atomic units:
                           1         2         3
     Eigenvalues --  1006.607549721.393449894.50512
           X            0.99999  -0.00159  -0.00302
           Y            0.00143   0.99871  -0.05084
           Z            0.00310   0.05084   0.99870
 This molecule is an asymmetric top.
 Rotational symmetry number  1.
 Warning -- assumption of classical behavior for rotation
           may cause significant error
 Rotational temperatures (Kelvin)      0.08605     0.00891     0.00875
 Rotational constants (GHZ):           1.79289     0.18565     0.18240
 Zero-point vibrational energy     918177.4 (Joules/Mol)
                                  219.44968 (Kcal/Mol)
 Warning -- explicit consideration of  26 degrees of freedom as
           vibrations may cause significant error
 Vibrational temperatures:     21.23    40.42    52.53    67.85    91.28
          (Kelvin)            102.23   139.66   178.93   280.12   301.93
                              334.31   361.13   391.49   423.25   457.74
                              474.49   497.29   515.29   568.25   596.95
                              640.53   668.49   771.34   788.62   827.38
                              868.28  1035.06  1091.15  1123.08  1191.58
                             1205.00  1219.87  1279.41  1304.09  1336.11
                             1357.04  1391.89  1416.49  1443.33  1463.26
                             1480.07  1510.12  1525.23  1548.71  1589.25
                             1596.73  1604.12  1623.89  1642.18  1671.47
                             1727.90  1749.35  1762.21  1781.57  1825.26
                             1845.56  1871.31  1883.98  1897.70  1930.98
                             1939.53  1958.75  1979.73  1993.97  2009.43
                             2015.91  2021.08  2035.57  2039.25  2046.68
                             2077.37  2092.41  2145.41  2162.55  2167.27
                             2180.65  2182.33  2189.55  2199.86  2201.66
                             2209.88  2220.82  2238.29  2524.54  4267.42
                             4320.32  4353.30  4354.31  4363.84  4367.45
                             4370.05  4379.87  4384.36  4399.41  4400.17
                             4412.32  4421.01  4425.90  4430.50  4431.31
                             4436.87  4461.94  4474.29  4484.03  4511.91
                             4527.21  5283.45  5383.07

 Zero-point correction=                           0.349715 (Hartree/Particle)
 Thermal correction to Energy=                    0.366783
 Thermal correction to Enthalpy=                  0.367727
 Thermal correction to Gibbs Free Energy=         0.302133
 Sum of electronic and zero-point Energies=           -621.858009
 Sum of electronic and thermal Energies=              -621.840941
 Sum of electronic and thermal Enthalpies=            -621.839997
 Sum of electronic and thermal Free Energies=         -621.905591

                     E (Thermal)             CV                S
                      KCal/Mol        Cal/Mol-Kelvin    Cal/Mol-Kelvin
 Total                  230.160             62.760            138.053
 Electronic               0.000              0.000              0.000
 Translational            0.889              2.981             41.787
 Rotational               0.889              2.981             32.937
 Vibrational            228.382             56.798             63.329
 Vibration     1          0.593              1.986              7.238
 Vibration     2          0.593              1.984              5.960
 Vibration     3          0.594              1.982              5.440
 Vibration     4          0.595              1.979              4.933
 Vibration     5          0.597              1.972              4.347
 Vibration     6          0.598              1.968              4.124
 Vibration     7          0.603              1.951              3.512
 Vibration     8          0.610              1.929              3.031
 Vibration     9          0.635              1.847              2.183
 Vibration    10          0.642              1.826              2.045
 Vibration    11          0.653              1.791              1.861
 Vibration    12          0.663              1.761              1.724
 Vibration    13          0.675              1.725              1.583
 Vibration    14          0.689              1.685              1.450
 Vibration    15          0.705              1.639              1.320
 Vibration    16          0.713              1.616              1.261
 Vibration    17          0.724              1.584              1.186
 Vibration    18          0.733              1.559              1.130
 Vibration    19          0.762              1.481              0.981
 Vibration    20          0.778              1.438              0.909
 Vibration    21          0.805              1.372              0.810
 Vibration    22          0.822              1.329              0.753
 Vibration    23          0.891              1.170              0.574
 Vibration    24          0.903              1.144              0.548
 Vibration    25          0.931              1.085              0.495
 Vibration    26          0.962              1.024              0.444

                           ! Non-Optimized Parameters !
 Normal termination of Gaussian 16 at Thu Dec 10 10:13:57 2020.

 ----------------------------------------------------------------------
 # B3LYP/6-311++G(d,p) empiricaldispersion=gd3bj scf=xqc pop=npa geom=c
 heck
 ----------------------------------------------------------------------

 ---------------------------------------
 CID_134326998_JID_4556_Energie_neutraal
 ---------------------------------------
 Structure from the checkpoint file:  "JID_4556.chk"
 Charge =  0 Multiplicity = 1

 SCF Done:  E(RB3LYP) =  -622.406158934     A.U. after   13 cycles
 Normal termination of Gaussian 16 at Thu Dec 10 10:18:12 2020.

 ----------------------------------------------------------------------
 # B3LYP/6-311++G(d,p) empiricaldispersion=gd3bj scf=xqc pop=npa geom=c
 heck
 ----------------------------------------------------------------------

 -------------------------------------
 CID_134326998_JID_4556_Energie_kation
 -------------------------------------
 Structure from the checkpoint file:  "JID_4556.chk"
 Charge =  1 Multiplicity = 2

 SCF Done:  E(UB3LYP) =  -622.085796544     A.U. after   21 cycles
 Normal termination of Gaussian 16 at Thu Dec 10 10:27:22 2020.
 Gaussian 16:  ES64L-G16RevA.03 25-Dec-2016

 ----------------------------------------------------------------------
 # B3LYP/6-311++G(d,p) empiricaldispersion=gd3bj scf=xqc pop=npa geom=c
 heck
 ----------------------------------------------------------------------

 ------------------------------------
 CID_134326998_JID_4556_Energie_anion
 ------------------------------------
 Structure from the checkpoint file:  "JID_4556.chk"
 Charge = -1 Multiplicity = 2

                         Standard orientation:
 ---------------------------------------------------------------------
 Center     Atomic      Atomic             Coordinates (Angstroms)
 Number     Number       Type             X           Y           Z
 ---------------------------------------------------------------------
      1          6           0       -5.910477   -0.186973    0.752059
      2          6           0       -5.041207    0.167473   -0.457999
      3          6           0       -3.809468    1.017982   -0.111630
      4          6           0       -2.830784    0.374100    0.883578
      5          6           0       -2.282201   -0.997430    0.462085
      6          6           0       -1.566502   -1.020222   -0.905693
      7          6           0       -0.423939   -0.048151   -0.992615
      8          6           0        0.868126   -0.385308   -0.997307
      9          6           0        2.007290    0.594719   -1.008243
     10          6           0        2.640429    0.800614    0.382578
     11          6           0        3.170358   -0.476003    1.041200
     12          6           0        4.244924   -1.212711    0.235146
     13          8           0        5.450256   -0.478978    0.113528
     14          8           0        3.752806    1.710904    0.291989
     15          1           0       -5.372188   -0.819245    1.466852
     16          1           0       -6.811669   -0.729678    0.446017
     17          1           0       -6.229463    0.717132    1.285439
     18          1           0       -4.725629   -0.755467   -0.962361
     19          1           0       -5.648089    0.716733   -1.189611
     20          1           0       -3.278284    1.264304   -1.040937
     21          1           0       -4.146874    1.977259    0.304978
     22          1           0       -1.991821    1.063265    1.045509
     23          1           0       -3.319840    0.266823    1.859877
     24          1           0       -1.575339   -1.341933    1.227750
     25          1           0       -3.097451   -1.732136    0.439589
     26          1           0       -1.196723   -2.035879   -1.092707
     27          1           0       -2.295310   -0.802214   -1.698405
     28          1           0       -0.686273    1.010498   -1.033865
     29          1           0        1.136909   -1.441630   -0.957527
     30          1           0        2.791938    0.272730   -1.704075
     31          1           0        1.646634    1.571077   -1.362844
     32          1           0        1.870505    1.233678    1.039632
     33          1           0        3.587749   -0.206683    2.018514
     34          1           0        2.320311   -1.145363    1.221603
     35          1           0        4.495892   -2.151474    0.742503
     36          1           0        3.844234   -1.490155   -0.756152
     37          1           0        5.188431    0.448903   -0.024949
     38          1           0        3.468567    2.485502   -0.217929
 ---------------------------------------------------------------------

 SCF Done:  E(UB3LYP) =  -622.396154065     A.U. after   31 cycles

 The electronic state is 2-A.
 Alpha  occ. eigenvalues --  -19.03928 -19.01775 -10.13627 -10.12632 -10.08276
 Alpha  occ. eigenvalues --  -10.08236 -10.08200 -10.08174 -10.08076 -10.07745
 Alpha  occ. eigenvalues --  -10.07368 -10.07072 -10.07048 -10.06705  -0.94231
 Alpha  occ. eigenvalues --   -0.91999  -0.73399  -0.71569  -0.69249  -0.66657
 Alpha  occ. eigenvalues --   -0.63310  -0.60096  -0.57201  -0.55306  -0.51516
 Alpha  occ. eigenvalues --   -0.49096  -0.46647  -0.44987  -0.43911  -0.40880
 Alpha  occ. eigenvalues --   -0.39059  -0.38424  -0.36933  -0.36191  -0.35238
 Alpha  occ. eigenvalues --   -0.34110  -0.33515  -0.33083  -0.32073  -0.31189
 Alpha  occ. eigenvalues --   -0.30353  -0.29224  -0.28236  -0.27545  -0.27393
 Alpha  occ. eigenvalues --   -0.27014  -0.25655  -0.25389  -0.24829  -0.23077
 Alpha  occ. eigenvalues --   -0.23005  -0.22387  -0.22108  -0.19331  -0.17947
 Alpha  occ. eigenvalues --   -0.16033   0.03994
 Alpha virt. eigenvalues --    0.05440   0.06446   0.07152   0.07514   0.07951
 Alpha virt. eigenvalues --    0.08303   0.08927   0.09455   0.09884   0.10011
 Alpha virt. eigenvalues --    0.10219   0.10611   0.11013   0.11487   0.11927

  Beta  occ. eigenvalues --  -19.03882 -19.01769 -10.13614 -10.12627 -10.08269
  Beta  occ. eigenvalues --  -10.08230 -10.08172 -10.08168 -10.08065 -10.07734
  Beta  occ. eigenvalues --  -10.07352 -10.07059 -10.07034 -10.06673  -0.94148
  Beta  occ. eigenvalues --   -0.91972  -0.73374  -0.71534  -0.69216  -0.66629
  Beta  occ. eigenvalues --   -0.63275  -0.60055  -0.57154  -0.55261  -0.51470
  Beta  occ. eigenvalues --   -0.49048  -0.46591  -0.44936  -0.43831  -0.40848
  Beta  occ. eigenvalues --   -0.39031  -0.38397  -0.36900  -0.36161  -0.35212
  Beta  occ. eigenvalues --   -0.34084  -0.33485  -0.33045  -0.32038  -0.31156
  Beta  occ. eigenvalues --   -0.30320  -0.29192  -0.28209  -0.27506  -0.27364
  Beta  occ. eigenvalues --   -0.26982  -0.25624  -0.25364  -0.24791  -0.23047
  Beta  occ. eigenvalues --   -0.22979  -0.22358  -0.22076  -0.19286  -0.17938
  Beta  occ. eigenvalues --   -0.16014
  Beta virt. eigenvalues --    0.05904   0.06605   0.06986   0.07387   0.08126
  Beta virt. eigenvalues --    0.08172   0.08426   0.09072   0.09810   0.10144
  Beta virt. eigenvalues --    0.10225   0.10323   0.10821   0.11182   0.11713

 Mulliken charges and spin densities:
               1          2
     1  C    1.027601  -1.666122
     2  C   -0.991355   0.795108
     3  C    0.437823  -0.620728
     4  C    0.040154  -0.294575
     5  C    0.266285  -0.654008
     6  C   -0.083849  -0.170929
     7  C   -0.338666   0.272018
     8  C    0.266636  -0.401228
     9  C   -0.348895   0.083570
    10  C    1.045631  -1.308529
    11  C   -0.402987   0.033521
    12  C   -0.147853  -0.309289
    13  O   -0.268927   0.013234
    14  O   -0.290009   0.035548
    15  H    0.001526   0.127622
    16  H   -0.329210   0.466165
    17  H   -0.120240   0.258274
    18  H    0.055820   0.077034
    19  H   -0.205020   0.355143
    20  H   -0.189558   0.346164
    21  H   -0.245479   0.407618
    22  H    0.041544   0.112859
    23  H   -0.120414   0.284053
    24  H    0.150429  -0.013161
    25  H   -0.056419   0.211072
    26  H    0.111156   0.044407
    27  H   -0.004327   0.139695
    28  H    0.050690   0.112518
    29  H   -0.076549   0.221991
    30  H    0.057423   0.115207
    31  H   -0.680658   0.858951
    32  H   -0.097942   0.318964
    33  H    0.085569   0.121415
    34  H    0.033808   0.084397
    35  H    0.110665   0.045618
    36  H    0.155680  -0.002222
    37  H    0.247433   0.027881
    38  H   -0.187517   0.470745
 Sum of Mulliken charges =  -1.00000   1.00000

 Dipole moment (field-independent basis, Debye):
    X=              1.5280    Y=             -5.4578    Z=             -0.0573  Tot=              5.6679
 Quadrupole moment (field-independent basis, Debye-Ang):
   XX=           -227.8539   YY=           -132.7255   ZZ=           -120.1158
   XY=             -6.0652   XZ=              2.5358   YZ=              3.0340

 Summary of Natural Population Analysis:

                                       Natural Population
                Natural  -----------------------------------------------
    Atom  No    Charge         Core      Valence    Rydberg      Total
 -----------------------------------------------------------------------
      C    1   -0.28578      0.99967     2.28156    0.00456     3.28578
      C    2   -0.19328      0.99964     2.18481    0.00883     3.19328
      C    3   -0.19131      0.99963     2.18264    0.00905     3.19131
      C    4   -0.19504      0.99962     2.18632    0.00909     3.19504
      C    5   -0.18476      0.99962     2.17813    0.00701     3.18476
      C    6   -0.20574      0.99961     2.19781    0.00832     3.20574
      C    7   -0.08362      0.99950     2.07408    0.01004     3.08362
      C    8   -0.09688      0.99950     2.08654    0.01085     3.09688
      C    9   -0.22100      0.99959     2.20897    0.01244     3.22100
      C   10    0.06895      0.99955     1.91690    0.01460     2.93105
      C   11   -0.21448      0.99960     2.20708    0.00780     3.21448
      C   12   -0.01001      0.99960     1.99832    0.01209     3.01001
      O   13   -0.38185      0.99990     3.37460    0.00735     4.38185
      O   14   -0.38628      0.99989     3.37905    0.00734     4.38628
      H   15    0.09526      0.00000     0.40355    0.00119     0.40474
      H   16    0.09874      0.00000     0.40001    0.00125     0.40126
      H   17    0.09610      0.00000     0.40256    0.00135     0.40390
      H   18    0.09146      0.00000     0.40723    0.00130     0.40854
      H   19    0.09643      0.00000     0.40244    0.00113     0.40357
      H   20    0.09552      0.00000     0.40297    0.00152     0.40448
      H   21    0.09757      0.00000     0.40123    0.00119     0.40243
      H   22    0.10023      0.00000     0.39830    0.00146     0.39977
      H   23    0.09736      0.00000     0.40149    0.00115     0.40264
      H   24    0.09678      0.00000     0.40198    0.00124     0.40322
      H   25    0.09515      0.00000     0.40366    0.00118     0.40485
      H   26    0.09767      0.00000     0.40120    0.00113     0.40233
      H   27    0.09992      0.00000     0.39869    0.00139     0.40008
      H   28    0.09489      0.00000     0.40357    0.00154     0.40511
      H   29    0.08927      0.00000     0.40940    0.00133     0.41073
      H   30    0.10148      0.00000     0.39717    0.00135     0.39852
      H   31    0.10622      0.00000     0.39134    0.00245     0.39378
      H   32    0.08374      0.00000     0.41391    0.00235     0.41626
      H   33    0.10429      0.00000     0.39452    0.00119     0.39571
      H   34    0.10590      0.00000     0.39303    0.00107     0.39410
      H   35    0.08192      0.00000     0.41679    0.00128     0.41808
      H   36    0.07165      0.00000     0.42678    0.00157     0.42835
      H   37    0.24286      0.00000     0.25370    0.00344     0.25714
      H   38    0.24067      0.00000     0.24917    0.01016     0.25933
 =======================================================================
   * Total *    0.00000     13.99493    41.83149    0.17359    56.00000

 Normal termination of Gaussian 16 at Thu Dec 10 10:41:31 2020.
