 Gaussian 16, Revision A.03,

 -----------------------------------------------------------
 # opt freq B3LYP/6-31G(d) empiricaldispersion=gd3bj scf=xqc
 -----------------------------------------------------------

 -------------------------------
 CID_145373293_JID_6966_neutraal
 -------------------------------
 Symbolic Z-matrix:
 Charge =  0 Multiplicity = 1

 SCF Done:  E(RB3LYP) =  -663.732150743     A.U. after   13 cycles
 SCF Done:  E(RB3LYP) =  -663.734790259     A.U. after   11 cycles
 SCF Done:  E(RB3LYP) =  -663.734584317     A.U. after   11 cycles
 SCF Done:  E(RB3LYP) =  -663.735157587     A.U. after   10 cycles
 SCF Done:  E(RB3LYP) =  -663.735219525     A.U. after   10 cycles
 SCF Done:  E(RB3LYP) =  -663.735263899     A.U. after   10 cycles
 SCF Done:  E(RB3LYP) =  -663.735300928     A.U. after   10 cycles
 SCF Done:  E(RB3LYP) =  -663.735309200     A.U. after   11 cycles
 SCF Done:  E(RB3LYP) =  -663.735298902     A.U. after    9 cycles
 SCF Done:  E(RB3LYP) =  -663.734862852     A.U. after   13 cycles
 SCF Done:  E(RB3LYP) =  -663.735374070     A.U. after   10 cycles
 SCF Done:  E(RB3LYP) =  -663.735373622     A.U. after    9 cycles
 SCF Done:  E(RB3LYP) =  -663.735374188     A.U. after    9 cycles
 SCF Done:  E(RB3LYP) =  -663.735374173     A.U. after    6 cycles
 SCF Done:  E(RB3LYP) =  -663.735374194     A.U. after    6 cycles
 Optimization completed on the basis of negligible forces.
    -- Stationary point found.
 Normal termination of Gaussian 16 at Fri Dec 11 00:43:42 2020.

 --------------------------------------------------------------------
 #N Geom=AllCheck Guess=TCheck SCRF=Check GenChk RB3LYP/6-31G(d) Freq
 --------------------------------------------------------------------

 Structure from the checkpoint file:  "JID_6966.chk"
 -------------------------------
 CID_145373293_JID_6966_neutraal
 -------------------------------
 Charge =  0 Multiplicity = 1

 SCF Done:  E(RB3LYP) =  -663.735374194     A.U. after    1 cycles

  Exact polarizability: 198.127  -1.995 146.520  -0.352   1.766 135.773
 Approx polarizability: 241.351   6.530 208.546   5.182   4.990 206.228

                      1                      2                      3
                      A                      A                      A
 Frequencies --     15.3290                27.4124                38.7961
 Red. masses --      4.4420                 3.5362                 3.4358
 Frc consts  --      0.0006                 0.0016                 0.0030
 IR Inten    --      0.0606                 0.2430                 0.3667

                      4                      5                      6
                      A                      A                      A
 Frequencies --     51.4964                62.6193                80.5836
 Red. masses --      2.8822                 3.5289                 2.8764
 Frc consts  --      0.0045                 0.0082                 0.0110
 IR Inten    --      0.4149                 0.1429                 0.4265

                      7                      8                      9
                      A                      A                      A
 Frequencies --     95.4754               116.3085               139.5242
 Red. masses --      2.2795                 2.2813                 2.2248
 Frc consts  --      0.0122                 0.0182                 0.0255
 IR Inten    --      0.5924                 1.3746                 0.3843

                     10                     11                     12
                      A                      A                      A
 Frequencies --    152.7212               191.0444               209.1150
 Red. masses --      3.1878                 2.5588                 2.3707
 Frc consts  --      0.0438                 0.0550                 0.0611
 IR Inten    --      1.6860                 7.3219                 2.1132

                     13                     14                     15
                      A                      A                      A
 Frequencies --    221.7796               231.1389               291.0770
 Red. masses --      1.4656                 2.2248                 2.1262
 Frc consts  --      0.0425                 0.0700                 0.1061
 IR Inten    --      0.1866                 8.9524                12.9190

                     16                     17                     18
                      A                      A                      A
 Frequencies --    292.9806               307.2118               316.5153
 Red. masses --      1.6470                 1.7160                 1.5525
 Frc consts  --      0.0833                 0.0954                 0.0916
 IR Inten    --      0.0517                44.1796                49.7641

                     19                     20                     21
                      A                      A                      A
 Frequencies --    336.8064               363.4801               392.5762
 Red. masses --      2.4635                 2.3843                 2.0005
 Frc consts  --      0.1646                 0.1856                 0.1817
 IR Inten    --      1.5353                 0.6218                 0.3475

                     22                     23                     24
                      A                      A                      A
 Frequencies --    410.2182               454.9034               518.1986
 Red. masses --      2.6361                 1.9142                 2.5844
 Frc consts  --      0.2614                 0.2334                 0.4089
 IR Inten    --      1.0843                 0.3880                 3.6538

                     25                     26                     27
                      A                      A                      A
 Frequencies --    542.7797               606.8027               654.6407
 Red. masses --      2.4830                 2.4749                 3.4500
 Frc consts  --      0.4310                 0.5369                 0.8711
 IR Inten    --      0.6262                 0.5774                 0.1335

                     28                     29                     30
                      A                      A                      A
 Frequencies --    676.2790               721.5815               750.2434
 Red. masses --      2.6029                 1.2411                 2.0022
 Frc consts  --      0.7014                 0.3807                 0.6640
 IR Inten    --      1.2822                17.0233                 2.6625

                     31                     32                     33
                      A                      A                      A
 Frequencies --    762.7474               792.0582               830.1379
 Red. masses --      1.6582                 1.4122                 1.8351
 Frc consts  --      0.5684                 0.5220                 0.7451
 IR Inten    --      1.3612                 0.5722                 2.4636

                     34                     35                     36
                      A                      A                      A
 Frequencies --    839.2402               852.1545               856.7996
 Red. masses --      2.0004                 1.6974                 1.9677
 Frc consts  --      0.8301                 0.7262                 0.8511
 IR Inten    --      4.1717                 0.6398                 1.5491

                     37                     38                     39
                      A                      A                      A
 Frequencies --    889.6525               904.6423               907.8329
 Red. masses --      2.3950                 2.7090                 1.6749
 Frc consts  --      1.1169                 1.3062                 0.8133
 IR Inten    --      1.3582                 0.3066                 1.4701

                     40                     41                     42
                      A                      A                      A
 Frequencies --    941.5210               949.3612               971.3398
 Red. masses --      2.0051                 1.9542                 1.7430
 Frc consts  --      1.0472                 1.0377                 0.9689
 IR Inten    --      3.6161                 3.4221                 2.7112

                     43                     44                     45
                      A                      A                      A
 Frequencies --    985.8929              1010.0139              1018.0903
 Red. masses --      1.8731                 1.7689                 1.2753
 Frc consts  --      1.0727                 1.0632                 0.7788
 IR Inten    --      2.7554                20.6389                22.8743

                     46                     47                     48
                      A                      A                      A
 Frequencies --   1028.4450              1032.4223              1050.1685
 Red. masses --      1.4477                 1.6452                 1.7897
 Frc consts  --      0.9021                 1.0332                 1.1629
 IR Inten    --      8.9535                 1.0470                 0.1543

                     49                     50                     51
                      A                      A                      A
 Frequencies --   1055.6274              1061.1378              1071.8242
 Red. masses --      2.0192                 1.8558                 1.7507
 Frc consts  --      1.3257                 1.2312                 1.1850
 IR Inten    --      5.2666                 7.3352                 2.2449

                     52                     53                     54
                      A                      A                      A
 Frequencies --   1092.3520              1100.2741              1114.3620
 Red. masses --      2.0432                 2.4688                 1.8841
 Frc consts  --      1.4365                 1.7609                 1.3785
 IR Inten    --     38.3102                29.2090                 5.4870

                     55                     56                     57
                      A                      A                      A
 Frequencies --   1137.9102              1141.9042              1164.0121
 Red. masses --      2.1339                 1.8868                 2.2718
 Frc consts  --      1.6279                 1.4495                 1.8136
 IR Inten    --      2.3340                 0.5526                 1.9795

                     58                     59                     60
                      A                      A                      A
 Frequencies --   1196.1138              1206.8357              1214.7073
 Red. masses --      1.4724                 1.2346                 1.2777
 Frc consts  --      1.2412                 1.0595                 1.1108
 IR Inten    --      5.2766                12.0517                 1.3226

                     61                     62                     63
                      A                      A                      A
 Frequencies --   1219.6008              1230.8665              1260.3317
 Red. masses --      1.3537                 1.3484                 1.3289
 Frc consts  --      1.1863                 1.2037                 1.2437
 IR Inten    --      1.0399                 5.6284                 2.0125

                     64                     65                     66
                      A                      A                      A
 Frequencies --   1269.6056              1277.3758              1300.9673
 Red. masses --      1.3858                 1.2962                 1.2641
 Frc consts  --      1.3161                 1.2461                 1.2606
 IR Inten    --      3.3962                 0.1177                 3.2029

                     67                     68                     69
                      A                      A                      A
 Frequencies --   1309.5818              1313.5770              1331.9385
 Red. masses --      1.2481                 1.2656                 1.1927
 Frc consts  --      1.2612                 1.2866                 1.2466
 IR Inten    --      1.1592                 2.8935                 1.7486

                     70                     71                     72
                      A                      A                      A
 Frequencies --   1338.6061              1343.5256              1350.5104
 Red. masses --      1.2340                 1.3478                 1.1391
 Frc consts  --      1.3028                 1.4333                 1.2240
 IR Inten    --      0.7900                 3.2766                 0.8665

                     73                     74                     75
                      A                      A                      A
 Frequencies --   1358.7834              1364.1453              1370.8743
 Red. masses --      1.3520                 1.3487                 1.5347
 Frc consts  --      1.4707                 1.4787                 1.6993
 IR Inten    --      0.9433                 6.3744                 1.0896

                     76                     77                     78
                      A                      A                      A
 Frequencies --   1378.8818              1385.8741              1398.9790
 Red. masses --      1.3374                 1.3276                 1.4851
 Frc consts  --      1.4982                 1.5023                 1.7125
 IR Inten    --      1.1045                16.1635                 2.7181

                     79                     80                     81
                      A                      A                      A
 Frequencies --   1408.8806              1412.2805              1417.2711
 Red. masses --      1.5069                 1.1783                 1.3792
 Frc consts  --      1.7623                 1.3847                 1.6323
 IR Inten    --     10.9629                24.9223                 1.1126

                     82                     83                     84
                      A                      A                      A
 Frequencies --   1422.4739              1423.2027              1440.3845
 Red. masses --      1.4364                 1.5173                 1.2716
 Frc consts  --      1.7125                 1.8108                 1.5544
 IR Inten    --      0.6594                 8.4365                22.7839

                     85                     86                     87
                      A                      A                      A
 Frequencies --   1443.8998              1504.0503              1506.6706
 Red. masses --      1.2732                 1.0899                 1.0805
 Frc consts  --      1.5639                 1.4527                 1.4451
 IR Inten    --      5.1498                 4.0944                 1.3569

                     88                     89                     90
                      A                      A                      A
 Frequencies --   1516.5036              1520.7343              1521.9265
 Red. masses --      1.0879                 1.0784                 1.0727
 Frc consts  --      1.4740                 1.4694                 1.4639
 IR Inten    --      4.7439                 0.8405                 8.2326

                     91                     92                     93
                      A                      A                      A
 Frequencies --   1529.2996              1530.5712              1530.6954
 Red. masses --      1.0769                 1.0687                 1.0842
 Frc consts  --      1.4839                 1.4751                 1.4967
 IR Inten    --      5.6739                 3.0941                 2.2712

                     94                     95                     96
                      A                      A                      A
 Frequencies --   1536.2591              1538.0386              1544.2156
 Red. masses --      1.0655                 1.0852                 1.0786
 Frc consts  --      1.4816                 1.5126                 1.5154
 IR Inten    --      3.5121                 2.3421                 3.4853

                     97                     98                     99
                      A                      A                      A
 Frequencies --   1548.6596              1751.3775              2973.0383
 Red. masses --      1.0990                 6.0832                 1.0818
 Frc consts  --      1.5530                10.9937                 5.6338
 IR Inten    --      1.9491                 1.8896                29.4237

                    100                    101                    102
                      A                      A                      A
 Frequencies --   3026.6308              3031.3367              3034.5328
 Red. masses --      1.0619                 1.0636                 1.0602
 Frc consts  --      5.7314                 5.7582                 5.7521
 IR Inten    --     25.6391                36.1181                13.0852

                    103                    104                    105
                      A                      A                      A
 Frequencies --   3035.7050              3036.8221              3044.1125
 Red. masses --      1.0624                 1.0616                 1.0470
 Frc consts  --      5.7682                 5.7683                 5.7163
 IR Inten    --     17.5274                19.9636                 9.8615

                    106                    107                    108
                      A                      A                      A
 Frequencies --   3045.7351              3047.0807              3055.9671
 Red. masses --      1.0762                 1.0542                 1.0718
 Frc consts  --      5.8822                 5.7670                 5.8975
 IR Inten    --     14.8872                13.0142                65.2063

                    109                    110                    111
                      A                      A                      A
 Frequencies --   3058.5591              3059.3493              3060.8763
 Red. masses --      1.0976                 1.0623                 1.0658
 Frc consts  --      6.0498                 5.8582                 5.8831
 IR Inten    --     16.2025                16.3559                11.6871

                    112                    113                    114
                      A                      A                      A
 Frequencies --   3066.2175              3070.8047              3072.8107
 Red. masses --      1.0997                 1.0983                 1.0699
 Frc consts  --      6.0915                 6.1020                 5.9521
 IR Inten    --     26.5361                58.1610                35.1391

                    115                    116                    117
                      A                      A                      A
 Frequencies --   3076.8869              3079.2740              3082.3037
 Red. masses --      1.0888                 1.0999                 1.1040
 Frc consts  --      6.0733                 6.1448                 6.1795
 IR Inten    --     73.2740                69.1441               102.0103

                    118                    119                    120
                      A                      A                      A
 Frequencies --   3091.1081              3094.5175              3102.3035
 Red. masses --      1.1010                 1.0873                 1.1021
 Frc consts  --      6.1982                 6.1343                 6.2492
 IR Inten    --     19.4699                52.0946                 6.1518

                    121                    122                    123
                      A                      A                      A
 Frequencies --   3105.7018              3109.6416              3117.1224
 Red. masses --      1.1067                 1.1015                 1.1019
 Frc consts  --      6.2895                 6.2757                 6.3083
 IR Inten    --     65.6055                47.9114                47.6224

                    124                    125                    126
                      A                      A                      A
 Frequencies --   3117.9123              3167.5650              3755.5028
 Red. masses --      1.1054                 1.0873                 1.0659
 Frc consts  --      6.3316                 6.4278                 8.8574
 IR Inten    --     77.3784                17.8309                 5.7148

 - Thermochemistry -
 -------------------
 Temperature   298.150 Kelvin.  Pressure   1.00000 Atm.
 Atom     1 has atomic number  6 and mass  12.00000

 Molecular mass:   224.21402 amu.
 Principal axes and moments of inertia in atomic units:
                           1         2         3
     Eigenvalues --  2120.999348353.763229302.63529
           X            0.99998  -0.00677   0.00016
           Y            0.00677   0.99995   0.00697
           Z           -0.00020  -0.00697   0.99998
 This molecule is an asymmetric top.
 Rotational symmetry number  1.
 Warning -- assumption of classical behavior for rotation
           may cause significant error
 Rotational temperatures (Kelvin)      0.04084     0.01037     0.00931
 Rotational constants (GHZ):           0.85089     0.21604     0.19400
 Zero-point vibrational energy    1076160.9 (Joules/Mol)
                                  257.20864 (Kcal/Mol)
 Warning -- explicit consideration of  26 degrees of freedom as
           vibrations may cause significant error
 Vibrational temperatures:     22.06    39.44    55.82    74.09    90.10
          (Kelvin)            115.94   137.37   167.34   200.74   219.73
                              274.87   300.87   319.09   332.56   418.79
                              421.53   442.01   455.39   484.59   522.97
                              564.83   590.21   654.50   745.57   780.94
                              873.05   941.88   973.01  1038.19  1079.43
                             1097.42  1139.60  1194.38  1207.48  1226.06
                             1232.74  1280.01  1301.58  1306.17  1354.64
                             1365.92  1397.54  1418.48  1453.18  1464.80
                             1479.70  1485.43  1510.96  1518.81  1526.74
                             1542.12  1571.65  1583.05  1603.32  1637.20
                             1642.95  1674.75  1720.94  1736.37  1747.69
                             1754.73  1770.94  1813.34  1826.68  1837.86
                             1871.80  1884.20  1889.94  1916.36  1925.96
                             1933.03  1943.08  1954.99  1962.70  1972.38
                             1983.90  1993.96  2012.82  2027.06  2031.96
                             2039.14  2046.62  2047.67  2072.39  2077.45
                             2163.99  2167.76  2181.91  2188.00  2189.71
                             2200.32  2202.15  2202.33  2210.33  2212.89
                             2221.78  2228.18  2519.84  4277.54  4354.65
                             4361.42  4366.02  4367.70  4369.31  4379.80
                             4382.13  4384.07  4396.86  4400.58  4401.72
                             4403.92  4411.60  4418.20  4421.09  4426.95
                             4430.39  4434.75  4447.42  4452.32  4463.52
                             4468.41  4474.08  4484.84  4485.98  4557.42
                             5403.33

 Zero-point correction=                           0.409888 (Hartree/Particle)
 Thermal correction to Energy=                    0.428476
 Thermal correction to Enthalpy=                  0.429420
 Thermal correction to Gibbs Free Energy=         0.360698
 Sum of electronic and zero-point Energies=           -663.325486
 Sum of electronic and thermal Energies=              -663.306898
 Sum of electronic and thermal Enthalpies=            -663.305954
 Sum of electronic and thermal Free Energies=         -663.374676

                     E (Thermal)             CV                S
                      KCal/Mol        Cal/Mol-Kelvin    Cal/Mol-Kelvin
 Total                  268.873             69.387            144.637
 Electronic               0.000              0.000              0.000
 Translational            0.889              2.981             42.125
 Rotational               0.889              2.981             33.466
 Vibrational            267.095             63.425             69.047
 Vibration     1          0.593              1.986              7.162
 Vibration     2          0.593              1.984              6.008
 Vibration     3          0.594              1.981              5.320
 Vibration     4          0.596              1.977              4.759
 Vibration     5          0.597              1.972              4.373
 Vibration     6          0.600              1.962              3.877
 Vibration     7          0.603              1.952              3.545
 Vibration     8          0.608              1.936              3.161
 Vibration     9          0.615              1.914              2.810
 Vibration    10          0.619              1.900              2.638
 Vibration    11          0.634              1.852              2.218
 Vibration    12          0.642              1.827              2.051
 Vibration    13          0.648              1.808              1.945
 Vibration    14          0.653              1.793              1.870
 Vibration    15          0.687              1.690              1.468
 Vibration    16          0.688              1.687              1.457
 Vibration    17          0.697              1.660              1.377
 Vibration    18          0.703              1.642              1.328
 Vibration    19          0.718              1.602              1.227
 Vibration    20          0.737              1.547              1.107
 Vibration    21          0.760              1.486              0.990
 Vibration    22          0.774              1.448              0.926
 Vibration    23          0.813              1.350              0.781
 Vibration    24          0.873              1.210              0.614
 Vibration    25          0.898              1.156              0.559
 Vibration    26          0.966              1.017              0.438

 Optimization completed on the basis of negligible forces.
    -- Stationary point found.
 Normal termination of Gaussian 16 at Fri Dec 11 00:58:45 2020.

 ----------------------------------------------------------------------
 # B3LYP/6-311++G(d,p) empiricaldispersion=gd3bj scf=xqc pop=npa geom=c
 heck
 ----------------------------------------------------------------------

 ---------------------------------------
 CID_145373293_JID_6966_Energie_neutraal
 ---------------------------------------
 Structure from the checkpoint file:  "JID_6966.chk"
 Charge =  0 Multiplicity = 1

 SCF Done:  E(RB3LYP) =  -663.928892987     A.U. after   13 cycles
 Normal termination of Gaussian 16 at Fri Dec 11 01:06:49 2020.

 ----------------------------------------------------------------------
 # B3LYP/6-311++G(d,p) empiricaldispersion=gd3bj scf=xqc pop=npa geom=c
 heck
 ----------------------------------------------------------------------

 -------------------------------------
 CID_145373293_JID_6966_Energie_kation
 -------------------------------------
 Structure from the checkpoint file:  "JID_6966.chk"
 Charge =  1 Multiplicity = 2

 SCF Done:  E(UB3LYP) =  -663.617456416     A.U. after   19 cycles
 Normal termination of Gaussian 16 at Fri Dec 11 01:23:07 2020.
 Gaussian 16:  ES64L-G16RevA.03 25-Dec-2016

 ----------------------------------------------------------------------
 # B3LYP/6-311++G(d,p) empiricaldispersion=gd3bj scf=xqc pop=npa geom=c
 heck
 ----------------------------------------------------------------------

 ------------------------------------
 CID_145373293_JID_6966_Energie_anion
 ------------------------------------
 Structure from the checkpoint file:  "JID_6966.chk"
 Charge = -1 Multiplicity = 2

                         Standard orientation:
 ---------------------------------------------------------------------
 Center     Atomic      Atomic             Coordinates (Angstroms)
 Number     Number       Type             X           Y           Z
 ---------------------------------------------------------------------
      1          6           0       -5.817609    0.209443   -0.659789
      2          6           0       -4.911801   -0.749690    0.118065
      3          6           0       -3.581512   -1.058066   -0.585877
      4          6           0       -2.691518    0.164217   -0.862742
      5          6           0       -2.323485    0.994247    0.375997
      6          6           0       -1.614504    0.206176    1.498768
      7          6           0       -0.372655   -0.501241    1.031349
      8          6           0        0.873150   -0.112818    1.315850
      9          6           0        2.148359   -0.759593    0.858915
     10          6           0        2.019255   -1.964159   -0.092494
     11          6           0        3.429035   -2.135553   -0.721296
     12          6           0        4.244137   -0.893675   -0.271352
     13          6           0        3.190637    0.152831    0.146699
     14          6           0        2.680116    0.934703   -1.078035
     15          6           0        1.719387    2.094344   -0.789979
     16          8           0        2.216995    3.005026    0.188666
     17          1           0       -5.363361    1.200961   -0.764315
     18          1           0       -6.781240    0.340242   -0.155057
     19          1           0       -6.017685   -0.170505   -1.669402
     20          1           0       -4.716386   -0.336681    1.116533
     21          1           0       -5.444958   -1.695108    0.283314
     22          1           0       -3.024396   -1.787716    0.017063
     23          1           0       -3.793483   -1.557114   -1.541764
     24          1           0       -1.770579   -0.177063   -1.353205
     25          1           0       -3.188088    0.822130   -1.586941
     26          1           0       -1.669018    1.817807    0.062700
     27          1           0       -3.225604    1.460206    0.793265
     28          1           0       -1.359029    0.901639    2.308021
     29          1           0       -2.315574   -0.524372    1.925336
     30          1           0       -0.523284   -1.371174    0.394159
     31          1           0        0.999358    0.752214    1.974226
     32          1           0        2.663561   -1.115672    1.767251
     33          1           0        1.673177   -2.860928    0.430824
     34          1           0        1.278447   -1.745846   -0.869829
     35          1           0        3.360939   -2.186798   -1.812689
     36          1           0        3.909926   -3.062841   -0.394528
     37          1           0        4.916522   -0.522691   -1.051807
     38          1           0        4.865802   -1.148610    0.595249
     39          1           0        3.622168    0.874670    0.851485
     40          1           0        3.560967    1.343992   -1.589317
     41          1           0        2.193483    0.255220   -1.791283
     42          1           0        1.589103    2.687661   -1.701227
     43          1           0        0.733150    1.713599   -0.500861
     44          1           0        2.144170    2.565564    1.048998
 ---------------------------------------------------------------------

 SCF Done:  E(UB3LYP) =  -663.915574779     A.U. after   33 cycles
 SCF Done:  E(UB3LYP) =  -663.915574779     a.u. after    1 cycles

 The electronic state is 2-A.
 Alpha  occ. eigenvalues --  -19.03342 -10.12223 -10.08444 -10.08359 -10.07927
 Alpha  occ. eigenvalues --  -10.07891 -10.07646 -10.07646 -10.07628 -10.07429
 Alpha  occ. eigenvalues --  -10.07416 -10.07358 -10.07348 -10.07314 -10.07246
 Alpha  occ. eigenvalues --  -10.06756  -0.93307  -0.76093  -0.72800  -0.70080
 Alpha  occ. eigenvalues --   -0.67097  -0.66545  -0.62902  -0.61071  -0.59619
 Alpha  occ. eigenvalues --   -0.56256  -0.53761  -0.51551  -0.49047  -0.46527
 Alpha  occ. eigenvalues --   -0.45214  -0.43741  -0.42229  -0.40563  -0.39651
 Alpha  occ. eigenvalues --   -0.38454  -0.37443  -0.35521  -0.34636  -0.34165
 Alpha  occ. eigenvalues --   -0.33760  -0.33200  -0.32246  -0.31346  -0.30791
 Alpha  occ. eigenvalues --   -0.30099  -0.28938  -0.28130  -0.27136  -0.26683
 Alpha  occ. eigenvalues --   -0.25669  -0.25240  -0.24868  -0.24005  -0.23776
 Alpha  occ. eigenvalues --   -0.23513  -0.23059  -0.22729  -0.22643  -0.22437
 Alpha  occ. eigenvalues --   -0.22091  -0.18831  -0.15390   0.04023
 Alpha virt. eigenvalues --    0.05349   0.06225   0.06777   0.07282   0.07531
 Alpha virt. eigenvalues --    0.07740   0.08561   0.08710   0.09328   0.09529
 Alpha virt. eigenvalues --    0.09778   0.10285   0.10603   0.10939   0.11163

  Beta  occ. eigenvalues --  -19.03327 -10.12216 -10.08432 -10.08352 -10.07916
  Beta  occ. eigenvalues --  -10.07878 -10.07637 -10.07637 -10.07626 -10.07414
  Beta  occ. eigenvalues --  -10.07399 -10.07342 -10.07340 -10.07302 -10.07233
  Beta  occ. eigenvalues --  -10.06725  -0.93274  -0.76066  -0.72780  -0.70056
  Beta  occ. eigenvalues --   -0.67071  -0.66516  -0.62869  -0.61040  -0.59582
  Beta  occ. eigenvalues --   -0.56215  -0.53724  -0.51506  -0.49001  -0.46484
  Beta  occ. eigenvalues --   -0.45176  -0.43699  -0.42205  -0.40517  -0.39627
  Beta  occ. eigenvalues --   -0.38429  -0.37411  -0.35491  -0.34600  -0.34141
  Beta  occ. eigenvalues --   -0.33737  -0.33171  -0.32213  -0.31315  -0.30762
  Beta  occ. eigenvalues --   -0.30076  -0.28915  -0.28105  -0.27101  -0.26654
  Beta  occ. eigenvalues --   -0.25643  -0.25217  -0.24840  -0.23977  -0.23745
  Beta  occ. eigenvalues --   -0.23491  -0.23033  -0.22701  -0.22617  -0.22415
  Beta  occ. eigenvalues --   -0.22062  -0.18807  -0.15375
  Beta virt. eigenvalues --    0.05871   0.06256   0.06634   0.07124   0.07664
  Beta virt. eigenvalues --    0.07844   0.08088   0.08781   0.08972   0.09596
  Beta virt. eigenvalues --    0.09777   0.10015   0.10479   0.10869   0.11131

 Mulliken charges and spin densities:
               1          2
     1  C    0.903101  -1.544978
     2  C   -0.689169   0.499088
     3  C   -0.093457  -0.111482
     4  C    0.332278  -0.634479
     5  C    0.190940  -0.375772
     6  C   -0.348987  -0.278617
     7  C   -1.211616   1.452286
     8  C   -0.132365  -0.092371
     9  C    1.524926  -1.516588
    10  C    0.145463  -0.528462
    11  C   -0.230904  -0.264141
    12  C    0.459257  -1.059062
    13  C   -0.377636   0.602121
    14  C    0.108809  -0.174355
    15  C   -0.469172  -0.239110
    16  O   -0.181932  -0.016271
    17  H   -0.045523   0.177042
    18  H   -0.375386   0.516967
    19  H   -0.071214   0.206210
    20  H    0.021721   0.115446
    21  H   -0.320144   0.471021
    22  H   -0.056390   0.221824
    23  H   -0.154278   0.307867
    24  H    0.078455   0.086672
    25  H   -0.001083   0.163768
    26  H    0.082953   0.074976
    27  H   -0.027712   0.197683
    28  H   -0.031356   0.195402
    29  H   -0.045261   0.201856
    30  H    0.075281   0.043093
    31  H   -0.224685   0.349533
    32  H   -0.181192   0.407822
    33  H   -0.116083   0.275031
    34  H    0.159201  -0.055573
    35  H   -0.034441   0.177435
    36  H   -0.143485   0.300798
    37  H    0.069754   0.068466
    38  H   -0.297698   0.460623
    39  H   -0.113972   0.309996
    40  H    0.093035   0.059384
    41  H   -0.010693   0.150059
    42  H   -0.028730   0.201263
    43  H    0.654851  -0.538804
    44  H    0.114539   0.136330
 Sum of Mulliken charges =  -1.00000   1.00000

 Dipole moment (field-independent basis, Debye):
    X=              2.3428    Y=              1.2094    Z=             -1.7147  Tot=              3.1450
 Quadrupole moment (field-independent basis, Debye-Ang):
   XX=           -228.2032   YY=           -155.6841   ZZ=           -139.4894
   XY=             -0.3404   XZ=             -8.7779   YZ=              0.4671

 Summary of Natural Population Analysis:

                                       Natural Population
                Natural  -----------------------------------------------
    Atom  No    Charge         Core      Valence    Rydberg      Total
 -----------------------------------------------------------------------
      C    1   -0.28815      0.99967     2.28290    0.00558     3.28815
      C    2   -0.19287      0.99964     2.18511    0.00812     3.19287
      C    3   -0.19088      0.99963     2.18282    0.00843     3.19088
      C    4   -0.19304      0.99963     2.18604    0.00738     3.19304
      C    5   -0.18721      0.99962     2.17967    0.00791     3.18721
      C    6   -0.20452      0.99961     2.19630    0.00861     3.20452
      C    7   -0.09274      0.99950     2.08398    0.00926     3.09274
      C    8   -0.08773      0.99950     2.07697    0.01125     3.08773
      C    9   -0.12678      0.99956     2.11413    0.01309     3.12678
      C   10   -0.19281      0.99963     2.18438    0.00880     3.19281
      C   11   -0.19318      0.99964     2.18583    0.00771     3.19318
      C   12   -0.18711      0.99962     2.17856    0.00893     3.18711
      C   13   -0.10837      0.99958     2.09650    0.01229     3.10837
      C   14   -0.20269      0.99960     2.19523    0.00786     3.20269
      C   15   -0.01290      0.99959     2.00135    0.01197     3.01290
      O   16   -0.37038      0.99990     3.36428    0.00620     4.37038
      H   17    0.09563      0.00000     0.40339    0.00098     0.40437
      H   18    0.09984      0.00000     0.39908    0.00108     0.40016
      H   19    0.09575      0.00000     0.40317    0.00108     0.40425
      H   20    0.09295      0.00000     0.40572    0.00133     0.40705
      H   21    0.09657      0.00000     0.40226    0.00117     0.40343
      H   22    0.09551      0.00000     0.40314    0.00134     0.40449
      H   23    0.09619      0.00000     0.40276    0.00105     0.40381
      H   24    0.09751      0.00000     0.40121    0.00128     0.40249
      H   25    0.09731      0.00000     0.40161    0.00108     0.40269
      H   26    0.09665      0.00000     0.40204    0.00131     0.40335
      H   27    0.09640      0.00000     0.40252    0.00108     0.40360
      H   28    0.09937      0.00000     0.39923    0.00140     0.40063
      H   29    0.09942      0.00000     0.39924    0.00134     0.40058
      H   30    0.09419      0.00000     0.40423    0.00158     0.40581
      H   31    0.08816      0.00000     0.40996    0.00188     0.41184
      H   32    0.10503      0.00000     0.39300    0.00197     0.39497
      H   33    0.10391      0.00000     0.39500    0.00109     0.39609
      H   34    0.09542      0.00000     0.40308    0.00149     0.40458
      H   35    0.09516      0.00000     0.40386    0.00098     0.40484
      H   36    0.10014      0.00000     0.39871    0.00115     0.39986
      H   37    0.09791      0.00000     0.40111    0.00098     0.40209
      H   38    0.09933      0.00000     0.39925    0.00142     0.40067
      H   39    0.10083      0.00000     0.39780    0.00137     0.39917
      H   40    0.09760      0.00000     0.40122    0.00118     0.40240
      H   41    0.09927      0.00000     0.39953    0.00121     0.40073
      H   42    0.08304      0.00000     0.41588    0.00108     0.41696
      H   43    0.08462      0.00000     0.41356    0.00182     0.41538
      H   44    0.22765      0.00000     0.26932    0.00303     0.27235
 =======================================================================
   * Total *    0.00000     15.99391    46.82496    0.18113    63.00000

 Normal termination of Gaussian 16 at Fri Dec 11 01:51:37 2020.
