 Gaussian 16, Revision A.03,

 -----------------------------------------------------------
 # opt freq B3LYP/6-31G(d) empiricaldispersion=gd3bj scf=xqc
 -----------------------------------------------------------

 ------------------------------
 CID_79402971_JID_7846_neutraal
 ------------------------------
 Symbolic Z-matrix:
 Charge =  0 Multiplicity = 1

 SCF Done:  E(RB3LYP) =  -1175.76287209     A.U. after   16 cycles
 SCF Done:  E(RB3LYP) =  -1175.78840963     A.U. after   13 cycles
 SCF Done:  E(RB3LYP) =  -1175.78992659     A.U. after   13 cycles
 SCF Done:  E(RB3LYP) =  -1175.78685165     A.U. after   14 cycles
 SCF Done:  E(RB3LYP) =  -1175.79185247     A.U. after   13 cycles
 SCF Done:  E(RB3LYP) =  -1175.79270919     A.U. after   14 cycles
 SCF Done:  E(RB3LYP) =  -1175.79381814     A.U. after   14 cycles
 SCF Done:  E(RB3LYP) =  -1175.79428775     A.U. after   14 cycles
 SCF Done:  E(RB3LYP) =  -1175.79439603     A.U. after   13 cycles
 SCF Done:  E(RB3LYP) =  -1175.79592053     A.U. after   12 cycles
 SCF Done:  E(RB3LYP) =  -1175.79619441     A.U. after   10 cycles
 SCF Done:  E(RB3LYP) =  -1175.79619603     A.U. after    9 cycles
 SCF Done:  E(RB3LYP) =  -1175.79619678     A.U. after    9 cycles
 SCF Done:  E(RB3LYP) =  -1175.79619707     A.U. after    8 cycles
 SCF Done:  E(RB3LYP) =  -1175.79619712     A.U. after    7 cycles
 Optimization completed.
    -- Stationary point found.
 Normal termination of Gaussian 16 at Fri Dec 11 13:24:16 2020.

 --------------------------------------------------------------------
 #N Geom=AllCheck Guess=TCheck SCRF=Check GenChk RB3LYP/6-31G(d) Freq
 --------------------------------------------------------------------

 Structure from the checkpoint file:  "JID_7846.chk"
 ------------------------------
 CID_79402971_JID_7846_neutraal
 ------------------------------
 Charge =  0 Multiplicity = 1

 SCF Done:  E(RB3LYP) =  -1175.79619712     A.U. after    1 cycles

  Exact polarizability: 225.192  15.520 153.823  -2.575  -0.164  76.747
 Approx polarizability: 308.669  31.400 277.439  -4.166   2.604 123.585

                      1                      2                      3
                      A                      A                      A
 Frequencies --     25.2486                54.1307                55.4342
 Red. masses --      7.2193                 5.4937                 3.8623
 Frc consts  --      0.0027                 0.0095                 0.0070
 IR Inten    --      0.9376                 0.5609                 1.0708

                      4                      5                      6
                      A                      A                      A
 Frequencies --     67.1194                85.2796               104.9727
 Red. masses --      8.6586                 6.0200                 4.7887
 Frc consts  --      0.0230                 0.0258                 0.0311
 IR Inten    --      0.1734                 0.3558                 4.2005

                      7                      8                      9
                      A                      A                      A
 Frequencies --    124.6486               151.8975               159.2166
 Red. masses --      6.5056                 4.7124                 5.4810
 Frc consts  --      0.0596                 0.0641                 0.0819
 IR Inten    --      1.0614                 1.0991                 3.0823

                     10                     11                     12
                      A                      A                      A
 Frequencies --    198.3556               233.5977               241.0583
 Red. masses --      1.0998                 3.9456                 4.3014
 Frc consts  --      0.0255                 0.1269                 0.1473
 IR Inten    --      0.2608                 4.3133                 3.2365

                     13                     14                     15
                      A                      A                      A
 Frequencies --    248.8871               283.9149               319.7103
 Red. masses --      4.0559                 4.4342                 4.8968
 Frc consts  --      0.1480                 0.2106                 0.2949
 IR Inten    --      2.5529                 1.7325                 1.1643

                     16                     17                     18
                      A                      A                      A
 Frequencies --    325.8026               347.9298               353.7250
 Red. masses --      6.8505                 2.5172                 5.4085
 Frc consts  --      0.4284                 0.1795                 0.3987
 IR Inten    --      2.5002                10.0614                 5.2269

                     19                     20                     21
                      A                      A                      A
 Frequencies --    389.5631               419.2324               502.0483
 Red. masses --      9.1056                 6.8797                 4.9112
 Frc consts  --      0.8142                 0.7124                 0.7293
 IR Inten    --     15.6183                 3.3359                28.4722

                     22                     23                     24
                      A                      A                      A
 Frequencies --    549.8066               564.0890               589.0114
 Red. masses --      5.2623                 5.8669                 2.3659
 Frc consts  --      0.9372                 1.0999                 0.4836
 IR Inten    --      9.4668                10.7887                40.1383

                     25                     26                     27
                      A                      A                      A
 Frequencies --    591.9852               598.3131               608.5292
 Red. masses --      2.6545                 4.5162                 1.1987
 Frc consts  --      0.5481                 0.9525                 0.2615
 IR Inten    --     30.1394                 8.8830                47.8660

                     28                     29                     30
                      A                      A                      A
 Frequencies --    640.1087               648.1259               672.9027
 Red. masses --      1.6089                 2.2421                 3.0923
 Frc consts  --      0.3884                 0.5549                 0.8250
 IR Inten    --     21.4575                33.7295                35.7544

                     31                     32                     33
                      A                      A                      A
 Frequencies --    681.9216               747.0056               780.0745
 Red. masses --      4.0440                 4.7545                 7.4567
 Frc consts  --      1.1080                 1.5631                 2.6734
 IR Inten    --     65.0183                10.2363                15.8087

                     34                     35                     36
                      A                      A                      A
 Frequencies --    783.4335               812.3722               846.5895
 Red. masses --      7.9654                 1.5725                 4.8497
 Frc consts  --      2.8805                 0.6115                 2.0479
 IR Inten    --     22.4405                91.5547                43.0858

                     37                     38                     39
                      A                      A                      A
 Frequencies --    870.9052               927.9579               941.1642
 Red. masses --      1.4241                 2.5240                 3.7740
 Frc consts  --      0.6364                 1.2806                 1.9696
 IR Inten    --     69.1370                13.5678                19.4230

                     40                     41                     42
                      A                      A                      A
 Frequencies --    958.2782              1018.9763              1043.9575
 Red. masses --      2.4806                 2.2802                 1.7358
 Frc consts  --      1.3421                 1.3950                 1.1146
 IR Inten    --     11.2496                74.3317                20.6600

                     43                     44                     45
                      A                      A                      A
 Frequencies --   1073.5080              1106.4716              1114.3687
 Red. masses --      1.5211                 2.0106                 4.4730
 Frc consts  --      1.0328                 1.4503                 3.2727
 IR Inten    --      1.7347                16.5183                43.1001

                     46                     47                     48
                      A                      A                      A
 Frequencies --   1154.6464              1194.8342              1225.6512
 Red. masses --      4.6090                 2.5630                 1.1787
 Frc consts  --      3.6204                 2.1558                 1.0432
 IR Inten    --     43.2432               429.3875                10.8199

                     49                     50                     51
                      A                      A                      A
 Frequencies --   1311.0543              1319.6894              1341.8719
 Red. masses --      1.8718                 2.4325                 1.8263
 Frc consts  --      1.8956                 2.4960                 1.9375
 IR Inten    --    107.1743                25.3484               170.4907

                     52                     53                     54
                      A                      A                      A
 Frequencies --   1369.8520              1385.4302              1403.0653
 Red. masses --      2.2194                 1.3477                 1.7075
 Frc consts  --      2.4537                 1.5241                 1.9804
 IR Inten    --     10.4120                 1.4844               110.5348

                     55                     56                     57
                      A                      A                      A
 Frequencies --   1427.9254              1444.2004              1457.3541
 Red. masses --      1.8830                 2.6543                 3.4219
 Frc consts  --      2.2621                 3.2617                 4.2821
 IR Inten    --     21.5087                74.4260                88.9947

                     58                     59                     60
                      A                      A                      A
 Frequencies --   1495.9678              1496.6712              1508.8722
 Red. masses --      1.1652                 1.2348                 1.0451
 Frc consts  --      1.5363                 1.6297                 1.4019
 IR Inten    --     33.4517                59.2134                 7.6271

                     61                     62                     63
                      A                      A                      A
 Frequencies --   1521.1000              1529.4875              1555.7485
 Red. masses --      1.2072                 1.0794                 2.7300
 Frc consts  --      1.6457                 1.4877                 3.8931
 IR Inten    --      6.8744                14.0019                47.8336

                     64                     65                     66
                      A                      A                      A
 Frequencies --   1604.0508              1764.0345              1805.0033
 Red. masses --      2.8782                 7.9171                 7.8829
 Frc consts  --      4.3632                14.5154                15.1318
 IR Inten    --    354.3294               414.5438               280.1353

                     67                     68                     69
                      A                      A                      A
 Frequencies --   2236.5867              3038.6704              3051.2872
 Red. masses --      5.9288                 1.0577                 1.0601
 Frc consts  --     17.4740                 5.7543                 5.8152
 IR Inten    --      0.6314                15.2452                12.0435

                     70                     71                     72
                      A                      A                      A
 Frequencies --   3071.2888              3085.3257              3090.5411
 Red. masses --      1.0356                 1.1050                 1.1031
 Frc consts  --      5.7556                 6.1977                 6.2078
 IR Inten    --     13.8928                17.3620                 9.9173

                     73                     74                     75
                      A                      A                      A
 Frequencies --   3132.0138              3165.1969              3374.3979
 Red. masses --      1.1006                 1.1038                 1.0769
 Frc consts  --      6.3610                 6.5156                 7.2248
 IR Inten    --      9.5393                 8.5631               225.2279

                     76                     77                     78
                      A                      A                      A
 Frequencies --   3493.3488              3501.2797              3689.3698
 Red. masses --      1.1608                 1.0746                 1.0640
 Frc consts  --      8.3459                 7.7616                 8.5327
 IR Inten    --     64.0757                 4.5188                91.7318

 - Thermochemistry -
 -------------------
 Temperature   298.150 Kelvin.  Pressure   1.00000 Atm.
 Atom     1 has atomic number  6 and mass  12.00000

 Molecular mass:   253.05211 amu.
 Principal axes and moments of inertia in atomic units:
                           1         2         3
     Eigenvalues --  2201.807997290.371129348.35723
           X            0.99997   0.00738   0.00011
           Y           -0.00738   0.99997   0.00008
           Z           -0.00011  -0.00008   1.00000
 This molecule is an asymmetric top.
 Rotational symmetry number  1.
 Warning -- assumption of classical behavior for rotation
           may cause significant error
 Rotational temperatures (Kelvin)      0.03934     0.01188     0.00927
 Rotational constants (GHZ):           0.81966     0.24755     0.19305
 Zero-point vibrational energy     550924.9 (Joules/Mol)
                                  131.67421 (Kcal/Mol)
 Warning -- explicit consideration of  27 degrees of freedom as
           vibrations may cause significant error
 Vibrational temperatures:     36.33    77.88    79.76    96.57   122.70
          (Kelvin)            151.03   179.34   218.55   229.08   285.39
                              336.10   346.83   358.09   408.49   459.99
                              468.76   500.59   508.93   560.49   603.18
                              722.34   791.05   811.60   847.46   851.73
                              860.84   875.54   920.97   932.51   968.16
                              981.13  1074.77  1122.35  1127.19  1168.82
                             1218.05  1253.04  1335.12  1354.13  1378.75
                             1466.08  1502.02  1544.54  1591.97  1603.33
                             1661.28  1719.10  1763.44  1886.31  1898.74
                             1930.65  1970.91  1993.32  2018.70  2054.47
                             2077.88  2096.81  2152.36  2153.38  2170.93
                             2188.52  2200.59  2238.38  2307.87  2538.05
                             2597.00  3217.95  4371.97  4390.12  4418.90
                             4439.10  4446.60  4506.27  4554.01  4855.01
                             5026.15  5037.56  5308.18

 Zero-point correction=                           0.209836 (Hartree/Particle)
 Thermal correction to Energy=                    0.226728
 Thermal correction to Enthalpy=                  0.227672
 Thermal correction to Gibbs Free Energy=         0.163986
 Sum of electronic and zero-point Energies=          -1175.586361
 Sum of electronic and thermal Energies=             -1175.569469
 Sum of electronic and thermal Enthalpies=           -1175.568525
 Sum of electronic and thermal Free Energies=        -1175.632211

                     E (Thermal)             CV                S
                      KCal/Mol        Cal/Mol-Kelvin    Cal/Mol-Kelvin
 Total                  142.274             61.879            134.039
 Electronic               0.000              0.000              0.000
 Translational            0.889              2.981             42.485
 Rotational               0.889              2.981             33.373
 Vibrational            140.497             55.918             58.181
 Vibration     1          0.593              1.985              6.172
 Vibration     2          0.596              1.976              4.660
 Vibration     3          0.596              1.975              4.613
 Vibration     4          0.598              1.970              4.236
 Vibration     5          0.601              1.959              3.766
 Vibration     6          0.605              1.945              3.360
 Vibration     7          0.610              1.928              3.027
 Vibration     8          0.619              1.901              2.648
 Vibration     9          0.621              1.892              2.559
 Vibration    10          0.637              1.842              2.148
 Vibration    11          0.654              1.789              1.851
 Vibration    12          0.658              1.777              1.795
 Vibration    13          0.662              1.765              1.738
 Vibration    14          0.682              1.703              1.510
 Vibration    15          0.706              1.636              1.312
 Vibration    16          0.710              1.624              1.281
 Vibration    17          0.726              1.579              1.176
 Vibration    18          0.730              1.568              1.150
 Vibration    19          0.757              1.492              1.002
 Vibration    20          0.782              1.428              0.895
 Vibration    21          0.857              1.245              0.653
 Vibration    22          0.905              1.140              0.545
 Vibration    23          0.920              1.109              0.516
 Vibration    24          0.946              1.055              0.469
 Vibration    25          0.949              1.049              0.464
 Vibration    26          0.956              1.035              0.453
 Vibration    27          0.967              1.014              0.435

                           ! Non-Optimized Parameters !
 Normal termination of Gaussian 16 at Fri Dec 11 13:33:06 2020.

 ----------------------------------------------------------------------
 # B3LYP/6-311++G(d,p) empiricaldispersion=gd3bj scf=xqc pop=npa geom=c
 heck
 ----------------------------------------------------------------------

 --------------------------------------
 CID_79402971_JID_7846_Energie_neutraal
 --------------------------------------
 Structure from the checkpoint file:  "JID_7846.chk"
 Charge =  0 Multiplicity = 1

 SCF Done:  E(RB3LYP) =  -1176.05772610     A.U. after   16 cycles
 Normal termination of Gaussian 16 at Fri Dec 11 13:36:43 2020.

 ----------------------------------------------------------------------
 # B3LYP/6-311++G(d,p) empiricaldispersion=gd3bj scf=xqc pop=npa geom=c
 heck
 ----------------------------------------------------------------------

 ------------------------------------
 CID_79402971_JID_7846_Energie_kation
 ------------------------------------
 Structure from the checkpoint file:  "JID_7846.chk"
 Charge =  1 Multiplicity = 2

 SCF Done:  E(UB3LYP) =  -1175.74139152     A.U. after   33 cycles
 SCF Done:  E(UB3LYP) =  -1175.74144603     a.u. after    7 cycles
 Normal termination of Gaussian 16 at Fri Dec 11 14:52:22 2020.
 Gaussian 16:  ES64L-G16RevA.03 25-Dec-2016

 ----------------------------------------------------------------------
 # B3LYP/6-311++G(d,p) empiricaldispersion=gd3bj scf=xqc pop=npa geom=c
 heck
 ----------------------------------------------------------------------

 -----------------------------------
 CID_79402971_JID_7846_Energie_anion
 -----------------------------------
 Structure from the checkpoint file:  "JID_7846.chk"
 Charge = -1 Multiplicity = 2

                         Standard orientation:
 ---------------------------------------------------------------------
 Center     Atomic      Atomic             Coordinates (Angstroms)
 Number     Number       Type             X           Y           Z
 ---------------------------------------------------------------------
      1          6           0       -3.816527   -2.004399   -0.203035
      2          6           0       -2.426252   -1.447425   -0.091426
      3          7           0       -1.419207   -2.288248   -0.100762
      4         16           0        0.054146   -1.474770    0.082347
      5          6           0       -0.680940    0.105435    0.099996
      6          6           0       -2.071797   -0.051795    0.022257
      7          6           0       -2.966091    1.099592    0.056586
      8          8           0       -2.611295    2.265323    0.211502
      9          8           0       -4.276136    0.795260   -0.094653
     10          7           0       -0.071269    1.331536    0.203254
     11          6           0        1.198304    1.796394   -0.135913
     12          8           0        1.415859    2.994177   -0.109044
     13          6           0        2.266176    0.789040   -0.520682
     14          7           0        2.435553   -0.186047    0.550757
     15          6           0        3.401180   -1.247591    0.246248
     16          6           0        4.763476   -0.771173   -0.028375
     17          6           0        5.864616   -0.325529   -0.245096
     18          1           0       -3.753276   -3.092362   -0.267910
     19          1           0       -4.423633   -1.725006    0.663547
     20          1           0       -4.327935   -1.614748   -1.088360
     21          1           0       -4.746776    1.648464   -0.044738
     22          1           0       -0.753154    2.089377    0.323852
     23          1           0        1.949099    0.246263   -1.421894
     24          1           0        3.171678    1.357817   -0.765074
     25          1           0        2.714438    0.291342    1.406205
     26          1           0        3.406965   -1.944890    1.092135
     27          1           0        3.017946   -1.808044   -0.616014
     28          1           0        6.842495    0.054055   -0.437863
 ---------------------------------------------------------------------

 SCF Done:  E(UB3LYP) =  -1176.07322578     A.U. after   29 cycles

 The electronic state is 2-A.
 Alpha  occ. eigenvalues --  -88.74081 -19.03350 -18.96116 -18.94857 -14.21397
 Alpha  occ. eigenvalues --  -14.20957 -14.17418 -10.14794 -10.13197 -10.12677
 Alpha  occ. eigenvalues --  -10.09496 -10.08927 -10.08458 -10.08414 -10.08111
 Alpha  occ. eigenvalues --  -10.04944 -10.03349  -7.82508  -5.78929  -5.78439
 Alpha  occ. eigenvalues --   -5.78001  -0.97195  -0.90779  -0.87448  -0.82637
 Alpha  occ. eigenvalues --   -0.81867  -0.78833  -0.68627  -0.64486  -0.64088
 Alpha  occ. eigenvalues --   -0.62586  -0.56746  -0.56494  -0.51884  -0.48063
 Alpha  occ. eigenvalues --   -0.45978  -0.44445  -0.42584  -0.40018  -0.38745
 Alpha  occ. eigenvalues --   -0.37450  -0.36155  -0.35138  -0.34051  -0.33437
 Alpha  occ. eigenvalues --   -0.32663  -0.30920  -0.30677  -0.29936  -0.29097
 Alpha  occ. eigenvalues --   -0.27894  -0.26988  -0.26388  -0.25211  -0.24551
 Alpha  occ. eigenvalues --   -0.21643  -0.20402  -0.19626  -0.19517  -0.18590
 Alpha  occ. eigenvalues --   -0.15718  -0.14654  -0.13675  -0.12789  -0.11716
 Alpha  occ. eigenvalues --   -0.09390   0.04172
 Alpha virt. eigenvalues --    0.06739   0.08392   0.08595   0.09592   0.09747
 Alpha virt. eigenvalues --    0.10005   0.10488   0.11527   0.11952   0.12671
 Alpha virt. eigenvalues --    0.12828   0.12992   0.13326   0.13898   0.14417

  Beta  occ. eigenvalues --  -88.74036 -19.03266 -18.95911 -18.94480 -14.21356
  Beta  occ. eigenvalues --  -14.21094 -14.17379 -10.14517 -10.13186 -10.12406
  Beta  occ. eigenvalues --  -10.09492 -10.08945 -10.08447 -10.08440 -10.07423
  Beta  occ. eigenvalues --  -10.04944 -10.03369  -7.82468  -5.78914  -5.78432
  Beta  occ. eigenvalues --   -5.77838  -0.96912  -0.90169  -0.87108  -0.82490
  Beta  occ. eigenvalues --   -0.81684  -0.78671  -0.68582  -0.64337  -0.63631
  Beta  occ. eigenvalues --   -0.62461  -0.56498  -0.56365  -0.51340  -0.47757
  Beta  occ. eigenvalues --   -0.45948  -0.44201  -0.42462  -0.39911  -0.38645
  Beta  occ. eigenvalues --   -0.37202  -0.35975  -0.34938  -0.33943  -0.33187
  Beta  occ. eigenvalues --   -0.31961  -0.30753  -0.30325  -0.29457  -0.28932
  Beta  occ. eigenvalues --   -0.27486  -0.26438  -0.25951  -0.25102  -0.23646
  Beta  occ. eigenvalues --   -0.21324  -0.20358  -0.19583  -0.18584  -0.17344
  Beta  occ. eigenvalues --   -0.15420  -0.14501  -0.13549  -0.12487  -0.11054
  Beta  occ. eigenvalues --   -0.08327
  Beta virt. eigenvalues --    0.06689   0.08359   0.08526   0.09485   0.09766
  Beta virt. eigenvalues --    0.09993   0.10467   0.11134   0.11684   0.12216
  Beta virt. eigenvalues --    0.12855   0.13076   0.13268   0.13544   0.14298

 Mulliken charges and spin densities:
               1          2
     1  C   -0.712418   0.015268
     2  C   -0.974909  -0.049116
     3  N   -0.076845   0.013793
     4  S    0.575745   0.139506
     5  C    0.261590   0.373148
     6  C    0.107839   0.050063
     7  C   -0.202399   0.142682
     8  O   -0.419876   0.072637
     9  O   -0.245963   0.013468
    10  N   -0.119872  -0.061839
    11  C   -0.228142   0.171736
    12  O   -0.375003   0.129475
    13  C   -0.037934  -0.095950
    14  N   -0.150350   0.008091
    15  C   -0.652225   0.009577
    16  C    0.633925  -0.033866
    17  C   -0.556326   0.025210
    18  H    0.144387  -0.000454
    19  H    0.161246  -0.002085
    20  H    0.160854  -0.000284
    21  H    0.272647  -0.001216
    22  H    0.397984   0.005161
    23  H    0.146379   0.006558
    24  H    0.209300  -0.006777
    25  H    0.224129   0.033513
    26  H    0.145119   0.047586
    27  H    0.163420  -0.007296
    28  H    0.147699   0.001410
 Sum of Mulliken charges =  -1.00000   1.00000

 Dipole moment (field-independent basis, Debye):
    X=              2.1375    Y=             -3.1269    Z=             -0.1400  Tot=              3.7903
 Quadrupole moment (field-independent basis, Debye-Ang):
   XX=           -129.5291   YY=           -149.3932   ZZ=           -111.6751
   XY=             -5.9498   XZ=              0.6113   YZ=             -0.2459

 Summary of Natural Population Analysis:

                                       Natural Population
                Natural  -----------------------------------------------
    Atom  No    Charge         Core      Valence    Rydberg      Total
 -----------------------------------------------------------------------
      C    1   -0.29679      0.99963     2.29243    0.00474     3.29679
      C    2    0.11077      0.99957     1.87455    0.01512     2.88923
      N    3   -0.34333      0.99969     2.82754    0.01610     3.84333
      S    4    0.28207      4.99946     2.69072    0.02775     7.71793
      C    5    0.15985      0.99947     1.82689    0.01378     2.84015
      C    6   -0.16560      0.99937     2.15570    0.01053     3.16560
      C    7    0.43029      0.99964     1.54720    0.02287     2.56971
      O    8   -0.33283      0.99987     3.32491    0.00806     4.33283
      O    9   -0.34919      0.99988     3.34322    0.00609     4.34919
      N   10   -0.33250      0.99961     2.82399    0.00890     3.83250
      C   11    0.37121      0.99970     1.60714    0.02195     2.62879
      O   12   -0.27927      0.99988     3.27264    0.00675     4.27927
      C   13   -0.13398      0.99960     2.12581    0.00858     3.13398
      N   14   -0.32385      0.99976     2.81202    0.01207     3.82385
      C   15   -0.12884      0.99957     2.11908    0.01019     3.12884
      C   16   -0.00458      0.99937     1.99858    0.00664     3.00458
      C   17   -0.13302      0.99927     2.13012    0.00362     3.13302
      H   18    0.10140      0.00000     0.39743    0.00116     0.39860
      H   19    0.10410      0.00000     0.39487    0.00103     0.39590
      H   20    0.10466      0.00000     0.39432    0.00102     0.39534
      H   21    0.23232      0.00000     0.26477    0.00291     0.26768
      H   22    0.22393      0.00000     0.27393    0.00213     0.27607
      H   23    0.10182      0.00000     0.39701    0.00117     0.39818
      H   24    0.09532      0.00000     0.40227    0.00241     0.40468
      H   25    0.17563      0.00000     0.32189    0.00248     0.32437
      H   26    0.10973      0.00000     0.38877    0.00150     0.39027
      H   27    0.11153      0.00000     0.38715    0.00132     0.38847
      H   28    0.10914      0.00000     0.38986    0.00100     0.39086
 =======================================================================
   * Total *   -0.00000     20.99332    44.78483    0.22185    66.00000

 Normal termination of Gaussian 16 at Fri Dec 11 15:00:40 2020.
