 Gaussian 16, Revision A.03,

 -----------------------------------------------------------
 # opt freq B3LYP/6-31G(d) empiricaldispersion=gd3bj scf=xqc
 -----------------------------------------------------------

 -------------------------------
 CID_15531048_JID_10200_neutraal
 -------------------------------
 Symbolic Z-matrix:
 Charge =  0 Multiplicity = 1

 SCF Done:  E(RB3LYP) =  -920.269116483     A.U. after   14 cycles
 SCF Done:  E(RB3LYP) =  -920.273545809     A.U. after   12 cycles
 SCF Done:  E(RB3LYP) =  -920.274011631     A.U. after   11 cycles
 SCF Done:  E(RB3LYP) =  -920.274143320     A.U. after   11 cycles
 SCF Done:  E(RB3LYP) =  -920.274242395     A.U. after   11 cycles
 SCF Done:  E(RB3LYP) =  -920.274278956     A.U. after   11 cycles
 SCF Done:  E(RB3LYP) =  -920.274346371     A.U. after   11 cycles
 SCF Done:  E(RB3LYP) =  -920.274394398     A.U. after   11 cycles
 SCF Done:  E(RB3LYP) =  -920.274418958     A.U. after   11 cycles
 SCF Done:  E(RB3LYP) =  -920.274441810     A.U. after   11 cycles
 SCF Done:  E(RB3LYP) =  -920.274492346     A.U. after   11 cycles
 SCF Done:  E(RB3LYP) =  -920.274496281     A.U. after    8 cycles
 SCF Done:  E(RB3LYP) =  -920.274497019     A.U. after    8 cycles
 SCF Done:  E(RB3LYP) =  -920.274497208     A.U. after    7 cycles
 SCF Done:  E(RB3LYP) =  -920.274497316     A.U. after    7 cycles
 Optimization completed.
    -- Stationary point found.
 Normal termination of Gaussian 16 at Sun Dec 13 20:47:34 2020.

 --------------------------------------------------------------------
 #N Geom=AllCheck Guess=TCheck SCRF=Check GenChk RB3LYP/6-31G(d) Freq
 --------------------------------------------------------------------

 Structure from the checkpoint file:  "JID_10200.chk"
 -------------------------------
 CID_15531048_JID_10200_neutraal
 -------------------------------
 Charge =  0 Multiplicity = 1

 SCF Done:  E(RB3LYP) =  -920.274497316     A.U. after    1 cycles

  Exact polarizability: 238.609  20.050 158.505  -0.095   5.211 131.334
 Approx polarizability: 319.927  44.570 265.774   1.465   5.463 225.377

                      1                      2                      3
                      A                      A                      A
 Frequencies --     20.8366                40.5171                46.5586
 Red. masses --      3.7978                 3.9944                 4.9751
 Frc consts  --      0.0010                 0.0039                 0.0064
 IR Inten    --      1.0887                 1.2464                 1.4220

                      4                      5                      6
                      A                      A                      A
 Frequencies --     71.4760                89.1928               128.6864
 Red. masses --      3.4175                 3.3484                 4.7242
 Frc consts  --      0.0103                 0.0157                 0.0461
 IR Inten    --      0.8744                 3.6053                 1.2885

                      7                      8                      9
                      A                      A                      A
 Frequencies --    157.8601               177.9345               201.8053
 Red. masses --      5.3060                 3.9803                 1.5924
 Frc consts  --      0.0779                 0.0742                 0.0382
 IR Inten    --      2.4966                 2.5839               100.2594

                     10                     11                     12
                      A                      A                      A
 Frequencies --    219.7660               252.5007               273.6588
 Red. masses --      2.1367                 1.2569                 4.4026
 Frc consts  --      0.0608                 0.0472                 0.1943
 IR Inten    --     63.5438                 0.4321                 0.8123

                     13                     14                     15
                      A                      A                      A
 Frequencies --    282.8620               297.3431               308.7627
 Red. masses --      4.0130                 3.9328                 5.0128
 Frc consts  --      0.1892                 0.2049                 0.2816
 IR Inten    --      2.4797                 2.1744                 5.2870

                     16                     17                     18
                      A                      A                      A
 Frequencies --    333.8426               345.9639               358.3463
 Red. masses --      4.8940                 4.8814                 4.2601
 Frc consts  --      0.3214                 0.3442                 0.3223
 IR Inten    --      3.9710                 2.2191                 3.9791

                     19                     20                     21
                      A                      A                      A
 Frequencies --    428.2542               429.5602               436.3257
 Red. masses --      2.3213                 1.5895                 4.4461
 Frc consts  --      0.2508                 0.1728                 0.4987
 IR Inten    --     13.4560                34.0160                12.7711

                     22                     23                     24
                      A                      A                      A
 Frequencies --    454.5201               477.9213               495.8098
 Red. masses --      2.7152                 3.7838                 4.4179
 Frc consts  --      0.3305                 0.5092                 0.6399
 IR Inten    --     12.8704                 0.7291                 1.5620

                     25                     26                     27
                      A                      A                      A
 Frequencies --    526.6935               553.6378               577.5010
 Red. masses --      3.0528                 4.1515                 4.3730
 Frc consts  --      0.4990                 0.7497                 0.8593
 IR Inten    --      6.6179                 4.4764                15.5380

                     28                     29                     30
                      A                      A                      A
 Frequencies --    584.5047               650.9041               653.5268
 Red. masses --      4.6026                 6.5790                 6.6236
 Frc consts  --      0.9265                 1.6423                 1.6668
 IR Inten    --     20.8884                14.3024                 8.1561

                     31                     32                     33
                      A                      A                      A
 Frequencies --    676.7195               712.0306               722.7382
 Red. masses --      6.9569                 3.6850                 5.1811
 Frc consts  --      1.8771                 1.1007                 1.5945
 IR Inten    --      2.1509                 0.5723                 1.9310

                     34                     35                     36
                      A                      A                      A
 Frequencies --    766.8415               789.9653               812.7282
 Red. masses --      3.5550                 4.6901                 2.3309
 Frc consts  --      1.2317                 1.7244                 0.9071
 IR Inten    --      0.6218                10.9363                34.1237

                     37                     38                     39
                      A                      A                      A
 Frequencies --    824.2794               833.4608               839.8148
 Red. masses --      4.3856                 1.2952                 1.3699
 Frc consts  --      1.7556                 0.5301                 0.5692
 IR Inten    --     23.3451                 1.8581                14.2345

                     40                     41                     42
                      A                      A                      A
 Frequencies --    847.4272               875.0913               884.8252
 Red. masses --      2.1443                 1.8371                 2.7738
 Frc consts  --      0.9073                 0.8289                 1.2795
 IR Inten    --     32.0087                23.5109                 5.9073

                     43                     44                     45
                      A                      A                      A
 Frequencies --    900.1342               957.5402               968.3590
 Red. masses --      2.1474                 1.8695                 1.3317
 Frc consts  --      1.0251                 1.0099                 0.7357
 IR Inten    --      4.3466                 3.5627                 0.8313

                     46                     47                     48
                      A                      A                      A
 Frequencies --    974.8059               985.7078              1036.0430
 Red. masses --      1.6769                 3.0387                 2.7056
 Frc consts  --      0.9388                 1.7395                 1.7111
 IR Inten    --      5.0004                19.4369                 2.2896

                     49                     50                     51
                      A                      A                      A
 Frequencies --   1084.5092              1090.7670              1110.5329
 Red. masses --      6.3309                 1.7172                 5.8786
 Frc consts  --      4.3872                 1.2037                 4.2716
 IR Inten    --     66.9056                 6.5803               127.5183

                     52                     53                     54
                      A                      A                      A
 Frequencies --   1130.0817              1147.9136              1178.9288
 Red. masses --      3.5378                 1.4068                 1.5910
 Frc consts  --      2.6619                 1.0922                 1.3028
 IR Inten    --     71.1321                 5.6887               148.6490

                     55                     56                     57
                      A                      A                      A
 Frequencies --   1186.9264              1197.9737              1205.6705
 Red. masses --      1.2718                 1.4771                 1.2758
 Frc consts  --      1.0557                 1.2490                 1.0927
 IR Inten    --      0.7668                53.6915                19.8845

                     58                     59                     60
                      A                      A                      A
 Frequencies --   1218.5098              1223.4329              1230.0287
 Red. masses --      1.5411                 1.7694                 1.9445
 Frc consts  --      1.3481                 1.5604                 1.7334
 IR Inten    --      0.9415                22.4167                13.7295

                     61                     62                     63
                      A                      A                      A
 Frequencies --   1247.3042              1260.7059              1281.4218
 Red. masses --      1.5120                 1.2156                 1.6036
 Frc consts  --      1.3860                 1.1383                 1.5515
 IR Inten    --     40.5847                 5.7437                 8.3246

                     64                     65                     66
                      A                      A                      A
 Frequencies --   1296.3736              1308.5385              1342.2651
 Red. masses --      2.7717                 2.1754                 1.3624
 Frc consts  --      2.7445                 2.1947                 1.4462
 IR Inten    --    161.5946               183.9888                 7.7096

                     67                     68                     69
                      A                      A                      A
 Frequencies --   1345.3102              1355.6839              1359.6677
 Red. masses --      1.6261                 2.7871                 2.1509
 Frc consts  --      1.7339                 3.0180                 2.3428
 IR Inten    --    210.4695                52.9655                59.5790

                     70                     71                     72
                      A                      A                      A
 Frequencies --   1378.1413              1389.4116              1423.0128
 Red. masses --      2.0899                 1.9505                 2.6924
 Frc consts  --      2.3387                 2.2184                 3.2122
 IR Inten    --     97.8737                 3.8034                30.1209

                     73                     74                     75
                      A                      A                      A
 Frequencies --   1434.5269              1463.1573              1500.3985
 Red. masses --      1.3862                 3.0089                 1.1995
 Frc consts  --      1.6807                 3.7953                 1.5910
 IR Inten    --     23.8583                 8.4942                16.6994

                     76                     77                     78
                      A                      A                      A
 Frequencies --   1506.7249              1515.9942              1520.8538
 Red. masses --      1.2640                 2.6259                 1.0479
 Frc consts  --      1.6907                 3.5557                 1.4281
 IR Inten    --      4.5144                35.3163                 5.2004

                     79                     80                     81
                      A                      A                      A
 Frequencies --   1536.2659              1547.9612              1565.1299
 Red. masses --      1.0663                 1.1102                 2.3825
 Frc consts  --      1.4827                 1.5673                 3.4386
 IR Inten    --     48.7903                 4.3458               128.5841

                     82                     83                     84
                      A                      A                      A
 Frequencies --   1570.4045              1635.7999              1667.9301
 Red. masses --      3.4606                 6.9140                 6.7585
 Frc consts  --      5.0283                10.9003                11.0779
 IR Inten    --    103.5400                 9.0078                39.1520

                     85                     86                     87
                      A                      A                      A
 Frequencies --   1675.4206              1685.2043              3023.3997
 Red. masses --      5.7628                 6.8129                 1.0349
 Frc consts  --      9.5308                11.3996                 5.5738
 IR Inten    --     60.9175                12.7332                59.8759

                     88                     89                     90
                      A                      A                      A
 Frequencies --   3032.0258              3047.7381              3053.4994
 Red. masses --      1.0579                 1.0670                 1.0851
 Frc consts  --      5.7299                 5.8396                 5.9608
 IR Inten    --     79.8800                20.6048                21.2446

                     91                     92                     93
                      A                      A                      A
 Frequencies --   3067.4477              3080.8907              3094.4468
 Red. masses --      1.1022                 1.1065                 1.1033
 Frc consts  --      6.1103                 6.1878                 6.2243
 IR Inten    --     50.9110                45.0418                46.7476

                     94                     95                     96
                      A                      A                      A
 Frequencies --   3156.9558              3161.7938              3200.4836
 Red. masses --      1.0995                 1.0901                 1.0872
 Frc consts  --      6.4564                 6.4208                 6.5614
 IR Inten    --     30.6086                21.8305                 6.1909

                     97                     98                     99
                      A                      A                      A
 Frequencies --   3203.7651              3210.0137              3216.5975
 Red. masses --      1.0907                 1.0873                 1.0941
 Frc consts  --      6.5962                 6.6012                 6.6697
 IR Inten    --      5.2002                 4.6526                 9.0856

                    100                    101                    102
                      A                      A                      A
 Frequencies --   3227.4489              3717.0564              3775.0092
 Red. masses --      1.0926                 1.0651                 1.0662
 Frc consts  --      6.7055                 8.6702                 8.9525
 IR Inten    --     14.4351                94.7392                63.7766

 - Thermochemistry -
 -------------------
 Temperature   298.150 Kelvin.  Pressure   1.00000 Atm.
 Atom     1 has atomic number  6 and mass  12.00000

 Molecular mass:   272.10486 amu.
 Principal axes and moments of inertia in atomic units:
                           1         2         3
     Eigenvalues --  2659.14078********************
           X            1.00000  -0.00074  -0.00103
           Y            0.00076   0.99974   0.02295
           Z            0.00101  -0.02295   0.99974
 This molecule is an asymmetric top.
 Rotational symmetry number  1.
 Warning -- assumption of classical behavior for rotation
           may cause significant error
 Rotational temperatures (Kelvin)      0.03257     0.00856     0.00774
 Rotational constants (GHZ):           0.67869     0.17830     0.16123
 Zero-point vibrational energy     767841.3 (Joules/Mol)
                                  183.51848 (Kcal/Mol)
 Warning -- explicit consideration of  28 degrees of freedom as
           vibrations may cause significant error
 Vibrational temperatures:     29.98    58.30    66.99   102.84   128.33
          (Kelvin)            185.15   227.13   256.01   290.35   316.19
                              363.29   393.73   406.98   427.81   444.24
                              480.33   497.76   515.58   616.16   618.04
                              627.78   653.95   687.62   713.36   757.79
                              796.56   830.90   840.97   936.51   940.28
                              973.65  1024.45  1039.86  1103.31  1136.58
                             1169.33  1185.95  1199.16  1208.31  1219.26
                             1259.06  1273.07  1295.09  1377.69  1393.25
                             1402.53  1418.21  1490.63  1560.37  1569.37
                             1597.81  1625.94  1651.59  1696.22  1707.72
                             1723.62  1734.69  1753.16  1760.25  1769.74
                             1794.59  1813.87  1843.68  1865.19  1882.70
                             1931.22  1935.60  1950.53  1956.26  1982.84
                             1999.05  2047.40  2063.96  2105.16  2158.74
                             2167.84  2181.18  2188.17  2210.34  2227.17
                             2251.87  2259.46  2353.55  2399.78  2410.56
                             2424.63  4350.00  4362.41  4385.02  4393.30
                             4413.37  4432.71  4452.22  4542.16  4549.12
                             4604.78  4609.50  4618.49  4627.97  4643.58
                             5348.02  5431.40

 Zero-point correction=                           0.292455 (Hartree/Particle)
 Thermal correction to Energy=                    0.309933
 Thermal correction to Enthalpy=                  0.310878
 Thermal correction to Gibbs Free Energy=         0.246155
 Sum of electronic and zero-point Energies=           -919.982042
 Sum of electronic and thermal Energies=              -919.964564
 Sum of electronic and thermal Enthalpies=            -919.963620
 Sum of electronic and thermal Free Energies=         -920.028342

                     E (Thermal)             CV                S
                      KCal/Mol        Cal/Mol-Kelvin    Cal/Mol-Kelvin
 Total                  194.486             68.503            136.219
 Electronic               0.000              0.000              0.000
 Translational            0.889              2.981             42.702
 Rotational               0.889              2.981             34.065
 Vibrational            192.709             62.541             59.452
 Vibration     1          0.593              1.986              6.553
 Vibration     2          0.594              1.981              5.234
 Vibration     3          0.595              1.979              4.958
 Vibration     4          0.598              1.968              4.112
 Vibration     5          0.602              1.957              3.678
 Vibration     6          0.611              1.925              2.966
 Vibration     7          0.621              1.894              2.575
 Vibration     8          0.628              1.869              2.350
 Vibration     9          0.639              1.837              2.117
 Vibration    10          0.647              1.811              1.961
 Vibration    11          0.664              1.759              1.713
 Vibration    12          0.676              1.722              1.573
 Vibration    13          0.682              1.705              1.516
 Vibration    14          0.691              1.679              1.432
 Vibration    15          0.698              1.657              1.369
 Vibration    16          0.715              1.608              1.241
 Vibration    17          0.724              1.583              1.185
 Vibration    18          0.733              1.558              1.129
 Vibration    19          0.790              1.409              0.864
 Vibration    20          0.791              1.406              0.860
 Vibration    21          0.797              1.391              0.838
 Vibration    22          0.813              1.351              0.782
 Vibration    23          0.834              1.299              0.716
 Vibration    24          0.851              1.259              0.669
 Vibration    25          0.882              1.191              0.595
 Vibration    26          0.909              1.132              0.537
 Vibration    27          0.934              1.080              0.490
 Vibration    28          0.941              1.065              0.477

 Optimization completed.
    -- Stationary point found.
 Normal termination of Gaussian 16 at Sun Dec 13 21:06:02 2020.

 ----------------------------------------------------------------------
 # B3LYP/6-311++G(d,p) empiricaldispersion=gd3bj scf=xqc pop=npa geom=c
 heck
 ----------------------------------------------------------------------

 ---------------------------------------
 CID_15531048_JID_10200_Energie_neutraal
 ---------------------------------------
 Structure from the checkpoint file:  "JID_10200.chk"
 Charge =  0 Multiplicity = 1

 SCF Done:  E(RB3LYP) =  -920.538352434     A.U. after   15 cycles
 Normal termination of Gaussian 16 at Sun Dec 13 21:12:59 2020.

 ----------------------------------------------------------------------
 # B3LYP/6-311++G(d,p) empiricaldispersion=gd3bj scf=xqc pop=npa geom=c
 heck
 ----------------------------------------------------------------------

 -------------------------------------
 CID_15531048_JID_10200_Energie_kation
 -------------------------------------
 Structure from the checkpoint file:  "JID_10200.chk"
 Charge =  1 Multiplicity = 2

 SCF Done:  E(UB3LYP) =  -920.264202379     A.U. after   28 cycles
 Normal termination of Gaussian 16 at Sun Dec 13 21:30:29 2020.
 Gaussian 16:  ES64L-G16RevA.03 25-Dec-2016

 ----------------------------------------------------------------------
 # B3LYP/6-311++G(d,p) empiricaldispersion=gd3bj scf=xqc pop=npa geom=c
 heck
 ----------------------------------------------------------------------

 ------------------------------------
 CID_15531048_JID_10200_Energie_anion
 ------------------------------------
 Structure from the checkpoint file:  "JID_10200.chk"
 Charge = -1 Multiplicity = 2

                         Standard orientation:
 ---------------------------------------------------------------------
 Center     Atomic      Atomic             Coordinates (Angstroms)
 Number     Number       Type             X           Y           Z
 ---------------------------------------------------------------------
      1          6           0        5.905915   -0.851412    0.623259
      2          8           0        4.680250   -1.561410    0.600469
      3          6           0        3.569119   -0.900512    0.158601
      4          6           0        2.381524   -1.643673    0.146365
      5          6           0        1.195737   -1.058726   -0.279235
      6          6           0        1.161962    0.276448   -0.704686
      7          6           0        2.352075    1.004608   -0.692351
      8          6           0        3.551935    0.432948   -0.263841
      9          6           0       -0.124883    0.930101   -1.209903
     10          6           0       -1.373267    0.359385   -0.578685
     11          6           0       -2.203549   -0.555941   -1.225920
     12          6           0       -3.341124   -1.038729   -0.584770
     13          6           0       -3.650280   -0.581349    0.706452
     14          6           0       -2.830511    0.342341    1.346150
     15          6           0       -1.678936    0.810685    0.709875
     16          6           0       -0.716783    1.796251    1.313256
     17          6           0       -0.319116    2.859941    0.274058
     18          8           0       -0.086227    2.353116   -1.044138
     19          8           0       -4.802136   -1.110576    1.249107
     20          8           0       -4.152436   -1.939048   -1.210769
     21          1           0        6.653297   -1.553009    0.997926
     22          1           0        5.856607    0.018109    1.292400
     23          1           0        6.195583   -0.513859   -0.380782
     24          1           0        2.412750   -2.675897    0.480321
     25          1           0        0.281490   -1.644120   -0.273376
     26          1           0        2.335443    2.039255   -1.018926
     27          1           0        4.455374    1.031531   -0.262780
     28          1           0       -0.181558    0.799821   -2.297296
     29          1           0       -1.983365   -0.904671   -2.230598
     30          1           0       -3.086897    0.694070    2.344460
     31          1           0       -1.145610    2.295994    2.189326
     32          1           0        0.185365    1.270584    1.650166
     33          1           0        0.584951    3.383940    0.610694
     34          1           0       -1.125276    3.598492    0.183506
     35          1           0       -4.945647   -0.735689    2.130463
     36          1           0       -4.887021   -2.135405   -0.604607
 ---------------------------------------------------------------------

 SCF Done:  E(UB3LYP) =  -920.532325327     A.U. after   33 cycles
 SCF Done:  E(UB3LYP) =  -920.532325326     a.u. after    1 cycles

 The electronic state is 2-A.
 Alpha  occ. eigenvalues --  -19.07305 -19.06556 -19.06547 -19.03958 -10.15286
 Alpha  occ. eigenvalues --  -10.14871 -10.14609 -10.14479 -10.13979 -10.13601
 Alpha  occ. eigenvalues --  -10.09307 -10.09248 -10.09233 -10.09213 -10.09184
 Alpha  occ. eigenvalues --  -10.09160 -10.08976 -10.08874 -10.08807 -10.08698
 Alpha  occ. eigenvalues --   -0.98897  -0.98861  -0.96057  -0.95226  -0.77967
 Alpha  occ. eigenvalues --   -0.77169  -0.70717  -0.69528  -0.67369  -0.66169
 Alpha  occ. eigenvalues --   -0.65068  -0.61873  -0.58170  -0.55594  -0.54017
 Alpha  occ. eigenvalues --   -0.52976  -0.50724  -0.48754  -0.46114  -0.45665
 Alpha  occ. eigenvalues --   -0.44680  -0.41678  -0.41093  -0.39826  -0.39030
 Alpha  occ. eigenvalues --   -0.38886  -0.37667  -0.36761  -0.35974  -0.34904
 Alpha  occ. eigenvalues --   -0.34499  -0.34114  -0.33623  -0.32905  -0.32061
 Alpha  occ. eigenvalues --   -0.31187  -0.29960  -0.29777  -0.28890  -0.28621
 Alpha  occ. eigenvalues --   -0.28274  -0.27704  -0.25798  -0.24999  -0.23937
 Alpha  occ. eigenvalues --   -0.23473  -0.22329  -0.17642  -0.17627  -0.15663
 Alpha  occ. eigenvalues --   -0.14077  -0.12485   0.03539
 Alpha virt. eigenvalues --    0.04521   0.06128   0.06566   0.07069   0.07282
 Alpha virt. eigenvalues --    0.07581   0.07893   0.08591   0.08763   0.09098
 Alpha virt. eigenvalues --    0.09269   0.09456   0.10144   0.10547   0.11092

  Beta  occ. eigenvalues --  -19.07298 -19.06540 -19.06463 -19.03958 -10.15287
  Beta  occ. eigenvalues --  -10.14871 -10.14606 -10.14472 -10.13934 -10.13597
  Beta  occ. eigenvalues --  -10.09306 -10.09246 -10.09226 -10.09205 -10.09181
  Beta  occ. eigenvalues --  -10.09153 -10.08975 -10.08873 -10.08807 -10.08668
  Beta  occ. eigenvalues --   -0.98880  -0.98783  -0.95942  -0.95225  -0.77956
  Beta  occ. eigenvalues --   -0.77153  -0.70706  -0.69504  -0.67350  -0.66143
  Beta  occ. eigenvalues --   -0.65043  -0.61827  -0.58121  -0.55561  -0.53975
  Beta  occ. eigenvalues --   -0.52958  -0.50697  -0.48726  -0.46030  -0.45622
  Beta  occ. eigenvalues --   -0.44658  -0.41654  -0.41072  -0.39813  -0.38991
  Beta  occ. eigenvalues --   -0.38857  -0.37636  -0.36742  -0.35953  -0.34870
  Beta  occ. eigenvalues --   -0.34472  -0.34095  -0.33587  -0.32878  -0.32045
  Beta  occ. eigenvalues --   -0.31151  -0.29941  -0.29762  -0.28873  -0.28582
  Beta  occ. eigenvalues --   -0.28226  -0.27686  -0.25764  -0.24976  -0.23922
  Beta  occ. eigenvalues --   -0.23456  -0.22317  -0.17638  -0.17622  -0.15642
  Beta  occ. eigenvalues --   -0.14070  -0.12460
  Beta virt. eigenvalues --    0.05552   0.06123   0.06531   0.06920   0.07059
  Beta virt. eigenvalues --    0.07479   0.07838   0.08267   0.08822   0.09043
  Beta virt. eigenvalues --    0.09298   0.09337   0.09772   0.10163   0.10713

 Mulliken charges and spin densities:
               1          2
     1  C    0.694208  -1.026218
     2  O   -0.205974   0.050249
     3  C   -0.606653  -0.052989
     4  C   -0.393719   0.056726
     5  C   -0.587894   0.185232
     6  C    1.215283  -0.187812
     7  C    0.295753  -0.340092
     8  C   -0.111396  -0.036381
     9  C    0.238203  -0.316892
    10  C    0.315112  -0.083183
    11  C   -0.590534   0.502329
    12  C    0.502592  -1.213473
    13  C    1.449924  -1.670562
    14  C   -1.115305   1.371833
    15  C   -0.473676   0.544182
    16  C    0.478810  -0.878124
    17  C   -0.309483  -0.112977
    18  O   -0.126253   0.001792
    19  O   -0.311708   0.016989
    20  O   -0.234597  -0.013150
    21  H   -0.376847   0.552825
    22  H   -0.217511   0.373461
    23  H   -0.189261   0.340460
    24  H    0.143221   0.047247
    25  H    0.151255   0.048892
    26  H    0.089056   0.103899
    27  H   -0.215879   0.416726
    28  H    0.250545   0.000382
    29  H    0.115673   0.036331
    30  H   -0.865725   1.045141
    31  H    0.026175   0.150812
    32  H    0.209985  -0.039147
    33  H    0.092938   0.052262
    34  H    0.105474   0.036393
    35  H   -0.631565   0.944446
    36  H    0.189773   0.092393
 Sum of Mulliken charges =  -1.00000   1.00000

 Dipole moment (field-independent basis, Debye):
    X=              1.9114    Y=              1.2381    Z=             -5.0356  Tot=              5.5267
 Quadrupole moment (field-independent basis, Debye-Ang):
   XX=           -259.6478   YY=           -146.6509   ZZ=           -160.1644
   XY=             -1.2683   XZ=             18.9748   YZ=              3.0803

 Summary of Natural Population Analysis:

                                       Natural Population
                Natural  -----------------------------------------------
    Atom  No    Charge         Core      Valence    Rydberg      Total
 -----------------------------------------------------------------------
      C    1   -0.10127      0.99960     2.09254    0.00913     3.10127
      O    2   -0.27340      0.99986     3.26374    0.00981     4.27340
      C    3    0.15822      0.99938     1.82844    0.01395     2.84178
      C    4   -0.11727      0.99953     2.10860    0.00915     3.11727
      C    5   -0.09430      0.99952     2.08757    0.00721     3.09430
      C    6   -0.04371      0.99948     2.03406    0.01017     3.04371
      C    7   -0.09130      0.99952     2.08206    0.00972     3.09130
      C    8   -0.14237      0.99952     2.13410    0.00874     3.14237
      C    9    0.06069      0.99947     1.92506    0.01479     2.93931
      C   10   -0.03374      0.99946     2.02302    0.01126     3.03374
      C   11   -0.11916      0.99948     2.11172    0.00797     3.11916
      C   12    0.13733      0.99935     1.84839    0.01493     2.86267
      C   13    0.13307      0.99935     1.85457    0.01300     2.86693
      C   14   -0.12207      0.99948     2.11233    0.01026     3.12207
      C   15   -0.01728      0.99946     2.00782    0.01000     3.01728
      C   16   -0.21617      0.99960     2.20833    0.00824     3.21617
      C   17   -0.00340      0.99958     1.99348    0.01034     3.00340
      O   18   -0.30326      0.99989     3.29561    0.00776     4.30326
      O   19   -0.35592      0.99987     3.34793    0.00812     4.35592
      O   20   -0.34196      0.99988     3.33583    0.00626     4.34196
      H   21    0.09482      0.00000     0.40395    0.00123     0.40518
      H   22    0.08590      0.00000     0.41232    0.00178     0.41410
      H   23    0.08514      0.00000     0.41319    0.00167     0.41486
      H   24    0.10626      0.00000     0.39274    0.00100     0.39374
      H   25    0.10781      0.00000     0.39076    0.00143     0.39219
      H   26    0.10729      0.00000     0.39101    0.00170     0.39271
      H   27    0.10706      0.00000     0.39169    0.00125     0.39294
      H   28    0.09987      0.00000     0.39883    0.00130     0.40013
      H   29    0.10431      0.00000     0.39450    0.00119     0.39569
      H   30    0.10747      0.00000     0.39033    0.00220     0.39253
      H   31    0.10821      0.00000     0.39083    0.00096     0.39179
      H   32    0.10896      0.00000     0.38964    0.00140     0.39104
      H   33    0.08328      0.00000     0.41549    0.00123     0.41672
      H   34    0.08428      0.00000     0.41442    0.00130     0.41572
      H   35    0.25183      0.00000     0.20698    0.04119     0.24817
      H   36    0.24483      0.00000     0.25234    0.00283     0.25517
 =======================================================================
   * Total *    0.00002     19.99128    51.74424    0.26446    71.99998

 Normal termination of Gaussian 16 at Sun Dec 13 21:51:39 2020.
