 Gaussian 16, Revision A.03,

 -----------------------------------------------------------
 # opt freq B3LYP/6-31G(d) empiricaldispersion=gd3bj scf=xqc
 -----------------------------------------------------------

 -------------------------------
 CID_149828685_JID_1637_neutraal
 -------------------------------
 Symbolic Z-matrix:
 Charge =  0 Multiplicity = 1

 SCF Done:  E(RB3LYP) =  -513.989207807     A.U. after   17 cycles
 SCF Done:  E(RB3LYP) =  -513.993370258     A.U. after   15 cycles
 SCF Done:  E(RB3LYP) =  -513.994232816     A.U. after   13 cycles
 SCF Done:  E(RB3LYP) =  -513.994884691     A.U. after   12 cycles
 SCF Done:  E(RB3LYP) =  -513.995101195     A.U. after   13 cycles
 SCF Done:  E(RB3LYP) =  -513.995290128     A.U. after   14 cycles
 SCF Done:  E(RB3LYP) =  -513.995510402     A.U. after   14 cycles
 SCF Done:  E(RB3LYP) =  -513.995431950     A.U. after   16 cycles
 SCF Done:  E(RB3LYP) =  -513.996127596     A.U. after   15 cycles
 SCF Done:  E(RB3LYP) =  -513.996317537     A.U. after   13 cycles
 SCF Done:  E(RB3LYP) =  -513.996405692     A.U. after   13 cycles
 SCF Done:  E(RB3LYP) =  -513.996411372     A.U. after   11 cycles
 SCF Done:  E(RB3LYP) =  -513.996413451     A.U. after   12 cycles
 SCF Done:  E(RB3LYP) =  -513.996414813     A.U. after   12 cycles
 SCF Done:  E(RB3LYP) =  -513.996416112     A.U. after   10 cycles
 Optimization completed.
    -- Stationary point found.
 Normal termination of Gaussian 16 at Tue Dec  8 20:38:02 2020.

 --------------------------------------------------------------------
 #N Geom=AllCheck Guess=TCheck SCRF=Check GenChk RB3LYP/6-31G(d) Freq
 --------------------------------------------------------------------

 Structure from the checkpoint file:  "JID_1637.chk"
 -------------------------------
 CID_149828685_JID_1637_neutraal
 -------------------------------
 Charge =  0 Multiplicity = 1

 SCF Done:  E(RB3LYP) =  -513.996416112     A.U. after    1 cycles

  Exact polarizability: 143.898  26.513  93.157  -3.716  -7.690  72.389
 Approx polarizability: 204.896  70.043 163.572 -17.050 -25.578 112.202

                      1                      2                      3
                      A                      A                      A
 Frequencies --     36.8938                52.9807                81.6545
 Red. masses --      4.5314                 5.8932                 4.8673
 Frc consts  --      0.0036                 0.0097                 0.0191
 IR Inten    --      0.1456                 0.9394                 2.5813

                      4                      5                      6
                      A                      A                      A
 Frequencies --     98.4414               143.3820               169.4137
 Red. masses --      3.0132                 2.3684                 2.6716
 Frc consts  --      0.0172                 0.0287                 0.0452
 IR Inten    --      0.7581                10.1941                 6.5384

                      7                      8                      9
                      A                      A                      A
 Frequencies --    213.8128               232.3995               250.4037
 Red. masses --      3.2513                 1.7884                 2.7330
 Frc consts  --      0.0876                 0.0569                 0.1010
 IR Inten    --      3.3887                 2.2779                 1.7978

                     10                     11                     12
                      A                      A                      A
 Frequencies --    281.0480               319.7254               370.2635
 Red. masses --      2.7800                 1.8874                 4.6273
 Frc consts  --      0.1294                 0.1137                 0.3738
 IR Inten    --      0.2010                 0.1471                 0.7833

                     13                     14                     15
                      A                      A                      A
 Frequencies --    421.0615               444.8068               460.8417
 Red. masses --      2.1926                 1.2553                 2.8733
 Frc consts  --      0.2290                 0.1463                 0.3595
 IR Inten    --      4.2442               152.3819                48.6824

                     16                     17                     18
                      A                      A                      A
 Frequencies --    530.3226               534.2683               589.1209
 Red. masses --     10.4548                 4.1596                 2.0714
 Frc consts  --      1.7324                 0.6995                 0.4236
 IR Inten    --     12.3388                 0.6681                 1.8857

                     19                     20                     21
                      A                      A                      A
 Frequencies --    672.2529               740.5767               804.5866
 Red. masses --      6.2167                 2.1966                 1.7603
 Frc consts  --      1.6553                 0.7098                 0.6714
 IR Inten    --     16.7070                 0.0460                 4.8860

                     22                     23                     24
                      A                      A                      A
 Frequencies --    830.8688               879.7687               933.3823
 Red. masses --      1.3679                 1.9253                 2.0738
 Frc consts  --      0.5564                 0.8780                 1.0645
 IR Inten    --      5.4897                 2.7737                13.7097

                     25                     26                     27
                      A                      A                      A
 Frequencies --    955.1720               983.0646               999.8809
 Red. masses --      2.0104                 1.1623                 1.6031
 Frc consts  --      1.0807                 0.6618                 0.9443
 IR Inten    --     14.9493                19.1482                19.9921

                     28                     29                     30
                      A                      A                      A
 Frequencies --   1048.5835              1056.7534              1078.3666
 Red. masses --      3.7466                 2.9308                 2.0156
 Frc consts  --      2.4271                 1.9283                 1.3810
 IR Inten    --     60.8244                 5.4072                14.0247

                     31                     32                     33
                      A                      A                      A
 Frequencies --   1087.5386              1138.8510              1164.0096
 Red. masses --      1.9618                 1.9782                 1.8455
 Frc consts  --      1.3670                 1.5116                 1.4733
 IR Inten    --      0.0636                 5.7777                24.9781

                     34                     35                     36
                      A                      A                      A
 Frequencies --   1235.0078              1256.5250              1288.7052
 Red. masses --      1.2524                 1.2763                 1.3063
 Frc consts  --      1.1255                 1.1873                 1.2782
 IR Inten    --      0.6833                20.5732                 7.8860

                     37                     38                     39
                      A                      A                      A
 Frequencies --   1312.6419              1328.6437              1356.2400
 Red. masses --      1.2980                 1.3468                 1.9462
 Frc consts  --      1.3177                 1.4008                 2.1092
 IR Inten    --      2.8188                 3.5140                82.7171

                     40                     41                     42
                      A                      A                      A
 Frequencies --   1373.7852              1378.9828              1401.9024
 Red. masses --      1.4548                 1.9754                 1.4393
 Frc consts  --      1.6176                 2.2132                 1.6666
 IR Inten    --      5.0307                91.3196                10.4586

                     43                     44                     45
                      A                      A                      A
 Frequencies --   1404.8852              1426.1661              1442.7185
 Red. masses --      1.5249                 1.4761                 1.2465
 Frc consts  --      1.7733                 1.7689                 1.5287
 IR Inten    --      2.8142                 7.1053                 1.3738

                     46                     47                     48
                      A                      A                      A
 Frequencies --   1452.8549              1504.7598              1516.0716
 Red. masses --      1.2174                 1.0825                 1.0822
 Frc consts  --      1.5140                 1.4441                 1.4655
 IR Inten    --     37.7592                 2.7663                10.0128

                     49                     50                     51
                      A                      A                      A
 Frequencies --   1528.9599              1533.6647              1542.1921
 Red. masses --      1.0517                 1.0548                 1.0735
 Frc consts  --      1.4486                 1.4618                 1.5043
 IR Inten    --      3.7026                 5.3045                 5.3100

                     52                     53                     54
                      A                      A                      A
 Frequencies --   1729.9883              2268.0932              3010.4470
 Red. masses --      5.2026                13.7565                 1.0703
 Frc consts  --      9.1739                41.6946                 5.7149
 IR Inten    --     57.5213               851.8314                28.2225

                     55                     56                     57
                      A                      A                      A
 Frequencies --   3027.6635              3043.8832              3048.1239
 Red. masses --      1.0719                 1.0818                 1.0384
 Frc consts  --      5.7892                 5.9054                 5.6843
 IR Inten    --     16.3372                17.2443                15.5233

                     58                     59                     60
                      A                      A                      A
 Frequencies --   3049.8146              3063.1071              3083.9486
 Red. masses --      1.0761                 1.0720                 1.0959
 Frc consts  --      5.8970                 5.9262                 6.1407
 IR Inten    --     15.4648                68.1254                15.2874

                     61                     62                     63
                      A                      A                      A
 Frequencies --   3089.5555              3113.4704              3121.4970
 Red. masses --      1.1021                 1.1017                 1.1017
 Frc consts  --      6.1982                 6.2924                 6.3245
 IR Inten    --     46.7497                45.0201                44.9117

                     64                     65                     66
                      A                      A                      A
 Frequencies --   3168.0183              3205.3224              3720.5186
 Red. masses --      1.0890                 1.0916                 1.0658
 Frc consts  --      6.4395                 6.6079                 8.6919
 IR Inten    --     12.5076                 7.4389                29.7256

 - Thermochemistry -
 -------------------
 Temperature   298.150 Kelvin.  Pressure   1.00000 Atm.
 Atom     1 has atomic number  6 and mass  12.00000

 Molecular mass:   155.10586 amu.
 Principal axes and moments of inertia in atomic units:
                           1         2         3
     Eigenvalues --   735.754823940.724194345.68331
           X            0.99999  -0.00189  -0.00292
           Y            0.00191   0.99997   0.00718
           Z            0.00290  -0.00719   0.99997
 This molecule is an asymmetric top.
 Rotational symmetry number  1.
 Warning -- assumption of classical behavior for rotation
           may cause significant error
 Rotational temperatures (Kelvin)      0.11772     0.02198     0.01993
 Rotational constants (GHZ):           2.45291     0.45797     0.41530
 Zero-point vibrational energy     536122.3 (Joules/Mol)
                                  128.13631 (Kcal/Mol)
 Warning -- explicit consideration of  18 degrees of freedom as
           vibrations may cause significant error
 Vibrational temperatures:     53.08    76.23   117.48   141.64   206.29
          (Kelvin)            243.75   307.63   334.37   360.28   404.37
                              460.01   532.73   605.81   639.98   663.05
                              763.02   768.69   847.61   967.22  1065.52
                             1157.62  1195.43  1265.79  1342.93  1374.28
                             1414.41  1438.61  1508.68  1520.43  1551.53
                             1564.73  1638.55  1674.75  1776.90  1807.86
                             1854.16  1888.60  1911.62  1951.33  1976.57
                             1984.05  2017.02  2021.32  2051.93  2075.75
                             2090.33  2165.01  2181.29  2199.83  2206.60
                             2218.87  2489.07  3263.28  4331.36  4356.13
                             4379.47  4385.57  4388.00  4407.13  4437.11
                             4445.18  4479.59  4491.14  4558.07  4611.74
                             5353.00

 Zero-point correction=                           0.204198 (Hartree/Particle)
 Thermal correction to Energy=                    0.216485
 Thermal correction to Enthalpy=                  0.217429
 Thermal correction to Gibbs Free Energy=         0.164922
 Sum of electronic and zero-point Energies=           -513.792218
 Sum of electronic and thermal Energies=              -513.779931
 Sum of electronic and thermal Enthalpies=            -513.778987
 Sum of electronic and thermal Free Energies=         -513.831494

                     E (Thermal)             CV                S
                      KCal/Mol        Cal/Mol-Kelvin    Cal/Mol-Kelvin
 Total                  135.846             44.205            110.511
 Electronic               0.000              0.000              0.000
 Translational            0.889              2.981             41.026
 Rotational               0.889              2.981             30.911
 Vibrational            134.069             38.243             38.573
 Vibration     1          0.594              1.982              5.419
 Vibration     2          0.596              1.976              4.703
 Vibration     3          0.600              1.962              3.851
 Vibration     4          0.604              1.950              3.485
 Vibration     5          0.616              1.910              2.758
 Vibration     6          0.625              1.880              2.442
 Vibration     7          0.644              1.820              2.011
 Vibration     8          0.653              1.791              1.860
 Vibration     9          0.663              1.762              1.728
 Vibration    10          0.681              1.709              1.527
 Vibration    11          0.706              1.636              1.312
 Vibration    12          0.742              1.533              1.079
 Vibration    13          0.784              1.424              0.888
 Vibration    14          0.804              1.372              0.812
 Vibration    15          0.819              1.337              0.764
 Vibration    16          0.885              1.183              0.586
 Vibration    17          0.889              1.174              0.578
 Vibration    18          0.946              1.055              0.469

                           ! Non-Optimized Parameters !
 Normal termination of Gaussian 16 at Tue Dec  8 20:42:14 2020.

 ----------------------------------------------------------------------
 # B3LYP/6-311++G(d,p) empiricaldispersion=gd3bj scf=xqc pop=npa geom=c
 heck
 ----------------------------------------------------------------------

 ---------------------------------------
 CID_149828685_JID_1637_Energie_neutraal
 ---------------------------------------
 Structure from the checkpoint file:  "JID_1637.chk"
 Charge =  0 Multiplicity = 1

 SCF Done:  E(RB3LYP) =  -514.150610824     A.U. after   15 cycles
 Normal termination of Gaussian 16 at Tue Dec  8 20:44:51 2020.

 ----------------------------------------------------------------------
 # B3LYP/6-311++G(d,p) empiricaldispersion=gd3bj scf=xqc pop=npa geom=c
 heck
 ----------------------------------------------------------------------

 -------------------------------------
 CID_149828685_JID_1637_Energie_kation
 -------------------------------------
 Structure from the checkpoint file:  "JID_1637.chk"
 Charge =  1 Multiplicity = 2

 SCF Done:  E(UB3LYP) =  -513.842975551     A.U. after   22 cycles
 Normal termination of Gaussian 16 at Tue Dec  8 20:49:47 2020.
 Gaussian 16:  ES64L-G16RevA.03 25-Dec-2016

 ----------------------------------------------------------------------
 # B3LYP/6-311++G(d,p) empiricaldispersion=gd3bj scf=xqc pop=npa geom=c
 heck
 ----------------------------------------------------------------------

 ------------------------------------
 CID_149828685_JID_1637_Energie_anion
 ------------------------------------
 Structure from the checkpoint file:  "JID_1637.chk"
 Charge = -1 Multiplicity = 2

                         Standard orientation:
 ---------------------------------------------------------------------
 Center     Atomic      Atomic             Coordinates (Angstroms)
 Number     Number       Type             X           Y           Z
 ---------------------------------------------------------------------
      1          6           0        4.023193   -0.006202   -0.319803
      2          6           0        2.713986   -0.703536   -0.698818
      3          6           0        1.706485   -0.834757    0.451338
      4          6           0        1.300571    0.501848    1.100493
      5          6           0        0.742150    1.585938    0.162806
      6          6           0       -0.658875    1.417859   -0.364660
      7          6           0       -1.571544    0.528605    0.046631
      8          7           0       -2.876909    0.554253   -0.500038
      9          7           0       -3.672197   -0.306961   -0.101468
     10          7           0       -4.504716   -1.036461    0.178630
     11          8           0        0.577944   -1.606332    0.030866
     12          1           0        3.866534    1.047734   -0.064776
     13          1           0        4.738816   -0.041907   -1.147902
     14          1           0        4.491909   -0.490980    0.545265
     15          1           0        2.239288   -0.172482   -1.536592
     16          1           0        2.920208   -1.717585   -1.060054
     17          1           0        2.167268   -1.444755    1.238362
     18          1           0        0.582264    0.289175    1.901223
     19          1           0        2.187996    0.915556    1.594606
     20          1           0        0.775286    2.549628    0.694193
     21          1           0        1.423057    1.722251   -0.688890
     22          1           0       -0.974066    2.140837   -1.115776
     23          1           0       -1.358249   -0.241400    0.782211
     24          1           0        0.157086   -1.119756   -0.696588
 ---------------------------------------------------------------------

 SCF Done:  E(UB3LYP) =  -514.143750644     A.U. after   33 cycles
 SCF Done:  E(UB3LYP) =  -514.143750644     a.u. after    1 cycles

 The electronic state is 2-A.
 Alpha  occ. eigenvalues --  -19.01536 -14.33785 -14.24579 -14.24143 -10.11784
 Alpha  occ. eigenvalues --  -10.09697 -10.07099 -10.06592 -10.06511 -10.06130
 Alpha  occ. eigenvalues --  -10.05971  -1.01156  -0.91917  -0.85914  -0.70901
 Alpha  occ. eigenvalues --   -0.68266  -0.64100  -0.58595  -0.53981  -0.49578
 Alpha  occ. eigenvalues --   -0.46655  -0.43285  -0.39608  -0.38353  -0.38218
 Alpha  occ. eigenvalues --   -0.37324  -0.34464  -0.33498  -0.32635  -0.31300
 Alpha  occ. eigenvalues --   -0.30421  -0.29611  -0.28170  -0.26304  -0.25002
 Alpha  occ. eigenvalues --   -0.24160  -0.23744  -0.21883  -0.20748  -0.19196
 Alpha  occ. eigenvalues --   -0.16868  -0.10491   0.04526
 Alpha virt. eigenvalues --    0.06271   0.07823   0.08025   0.08948   0.09451
 Alpha virt. eigenvalues --    0.10367   0.10939   0.11067   0.11569   0.11970
 Alpha virt. eigenvalues --    0.13088   0.13564   0.14275   0.15284   0.15581

  Beta  occ. eigenvalues --  -19.01532 -14.33458 -14.24194 -14.24188 -10.11779
  Beta  occ. eigenvalues --  -10.09617 -10.07074 -10.06576 -10.06493 -10.06123
  Beta  occ. eigenvalues --  -10.05927  -1.00556  -0.91907  -0.85635  -0.70842
  Beta  occ. eigenvalues --   -0.68195  -0.63991  -0.58492  -0.53882  -0.49454
  Beta  occ. eigenvalues --   -0.46513  -0.43103  -0.39542  -0.38072  -0.37569
  Beta  occ. eigenvalues --   -0.36895  -0.34214  -0.33315  -0.32003  -0.31105
  Beta  occ. eigenvalues --   -0.30265  -0.29504  -0.28120  -0.26216  -0.24963
  Beta  occ. eigenvalues --   -0.24123  -0.23705  -0.21794  -0.20682  -0.18531
  Beta  occ. eigenvalues --   -0.16798  -0.10393
  Beta virt. eigenvalues --    0.06987   0.08296   0.08452   0.09105   0.09596
  Beta virt. eigenvalues --    0.10101   0.10745   0.11319   0.11521   0.11813
  Beta virt. eigenvalues --    0.12325   0.13502   0.13852   0.14366   0.15435

 Mulliken charges and spin densities:
               1          2
     1  C    1.286522  -1.934803
     2  C   -1.117429   0.969281
     3  C    0.402541  -0.615696
     4  C   -0.816248   0.775187
     5  C    1.342304  -1.903699
     6  C   -1.184053   1.554192
     7  C    0.835660  -1.764008
     8  N   -0.424879   0.506494
     9  N    0.454947  -0.134345
    10  N   -0.142165  -0.054767
    11  O   -0.253413   0.006641
    12  H   -0.306191   0.462059
    13  H   -0.395084   0.529630
    14  H   -0.279854   0.416517
    15  H    0.076295   0.061102
    16  H   -0.025210   0.190044
    17  H    0.051884   0.142909
    18  H   -0.001489   0.161094
    19  H   -0.266213   0.434907
    20  H   -0.196429   0.358149
    21  H   -0.014879   0.167501
    22  H   -0.476505   0.688953
    23  H    0.268977  -0.086756
    24  H    0.180909   0.069416
 Sum of Mulliken charges =  -1.00000   1.00000

 Dipole moment (field-independent basis, Debye):
    X=             -0.7952    Y=             -1.4070    Z=              0.4618  Tot=              1.6809
 Quadrupole moment (field-independent basis, Debye-Ang):
   XX=           -154.4241   YY=           -102.0788   ZZ=            -88.6921
   XY=             -7.2677   XZ=             -0.1124   YZ=              1.0325

 Summary of Natural Population Analysis:

                                       Natural Population
                Natural  -----------------------------------------------
    Atom  No    Charge         Core      Valence    Rydberg      Total
 -----------------------------------------------------------------------
      C    1   -0.28809      0.99966     2.28308    0.00534     3.28809
      C    2   -0.20363      0.99962     2.19423    0.00979     3.20363
      C    3    0.06577      0.99955     1.92037    0.01431     2.93423
      C    4   -0.20407      0.99961     2.19496    0.00951     3.20407
      C    5   -0.21042      0.99961     2.20084    0.00997     3.21042
      C    6   -0.11545      0.99953     2.10462    0.01130     3.11545
      C    7   -0.01873      0.99943     2.00674    0.01256     3.01873
      N    8   -0.19912      0.99966     2.68485    0.01461     3.69912
      N    9    0.14336      0.99971     2.34154    0.01539     3.35664
      N   10   -0.00702      0.99982     2.49309    0.01411     3.50702
      O   11   -0.37564      0.99990     3.36920    0.00655     4.37564
      H   12    0.09969      0.00000     0.39865    0.00166     0.40031
      H   13    0.10065      0.00000     0.39813    0.00122     0.39935
      H   14    0.09645      0.00000     0.40216    0.00139     0.40355
      H   15    0.09383      0.00000     0.40492    0.00125     0.40617
      H   16    0.09991      0.00000     0.39896    0.00113     0.40009
      H   17    0.08291      0.00000     0.41532    0.00177     0.41709
      H   18    0.10022      0.00000     0.39861    0.00116     0.39978
      H   19    0.10542      0.00000     0.39331    0.00127     0.39458
      H   20    0.10618      0.00000     0.39210    0.00172     0.39382
      H   21    0.10138      0.00000     0.39684    0.00179     0.39862
      H   22    0.09994      0.00000     0.39814    0.00192     0.40006
      H   23    0.09597      0.00000     0.40238    0.00164     0.40403
      H   24    0.23048      0.00000     0.26643    0.00309     0.26952
 =======================================================================
   * Total *    0.00000     10.99610    30.85946    0.14444    42.00000

 Normal termination of Gaussian 16 at Tue Dec  8 20:55:50 2020.
