 Gaussian 16, Revision A.03,

 ----------------------------------------------------------------------
 # opt=(cartesian,calcfc) freq B3LYP/6-31G(d) empiricaldispersion=gd3bj
  scf=xqc
 ----------------------------------------------------------------------

 ------------------------------
 CID_81180618_JID_3887_neutraal
 ------------------------------
 Symbolic Z-matrix:
 Charge =  0 Multiplicity = 1

 SCF Done:  E(RB3LYP) =  -954.162973135     A.U. after   15 cycles
 SCF Done:  E(RB3LYP) =  -954.163000111     A.U. after   11 cycles
 SCF Done:  E(RB3LYP) =  -954.163008707     A.U. after   10 cycles
 SCF Done:  E(RB3LYP) =  -954.162883067     A.U. after   12 cycles
 SCF Done:  E(RB3LYP) =  -954.162985712     A.U. after   11 cycles
 SCF Done:  E(RB3LYP) =  -954.163009018     A.U. after    7 cycles
 SCF Done:  E(RB3LYP) =  -954.163014684     A.U. after    9 cycles
 SCF Done:  E(RB3LYP) =  -954.163020552     A.U. after   11 cycles
 SCF Done:  E(RB3LYP) =  -954.163020404     A.U. after   10 cycles
 SCF Done:  E(RB3LYP) =  -954.163022048     A.U. after   10 cycles
 SCF Done:  E(RB3LYP) =  -954.163056081     A.U. after    7 cycles
 SCF Done:  E(RB3LYP) =  -954.163056085     A.U. after    6 cycles
 SCF Done:  E(RB3LYP) =  -954.163056021     A.U. after    8 cycles
 SCF Done:  E(RB3LYP) =  -954.163056087     A.U. after    6 cycles
 SCF Done:  E(RB3LYP) =  -954.163056089     A.U. after    6 cycles
 Optimization completed.
    -- Stationary point found.
 Normal termination of Gaussian 16 at Wed Dec 30 15:16:55 2020.

 --------------------------------------------------------------------
 #N Geom=AllCheck Guess=TCheck SCRF=Check GenChk RB3LYP/6-31G(d) Freq
 --------------------------------------------------------------------

 Structure from the checkpoint file:  "JID_3887.chk"
 ------------------------------
 CID_81180618_JID_3887_neutraal
 ------------------------------
 Charge =  0 Multiplicity = 1

 SCF Done:  E(RB3LYP) =  -954.163056089     A.U. after    1 cycles

  Exact polarizability: 169.071  -0.011 123.781 -10.316 -12.933  86.068
 Approx polarizability: 236.238   5.718 209.617 -30.729 -31.244 143.201

                      1                      2                      3
                      A                      A                      A
 Frequencies --     24.0262                41.0879                65.1134
 Red. masses --      1.0453                 4.0257                 2.7908
 Frc consts  --      0.0004                 0.0040                 0.0070
 IR Inten    --      0.2589                 0.3473                 1.0952

                      4                      5                      6
                      A                      A                      A
 Frequencies --     88.9247               104.1056               156.7471
 Red. masses --      3.4088                 1.4024                 3.4081
 Frc consts  --      0.0159                 0.0090                 0.0493
 IR Inten    --      0.4715                 2.0107                12.5774

                      7                      8                      9
                      A                      A                      A
 Frequencies --    162.4564               212.4630               226.3886
 Red. masses --      3.1642                 4.8301                 4.1082
 Frc consts  --      0.0492                 0.1285                 0.1241
 IR Inten    --      1.3132                 4.4167                 1.9571

                     10                     11                     12
                      A                      A                      A
 Frequencies --    242.2715               280.8984               312.0697
 Red. masses --      4.6811                 5.8203                 4.2263
 Frc consts  --      0.1619                 0.2706                 0.2425
 IR Inten    --      1.5531                10.8191                 0.1231

                     13                     14                     15
                      A                      A                      A
 Frequencies --    337.2686               389.2154               405.6119
 Red. masses --      4.3439                 5.0937                 2.4457
 Frc consts  --      0.2911                 0.4546                 0.2371
 IR Inten    --      4.0216                12.0100                 4.8062

                     16                     17                     18
                      A                      A                      A
 Frequencies --    450.3289               460.2153               497.5897
 Red. masses --      2.4904                 1.2757                 3.1826
 Frc consts  --      0.2976                 0.1592                 0.4643
 IR Inten    --     10.6743                80.8230                21.1234

                     19                     20                     21
                      A                      A                      A
 Frequencies --    524.2535               567.8465               596.4183
 Red. masses --      5.4439                 6.1363                 3.8414
 Frc consts  --      0.8815                 1.1658                 0.8051
 IR Inten    --     12.3968                 9.0775                 3.6638

                     22                     23                     24
                      A                      A                      A
 Frequencies --    605.6093               643.8541               711.7071
 Red. masses --      4.7999                 5.7633                 2.1313
 Frc consts  --      1.0372                 1.4076                 0.6360
 IR Inten    --     17.3791                27.2691                68.5419

                     25                     26                     27
                      A                      A                      A
 Frequencies --    737.8595               760.5853               799.2986
 Red. masses --      2.5420                 2.6606                 1.2672
 Frc consts  --      0.8154                 0.9068                 0.4770
 IR Inten    --    100.8545                50.2124                21.4223

                     28                     29                     30
                      A                      A                      A
 Frequencies --    863.0046               930.9814               934.8221
 Red. masses --      1.4564                 2.1136                 1.2811
 Frc consts  --      0.6391                 1.0793                 0.6596
 IR Inten    --     12.7460                28.4948                 0.8535

                     31                     32                     33
                      A                      A                      A
 Frequencies --    971.5903               977.4505              1017.2614
 Red. masses --      3.0886                 2.6749                 7.5018
 Frc consts  --      1.7178                 1.5057                 4.5738
 IR Inten    --     34.9581                 1.2171                73.6651

                     34                     35                     36
                      A                      A                      A
 Frequencies --   1039.1201              1066.6952              1072.7280
 Red. masses --      1.5595                 5.6615                 1.5277
 Frc consts  --      0.9921                 3.7954                 1.0358
 IR Inten    --      6.8304                10.5232                 4.2303

                     37                     38                     39
                      A                      A                      A
 Frequencies --   1150.1010              1162.2573              1187.4167
 Red. masses --      1.7528                 2.4630                 1.2636
 Frc consts  --      1.3660                 1.9603                 1.0497
 IR Inten    --     16.5225               120.0214                 4.4386

                     40                     41                     42
                      A                      A                      A
 Frequencies --   1195.8255              1215.3614              1230.4123
 Red. masses --      1.2512                 1.7980                 1.8180
 Frc consts  --      1.0541                 1.5648                 1.6216
 IR Inten    --      9.7469                 3.0211                86.2389

                     43                     44                     45
                      A                      A                      A
 Frequencies --   1309.0696              1323.0819              1347.6965
 Red. masses --      2.4161                 1.2537                 1.2460
 Frc consts  --      2.4395                 1.2931                 1.3334
 IR Inten    --     12.6708                13.7376                17.4759

                     46                     47                     48
                      A                      A                      A
 Frequencies --   1350.8768              1384.6150              1441.6436
 Red. masses --      1.5587                 4.5889                 1.2519
 Frc consts  --      1.6759                 5.1834                 1.5330
 IR Inten    --     24.7992                 5.7289                 0.1088

                     49                     50                     51
                      A                      A                      A
 Frequencies --   1474.1403              1481.4404              1507.2634
 Red. masses --      1.1099                 2.6204                 1.1505
 Frc consts  --      1.4211                 3.3883                 1.5400
 IR Inten    --      3.2200                35.6020                 3.6553

                     52                     53                     54
                      A                      A                      A
 Frequencies --   1512.5004              1514.1524              1528.4391
 Red. masses --      1.0583                 1.0452                 1.2446
 Frc consts  --      1.4264                 1.4118                 1.7131
 IR Inten    --      2.8114                 5.4313                29.5815

                     55                     56                     57
                      A                      A                      A
 Frequencies --   1537.4538              1545.5848              1620.1086
 Red. masses --      1.1210                 2.1267                 4.6768
 Frc consts  --      1.5613                 2.9933                 7.2325
 IR Inten    --      3.9009                17.3332                14.2499

                     58                     59                     60
                      A                      A                      A
 Frequencies --   1665.5549              1699.1365              3012.5807
 Red. masses --      4.0547                 1.3356                 1.0588
 Frc consts  --      6.6271                 2.2719                 5.6617
 IR Inten    --     62.3216               158.7857                27.9720

                     61                     62                     63
                      A                      A                      A
 Frequencies --   3022.4467              3046.3981              3099.3343
 Red. masses --      1.0516                 1.0374                 1.1006
 Frc consts  --      5.6602                 5.6725                 6.2288
 IR Inten    --    100.9051                29.9392                18.7188

                     64                     65                     66
                      A                      A                      A
 Frequencies --   3110.4364              3129.8152              3132.7125
 Red. masses --      1.1040                 1.1013                 1.0825
 Frc consts  --      6.2929                 6.3559                 6.2593
 IR Inten    --     12.7936                16.0464                18.1839

                     67                     68                     69
                      A                      A                      A
 Frequencies --   3168.0445              3173.2542              3178.2261
 Red. masses --      1.0895                 1.0875                 1.1079
 Frc consts  --      6.4425                 6.4517                 6.5935
 IR Inten    --     23.2958                 3.1120                11.9462

                     70                     71                     72
                      A                      A                      A
 Frequencies --   3198.5133              3439.8612              3630.1523
 Red. masses --      1.0936                 1.0592                 1.0894
 Frc consts  --      6.5920                 7.3840                 8.4587
 IR Inten    --     16.8747               126.7514                29.0669

 - Thermochemistry -
 -------------------
 Temperature   298.150 Kelvin.  Pressure   1.00000 Atm.
 Atom     1 has atomic number  6 and mass  12.00000

 Molecular mass:   199.06670 amu.
 Principal axes and moments of inertia in atomic units:
                           1         2         3
     Eigenvalues --  1417.065053971.970904227.94129
           X            0.99995   0.00872   0.00516
           Y           -0.00821   0.99576  -0.09162
           Z           -0.00594   0.09157   0.99578
 This molecule is an asymmetric top.
 Rotational symmetry number  1.
 Warning -- assumption of classical behavior for rotation
           may cause significant error
 Rotational temperatures (Kelvin)      0.06112     0.02181     0.02049
 Rotational constants (GHZ):           1.27358     0.45437     0.42686
 Zero-point vibrational energy     556286.1 (Joules/Mol)
                                  132.95557 (Kcal/Mol)
 Warning -- explicit consideration of  22 degrees of freedom as
           vibrations may cause significant error
 Vibrational temperatures:     34.57    59.12    93.68   127.94   149.78
          (Kelvin)            225.52   233.74   305.69   325.72   348.57
                              404.15   449.00   485.25   559.99   583.59
                              647.92   662.15   715.92   754.28   817.00
                              858.11   871.34   926.36  1023.99  1061.62
                             1094.31  1150.01  1241.67  1339.47  1345.00
                             1397.90  1406.33  1463.61  1495.06  1534.74
                             1543.42  1654.74  1672.23  1708.43  1720.53
                             1748.63  1770.29  1883.46  1903.62  1939.03
                             1943.61  1992.15  2074.20  2120.96  2131.46
                             2168.62  2176.15  2178.53  2199.08  2212.05
                             2223.75  2330.97  2396.36  2444.68  4334.43
                             4348.63  4383.09  4459.25  4475.22  4503.11
                             4507.27  4558.11  4565.61  4572.76  4601.95
                             4949.19  5222.98

 Zero-point correction=                           0.211878 (Hartree/Particle)
 Thermal correction to Energy=                    0.225930
 Thermal correction to Enthalpy=                  0.226874
 Thermal correction to Gibbs Free Energy=         0.169832
 Sum of electronic and zero-point Energies=           -953.951178
 Sum of electronic and thermal Energies=              -953.937126
 Sum of electronic and thermal Enthalpies=            -953.936182
 Sum of electronic and thermal Free Energies=         -953.993224

                     E (Thermal)             CV                S
                      KCal/Mol        Cal/Mol-Kelvin    Cal/Mol-Kelvin
 Total                  141.773             51.379            120.055
 Electronic               0.000              0.000              0.000
 Translational            0.889              2.981             41.770
 Rotational               0.889              2.981             31.543
 Vibrational            139.996             45.417             46.742
 Vibration     1          0.593              1.985              6.270
 Vibration     2          0.594              1.981              5.206
 Vibration     3          0.597              1.971              4.296
 Vibration     4          0.602              1.957              3.684
 Vibration     5          0.605              1.946              3.376
 Vibration     6          0.620              1.895              2.589
 Vibration     7          0.623              1.888              2.521
 Vibration     8          0.643              1.822              2.022
 Vibration     9          0.650              1.801              1.907
 Vibration    10          0.658              1.776              1.786
 Vibration    11          0.681              1.709              1.528
 Vibration    12          0.700              1.651              1.351
 Vibration    13          0.718              1.601              1.225
 Vibration    14          0.757              1.493              1.003
 Vibration    15          0.771              1.458              0.942
 Vibration    16          0.809              1.360              0.795
 Vibration    17          0.818              1.338              0.765
 Vibration    18          0.853              1.255              0.664
 Vibration    19          0.879              1.196              0.600
 Vibration    20          0.924              1.101              0.508
 Vibration    21          0.954              1.039              0.456
 Vibration    22          0.964              1.020              0.440

 Normal termination of Gaussian 16 at Wed Dec 30 15:23:38 2020.

 ----------------------------------------------------------------------
 # B3LYP/6-311++G(d,p) empiricaldispersion=gd3bj scf=xqc pop=npa geom=c
 heck
 ----------------------------------------------------------------------

 --------------------------------------
 CID_81180618_JID_3887_Energie_neutraal
 --------------------------------------
 Structure from the checkpoint file:  "JID_3887.chk"
 Charge =  0 Multiplicity = 1

 SCF Done:  E(RB3LYP) =  -954.354773588     A.U. after   16 cycles
 Normal termination of Gaussian 16 at Wed Dec 30 15:26:27 2020.

 ----------------------------------------------------------------------
 # B3LYP/6-311++G(d,p) empiricaldispersion=gd3bj scf=xqc pop=npa geom=c
 heck
 ----------------------------------------------------------------------

 ------------------------------------
 CID_81180618_JID_3887_Energie_kation
 ------------------------------------
 Structure from the checkpoint file:  "JID_3887.chk"
 Charge =  1 Multiplicity = 2

 SCF Done:  E(UB3LYP) =  -954.077555602     A.U. after   24 cycles
 Normal termination of Gaussian 16 at Wed Dec 30 15:32:11 2020.
 Gaussian 16:  ES64L-G16RevA.03 25-Dec-2016

 ----------------------------------------------------------------------
 # B3LYP/6-311++G(d,p) empiricaldispersion=gd3bj scf=xqc pop=npa geom=c
 heck
 ----------------------------------------------------------------------

 -----------------------------------
 CID_81180618_JID_3887_Energie_anion
 -----------------------------------
 Structure from the checkpoint file:  "JID_3887.chk"
 Charge = -1 Multiplicity = 2

                         Standard orientation:
 ---------------------------------------------------------------------
 Center     Atomic      Atomic             Coordinates (Angstroms)
 Number     Number       Type             X           Y           Z
 ---------------------------------------------------------------------
      1          6           0       -4.325284    0.508911    0.469772
      2          6           0       -2.893958    0.119473    0.192738
      3          6           0       -1.994277    1.046569   -0.322271
      4          6           0       -0.645850    0.726851   -0.580842
      5          6           0       -0.231796   -0.594432   -0.303881
      6          6           0       -1.140056   -1.538998    0.182644
      7          6           0       -2.457149   -1.191720    0.447513
      8         16           0        1.443504   -1.175241   -0.603514
      9          8           0        2.118718   -0.275581   -1.645245
     10          6           0        2.150823   -0.748232    1.084967
     11          8           0        1.938205    0.546395    1.518869
     12          6           0        2.894481    1.491977    1.037598
     13          7           0        0.229060    1.682479   -1.056804
     14          1           0       -4.532305    1.535255    0.152628
     15          1           0       -5.024527   -0.154672   -0.052713
     16          1           0       -4.552237    0.436084    1.540576
     17          1           0       -2.330173    2.060760   -0.529424
     18          1           0       -0.801804   -2.559056    0.351497
     19          1           0       -3.151182   -1.932065    0.834681
     20          1           0        1.638151   -1.434656    1.767539
     21          1           0        3.217427   -1.011462    1.014403
     22          1           0        3.893966    1.261636    1.435684
     23          1           0        2.929883    1.504012   -0.053181
     24          1           0        2.570621    2.466078    1.407224
     25          1           0       -0.204817    2.465439   -1.527568
     26          1           0        1.050534    1.300254   -1.525919
 ---------------------------------------------------------------------

 SCF Done:  E(UB3LYP) =  -954.339731620     A.U. after   33 cycles
 SCF Done:  E(UB3LYP) =  -954.339731620     a.u. after    1 cycles

 The electronic state is 2-A.
 Alpha  occ. eigenvalues --  -88.84674 -19.04673 -18.98784 -14.20945 -10.14969
 Alpha  occ. eigenvalues --  -10.12142 -10.11531 -10.09009 -10.08068 -10.08036
 Alpha  occ. eigenvalues --  -10.06617 -10.06397 -10.06292  -7.92421  -5.88710
 Alpha  occ. eigenvalues --   -5.88529  -5.88019  -0.96236  -0.91080  -0.82013
 Alpha  occ. eigenvalues --   -0.74831  -0.69372  -0.65524  -0.63064  -0.60991
 Alpha  occ. eigenvalues --   -0.57326  -0.52322  -0.51411  -0.48144  -0.42196
 Alpha  occ. eigenvalues --   -0.41097  -0.39966  -0.39599  -0.38144  -0.37028
 Alpha  occ. eigenvalues --   -0.34645  -0.33416  -0.32290  -0.31937  -0.31686
 Alpha  occ. eigenvalues --   -0.29986  -0.29073  -0.28021  -0.27351  -0.26090
 Alpha  occ. eigenvalues --   -0.25029  -0.24336  -0.21272  -0.21111  -0.16682
 Alpha  occ. eigenvalues --   -0.15654  -0.12943  -0.10725   0.04564
 Alpha virt. eigenvalues --    0.06237   0.06921   0.07247   0.08001   0.08554
 Alpha virt. eigenvalues --    0.09079   0.09749   0.10158   0.10499   0.10968
 Alpha virt. eigenvalues --    0.11494   0.11915   0.12296   0.13247   0.13635

  Beta  occ. eigenvalues --  -88.84668 -19.04668 -18.98769 -14.20928 -10.14910
  Beta  occ. eigenvalues --  -10.12124 -10.11506 -10.08979 -10.08020 -10.07946
  Beta  occ. eigenvalues --  -10.06591 -10.06381 -10.06300  -7.92414  -5.88702
  Beta  occ. eigenvalues --   -5.88518  -5.88010  -0.96222  -0.91047  -0.81965
  Beta  occ. eigenvalues --   -0.74745  -0.69259  -0.65436  -0.62997  -0.60924
  Beta  occ. eigenvalues --   -0.57249  -0.52216  -0.51347  -0.48072  -0.42144
  Beta  occ. eigenvalues --   -0.41039  -0.39912  -0.39544  -0.38077  -0.36971
  Beta  occ. eigenvalues --   -0.34595  -0.33357  -0.32166  -0.31886  -0.31606
  Beta  occ. eigenvalues --   -0.29946  -0.29029  -0.27919  -0.27307  -0.26017
  Beta  occ. eigenvalues --   -0.24975  -0.24288  -0.21220  -0.20981  -0.16637
  Beta  occ. eigenvalues --   -0.15400  -0.12837  -0.10622
  Beta virt. eigenvalues --    0.06834   0.07332   0.07553   0.07805   0.08543
  Beta virt. eigenvalues --    0.09149   0.09298   0.10094   0.10521   0.10958
  Beta virt. eigenvalues --    0.11156   0.11652   0.12205   0.12610   0.13540

 Mulliken charges and spin densities:
               1          2
     1  C    2.529928  -3.037568
     2  C   -0.576344   1.168930
     3  C   -1.304670   0.442176
     4  C    0.679207  -0.923455
     5  C    1.855285  -0.911663
     6  C   -1.393382   0.894928
     7  C   -0.743234   0.271879
     8  S    0.507387  -0.002551
     9  O   -0.472874   0.008638
    10  C    0.205406  -0.930195
    11  O   -0.121177   0.072114
    12  C    0.128714  -0.406090
    13  N   -0.358443   0.100768
    14  H   -0.519385   0.669945
    15  H   -0.250621   0.406281
    16  H    0.088189   0.063598
    17  H   -0.409289   0.530623
    18  H   -0.284087   0.451898
    19  H   -0.288976   0.445051
    20  H   -0.145694   0.344394
    21  H   -0.254266   0.486107
    22  H   -0.295044   0.432077
    23  H    0.138809  -0.005418
    24  H   -0.013248   0.170292
    25  H    0.013477   0.243896
    26  H    0.284332   0.013345
 Sum of Mulliken charges =  -1.00000   1.00000

 Dipole moment (field-independent basis, Debye):
    X=              1.8960    Y=             -0.3711    Z=             -0.3576  Tot=              1.9648
 Quadrupole moment (field-independent basis, Debye-Ang):
   XX=           -167.3486   YY=           -119.0883   ZZ=           -118.0141
   XY=              6.7980   XZ=             -6.8670   YZ=              0.7137

 Summary of Natural Population Analysis:

                                       Natural Population
                Natural  -----------------------------------------------
    Atom  No    Charge         Core      Valence    Rydberg      Total
 -----------------------------------------------------------------------
      C    1   -0.29361      0.99964     2.28825    0.00572     3.29361
      C    2    0.01505      0.99953     1.97621    0.00922     2.98495
      C    3   -0.12317      0.99948     2.11448    0.00921     3.12317
      C    4    0.09938      0.99945     1.88847    0.01271     2.90062
      C    5   -0.14815      0.99935     2.13494    0.01386     3.14815
      C    6   -0.08347      0.99951     2.07215    0.01180     3.08347
      C    7   -0.12755      0.99951     2.11830    0.00974     3.12755
      S    8    0.57192      4.99938     2.37538    0.05332     7.42808
      O    9   -0.49623      0.99993     3.49046    0.00584     4.49623
      C   10   -0.08395      0.99959     2.06556    0.01880     3.08395
      O   11   -0.28591      0.99988     3.27411    0.01192     4.28591
      C   12   -0.10142      0.99960     2.09249    0.00934     3.10142
      N   13   -0.39730      0.99970     2.88860    0.00900     3.89730
      H   14    0.10300      0.00000     0.39563    0.00137     0.39700
      H   15    0.10664      0.00000     0.39138    0.00198     0.39336
      H   16    0.10283      0.00000     0.39629    0.00088     0.39717
      H   17    0.09842      0.00000     0.39974    0.00184     0.40158
      H   18    0.10060      0.00000     0.39765    0.00175     0.39940
      H   19    0.09972      0.00000     0.39895    0.00133     0.40028
      H   20    0.09826      0.00000     0.39974    0.00201     0.40174
      H   21    0.08944      0.00000     0.40708    0.00348     0.41056
      H   22    0.07982      0.00000     0.41864    0.00154     0.42018
      H   23    0.09412      0.00000     0.40460    0.00129     0.40588
      H   24    0.09157      0.00000     0.40741    0.00102     0.40843
      H   25    0.18376      0.00000     0.31472    0.00152     0.31624
      H   26    0.20624      0.00000     0.29145    0.00230     0.29376
 =======================================================================
   * Total *   -0.00000     16.99454    35.80266    0.20280    53.00000

 Normal termination of Gaussian 16 at Wed Dec 30 15:40:14 2020.
