 Gaussian 16, Revision A.03,

 -----------------------------------------------------------
 # opt freq B3LYP/6-31G(d) empiricaldispersion=gd3bj scf=xqc
 -----------------------------------------------------------

 ------------------------------
 CID_65191344_JID_3138_neutraal
 ------------------------------
 Symbolic Z-matrix:
 Charge =  0 Multiplicity = 1

 SCF Done:  E(RB3LYP) =  -579.109170639     A.U. after   14 cycles
 SCF Done:  E(RB3LYP) =  -579.111994034     A.U. after   12 cycles
 SCF Done:  E(RB3LYP) =  -579.112216262     A.U. after   12 cycles
 SCF Done:  E(RB3LYP) =  -579.112874466     A.U. after   12 cycles
 SCF Done:  E(RB3LYP) =  -579.113368841     A.U. after   12 cycles
 SCF Done:  E(RB3LYP) =  -579.113449518     A.U. after   11 cycles
 SCF Done:  E(RB3LYP) =  -579.113748796     A.U. after   10 cycles
 SCF Done:  E(RB3LYP) =  -579.113789064     A.U. after   10 cycles
 SCF Done:  E(RB3LYP) =  -579.113806143     A.U. after    9 cycles
 SCF Done:  E(RB3LYP) =  -579.113809525     A.U. after    9 cycles
 SCF Done:  E(RB3LYP) =  -579.113814080     A.U. after    8 cycles
 SCF Done:  E(RB3LYP) =  -579.113814827     A.U. after    7 cycles
 SCF Done:  E(RB3LYP) =  -579.113815786     A.U. after    8 cycles
 SCF Done:  E(RB3LYP) =  -579.113816370     A.U. after    8 cycles
 SCF Done:  E(RB3LYP) =  -579.113816721     A.U. after    7 cycles
 Optimization completed.
    -- Stationary point found.
 Normal termination of Gaussian 16 at Wed Dec  9 22:31:58 2020.

 --------------------------------------------------------------------
 #N Geom=AllCheck Guess=TCheck SCRF=Check GenChk RB3LYP/6-31G(d) Freq
 --------------------------------------------------------------------

 Structure from the checkpoint file:  "JID_3138.chk"
 ------------------------------
 CID_65191344_JID_3138_neutraal
 ------------------------------
 Charge =  0 Multiplicity = 1

 SCF Done:  E(RB3LYP) =  -579.113816721     A.U. after    1 cycles

  Exact polarizability: 142.367  -1.416 115.230  -1.250   1.861 106.922
 Approx polarizability: 179.841  -6.029 159.908  -5.197  10.812 164.465

                      1                      2                      3
                      A                      A                      A
 Frequencies --     47.1835                55.6683                72.2176
 Red. masses --      3.9207                 3.8038                 2.6598
 Frc consts  --      0.0051                 0.0069                 0.0082
 IR Inten    --      0.6407                 0.6488                 0.6483

                      4                      5                      6
                      A                      A                      A
 Frequencies --     90.2356               118.1286               140.3275
 Red. masses --      3.2787                 3.0721                 3.5569
 Frc consts  --      0.0157                 0.0253                 0.0413
 IR Inten    --      0.5635                 2.2835                 0.6298

                      7                      8                      9
                      A                      A                      A
 Frequencies --    188.6685               217.0889               222.4480
 Red. masses --      1.1491                 1.3752                 1.7663
 Frc consts  --      0.0241                 0.0382                 0.0515
 IR Inten    --      0.1600                 2.0051                 1.4085

                     10                     11                     12
                      A                      A                      A
 Frequencies --    237.5810               245.8776               253.4698
 Red. masses --      1.4653                 1.7075                 1.2326
 Frc consts  --      0.0487                 0.0608                 0.0467
 IR Inten    --      0.8210                 1.4374                15.8478

                     13                     14                     15
                      A                      A                      A
 Frequencies --    265.6472               271.5506               290.0986
 Red. masses --      1.4082                 1.3383                 1.2421
 Frc consts  --      0.0586                 0.0581                 0.0616
 IR Inten    --     15.5542                 1.7834                 0.0874

                     16                     17                     18
                      A                      A                      A
 Frequencies --    293.1495               361.4907               366.0750
 Red. masses --      2.2522                 2.6619                 3.0580
 Frc consts  --      0.1140                 0.2049                 0.2415
 IR Inten    --      4.8711                 0.4284                 6.4408

                     19                     20                     21
                      A                      A                      A
 Frequencies --    378.8260               391.8247               397.0814
 Red. masses --      2.4145                 2.4215                 2.4517
 Frc consts  --      0.2042                 0.2190                 0.2278
 IR Inten    --      2.2728                 0.9895                 1.4145

                     22                     23                     24
                      A                      A                      A
 Frequencies --    423.0887               437.9573               562.6432
 Red. masses --      2.4542                 2.3701                 4.1946
 Frc consts  --      0.2588                 0.2678                 0.7824
 IR Inten    --      0.8410                 0.5865                15.4680

                     25                     26                     27
                      A                      A                      A
 Frequencies --    573.6536               624.2830               695.4461
 Red. masses --      3.2109                 2.9934                 2.1094
 Frc consts  --      0.6226                 0.6873                 0.6011
 IR Inten    --     20.9769                 8.7850                31.0095

                     28                     29                     30
                      A                      A                      A
 Frequencies --    724.5932               790.0209               827.9490
 Red. masses --      3.2447                 2.5011                 1.9606
 Frc consts  --      1.0037                 0.9197                 0.7919
 IR Inten    --     13.3311                59.7491                28.3218

                     31                     32                     33
                      A                      A                      A
 Frequencies --    861.3382               881.1926               914.5422
 Red. masses --      2.0376                 1.5193                 2.4695
 Frc consts  --      0.8907                 0.6951                 1.2169
 IR Inten    --     18.6771                61.5673                 5.0019

                     34                     35                     36
                      A                      A                      A
 Frequencies --    942.9904               951.5250               954.6677
 Red. masses --      1.3105                 1.6964                 1.6574
 Frc consts  --      0.6866                 0.9049                 0.8900
 IR Inten    --      9.3321                 0.9653                 2.5917

                     37                     38                     39
                      A                      A                      A
 Frequencies --    960.9450               977.4403               978.3189
 Red. masses --      1.6892                 1.3242                 1.3373
 Frc consts  --      0.9190                 0.7454                 0.7541
 IR Inten    --     17.2471                12.5513                 5.0922

                     40                     41                     42
                      A                      A                      A
 Frequencies --    997.4593              1059.0799              1063.2431
 Red. masses --      1.5748                 1.4285                 1.3941
 Frc consts  --      0.9231                 0.9440                 0.9285
 IR Inten    --     23.8602                 0.8233                 3.0545

                     43                     44                     45
                      A                      A                      A
 Frequencies --   1083.4765              1109.6846              1137.3691
 Red. masses --      1.8973                 1.9056                 2.2532
 Frc consts  --      1.3123                 1.3826                 1.7174
 IR Inten    --      0.1773                11.5059                 3.6501

                     46                     47                     48
                      A                      A                      A
 Frequencies --   1192.9481              1209.5942              1238.9995
 Red. masses --      2.4635                 1.9384                 1.5749
 Frc consts  --      2.0656                 1.6710                 1.4245
 IR Inten    --      1.8914                 7.4540                 2.0102

                     49                     50                     51
                      A                      A                      A
 Frequencies --   1245.3437              1247.9493              1257.4243
 Red. masses --      2.6001                 2.5214                 2.5999
 Frc consts  --      2.3758                 2.3136                 2.4220
 IR Inten    --     48.1892                46.5337                 3.1890

                     52                     53                     54
                      A                      A                      A
 Frequencies --   1310.6217              1316.3785              1364.1119
 Red. masses --      1.3897                 1.3238                 1.2600
 Frc consts  --      1.4065                 1.3516                 1.3814
 IR Inten    --      9.2621                14.0965                 4.7822

                     55                     56                     57
                      A                      A                      A
 Frequencies --   1377.3814              1382.5351              1401.8892
 Red. masses --      1.8323                 2.0115                 1.4503
 Frc consts  --      2.0481                 2.2653                 1.6793
 IR Inten    --     71.8136               101.2339                 1.3423

                     58                     59                     60
                      A                      A                      A
 Frequencies --   1428.9673              1429.0937              1431.6865
 Red. masses --      1.2599                 1.2268                 1.2376
 Frc consts  --      1.5158                 1.4762                 1.4946
 IR Inten    --      3.2484                 4.1867                 2.4170

                     61                     62                     63
                      A                      A                      A
 Frequencies --   1434.1434              1449.7669              1462.9159
 Red. masses --      1.3624                 1.2289                 1.2353
 Frc consts  --      1.6510                 1.5218                 1.5576
 IR Inten    --      3.5358                 9.6559                20.3899

                     64                     65                     66
                      A                      A                      A
 Frequencies --   1506.1841              1509.0692              1511.6197
 Red. masses --      1.2785                 1.1458                 1.0971
 Frc consts  --      1.7088                 1.5373                 1.4770
 IR Inten    --     27.2456                17.2269                18.8648

                     67                     68                     69
                      A                      A                      A
 Frequencies --   1515.7461              1519.6123              1522.5597
 Red. masses --      1.0465                 1.0670                 1.0526
 Frc consts  --      1.4165                 1.4517                 1.4376
 IR Inten    --      0.5835                 1.6494                 0.6657

                     70                     71                     72
                      A                      A                      A
 Frequencies --   1530.9816              1533.5247              1537.2991
 Red. masses --      1.0601                 1.0549                 1.0544
 Frc consts  --      1.4640                 1.4616                 1.4682
 IR Inten    --      5.0831                 9.6950                 2.4923

                     73                     74                     75
                      A                      A                      A
 Frequencies --   1538.5411              1545.2244              1551.0786
 Red. masses --      1.0592                 1.0581                 1.0649
 Frc consts  --      1.4772                 1.4885                 1.5094
 IR Inten    --      7.0327                27.0813                 8.2246

                     76                     77                     78
                      A                      A                      A
 Frequencies --   1699.1934              1754.1177              2999.5010
 Red. masses --      1.0888                 7.7512                 1.0714
 Frc consts  --      1.8523                14.0520                 5.6794
 IR Inten    --     33.2778               343.3282                59.8906

                     79                     80                     81
                      A                      A                      A
 Frequencies --   3027.1472              3041.7954              3048.2533
 Red. masses --      1.0826                 1.0377                 1.0393
 Frc consts  --      5.8452                 5.6572                 5.6898
 IR Inten    --      9.5720                28.8028                23.5912

                     82                     83                     84
                      A                      A                      A
 Frequencies --   3051.7203              3054.0986              3062.0836
 Red. masses --      1.0374                 1.0401                 1.0401
 Frc consts  --      5.6923                 5.7162                 5.7457
 IR Inten    --     23.1863                18.4933                35.3505

                     85                     86                     87
                      A                      A                      A
 Frequencies --   3100.6427              3103.5559              3109.3687
 Red. masses --      1.0919                 1.1003                 1.0997
 Frc consts  --      6.1848                 6.2441                 6.2643
 IR Inten    --     31.0326                 6.5161                66.3917

                     88                     89                     90
                      A                      A                      A
 Frequencies --   3113.4328              3115.6597              3116.7022
 Red. masses --      1.1019                 1.1008                 1.1018
 Frc consts  --      6.2929                 6.2959                 6.3059
 IR Inten    --     20.7842                20.4746                40.5654

                     91                     92                     93
                      A                      A                      A
 Frequencies --   3131.1427              3131.8707              3142.8996
 Red. masses --      1.0942                 1.0977                 1.0936
 Frc consts  --      6.3203                 6.3435                 6.3648
 IR Inten    --     38.1176                47.8772                 7.8002

                     94                     95                     96
                      A                      A                      A
 Frequencies --   3144.4112              3154.7097              3160.2911
 Red. masses --      1.0996                 1.1020                 1.0917
 Frc consts  --      6.4055                 6.4615                 6.4242
 IR Inten    --     17.7616                20.2854                41.0258

                     97                     98                     99
                      A                      A                      A
 Frequencies --   3490.0706              3537.2436              3574.8907
 Red. masses --      1.0502                 1.0737                 1.0929
 Frc consts  --      7.5369                 7.9149                 8.2290
 IR Inten    --      0.3611                31.4385                 0.2889

 - Thermochemistry -
 -------------------
 Temperature   298.150 Kelvin.  Pressure   1.00000 Atm.
 Atom     1 has atomic number  6 and mass  12.00000

 Molecular mass:   186.17321 amu.
 Principal axes and moments of inertia in atomic units:
                           1         2         3
     Eigenvalues --  1607.151213603.383214092.09540
           X            0.99992   0.00538   0.01112
           Y           -0.00485   0.99888  -0.04716
           Z           -0.01136   0.04710   0.99883
 This molecule is an asymmetric top.
 Rotational symmetry number  1.
 Warning -- assumption of classical behavior for rotation
           may cause significant error
 Rotational temperatures (Kelvin)      0.05389     0.02404     0.02117
 Rotational constants (GHZ):           1.12294     0.50085     0.44103
 Zero-point vibrational energy     842204.2 (Joules/Mol)
                                  201.29162 (Kcal/Mol)
 Warning -- explicit consideration of  25 degrees of freedom as
           vibrations may cause significant error
 Vibrational temperatures:     67.89    80.09   103.90   129.83   169.96
          (Kelvin)            201.90   271.45   312.34   320.05   341.83
                              353.76   364.69   382.21   390.70   417.39
                              421.78   520.10   526.70   545.05   563.75
                              571.31   608.73   630.12   809.52   825.36
                              898.20  1000.59  1042.53  1136.66  1191.23
                             1239.27  1267.84  1315.82  1356.75  1369.03
                             1373.55  1382.59  1406.32  1407.58  1435.12
                             1523.78  1529.77  1558.88  1596.59  1636.42
                             1716.39  1740.34  1782.64  1791.77  1795.52
                             1809.15  1885.69  1893.98  1962.65  1981.74
                             1989.16  2017.01  2055.97  2056.15  2059.88
                             2063.41  2085.89  2104.81  2167.06  2171.21
                             2174.88  2180.82  2186.38  2190.62  2202.74
                             2206.40  2211.83  2213.62  2223.23  2231.66
                             2444.76  2523.78  4315.61  4355.39  4376.47
                             4385.76  4390.74  4394.17  4405.66  4461.13
                             4465.32  4473.69  4479.54  4482.74  4484.24
                             4505.02  4506.06  4521.93  4524.11  4538.92
                             4546.95  5021.43  5089.30  5143.47

 Zero-point correction=                           0.320779 (Hartree/Particle)
 Thermal correction to Energy=                    0.337000
 Thermal correction to Enthalpy=                  0.337945
 Thermal correction to Gibbs Free Energy=         0.278379
 Sum of electronic and zero-point Energies=           -578.793038
 Sum of electronic and thermal Energies=              -578.776816
 Sum of electronic and thermal Enthalpies=            -578.775872
 Sum of electronic and thermal Free Energies=         -578.835437

                     E (Thermal)             CV                S
                      KCal/Mol        Cal/Mol-Kelvin    Cal/Mol-Kelvin
 Total                  211.471             60.979            125.365
 Electronic               0.000              0.000              0.000
 Translational            0.889              2.981             41.571
 Rotational               0.889              2.981             31.539
 Vibrational            209.693             55.018             52.256
 Vibration     1          0.595              1.979              4.932
 Vibration     2          0.596              1.975              4.605
 Vibration     3          0.598              1.967              4.092
 Vibration     4          0.602              1.956              3.655
 Vibration     5          0.608              1.934              3.131
 Vibration     6          0.615              1.913              2.799
 Vibration     7          0.633              1.855              2.241
 Vibration     8          0.646              1.815              1.983
 Vibration     9          0.648              1.807              1.939
 Vibration    10          0.656              1.783              1.821
 Vibration    11          0.660              1.770              1.760
 Vibration    12          0.665              1.757              1.706
 Vibration    13          0.671              1.736              1.624
 Vibration    14          0.675              1.726              1.586
 Vibration    15          0.686              1.692              1.473
 Vibration    16          0.688              1.687              1.456
 Vibration    17          0.736              1.552              1.116
 Vibration    18          0.739              1.542              1.096
 Vibration    19          0.749              1.515              1.044
 Vibration    20          0.759              1.488              0.993
 Vibration    21          0.764              1.476              0.973
 Vibration    22          0.785              1.420              0.882
 Vibration    23          0.798              1.387              0.833
 Vibration    24          0.918              1.112              0.519
 Vibration    25          0.930              1.088              0.497

 Optimization completed.
    -- Stationary point found.
 Normal termination of Gaussian 16 at Wed Dec  9 22:42:15 2020.

 ----------------------------------------------------------------------
 # B3LYP/6-311++G(d,p) empiricaldispersion=gd3bj scf=xqc pop=npa geom=c
 heck
 ----------------------------------------------------------------------

 --------------------------------------
 CID_65191344_JID_3138_Energie_neutraal
 --------------------------------------
 Structure from the checkpoint file:  "JID_3138.chk"
 Charge =  0 Multiplicity = 1

 SCF Done:  E(RB3LYP) =  -579.291960949     A.U. after   14 cycles
 Normal termination of Gaussian 16 at Wed Dec  9 22:47:28 2020.

 ----------------------------------------------------------------------
 # B3LYP/6-311++G(d,p) empiricaldispersion=gd3bj scf=xqc pop=npa geom=c
 heck
 ----------------------------------------------------------------------

 ------------------------------------
 CID_65191344_JID_3138_Energie_kation
 ------------------------------------
 Structure from the checkpoint file:  "JID_3138.chk"
 Charge =  1 Multiplicity = 2

 SCF Done:  E(UB3LYP) =  -578.982072220     A.U. after   24 cycles
 Normal termination of Gaussian 16 at Wed Dec  9 23:01:58 2020.
 Gaussian 16:  ES64L-G16RevA.03 25-Dec-2016

 ----------------------------------------------------------------------
 # B3LYP/6-311++G(d,p) empiricaldispersion=gd3bj scf=xqc pop=npa geom=c
 heck
 ----------------------------------------------------------------------

 -----------------------------------
 CID_65191344_JID_3138_Energie_anion
 -----------------------------------
 Structure from the checkpoint file:  "JID_3138.chk"
 Charge = -1 Multiplicity = 2

                         Standard orientation:
 ---------------------------------------------------------------------
 Center     Atomic      Atomic             Coordinates (Angstroms)
 Number     Number       Type             X           Y           Z
 ---------------------------------------------------------------------
      1          6           0       -3.327493    0.998393    0.648147
      2          6           0       -2.192226    0.759444   -0.357296
      3          6           0       -1.654527    2.096595   -0.878773
      4          6           0       -1.059830   -0.111770    0.240152
      5          6           0       -1.569071   -1.446517    0.820829
      6          7           0       -2.215497   -2.237418   -0.233310
      7          7           0       -0.068209   -0.400074   -0.793154
      8          6           0        1.305993   -0.476075   -0.764882
      9          8           0        1.877077   -1.097278   -1.657181
     10          6           0        2.125486    0.241238    0.336957
     11          6           0        1.758619    1.734060    0.448467
     12          6           0        1.942717   -0.475311    1.692911
     13          6           0        3.609524    0.140475   -0.057657
     14          1           0       -2.946994    1.465879    1.565529
     15          1           0       -3.842004    0.074941    0.934871
     16          1           0       -4.078072    1.673154    0.222467
     17          1           0       -2.599446    0.205024   -1.214907
     18          1           0       -1.305580    2.727972   -0.051880
     19          1           0       -0.818269    1.944249   -1.565639
     20          1           0       -2.440542    2.648648   -1.405999
     21          1           0       -0.588766    0.451071    1.046364
     22          1           0       -0.698552   -2.007181    1.175107
     23          1           0       -2.208515   -1.256577    1.697288
     24          1           0       -2.237040   -3.220545    0.024227
     25          1           0       -3.184094   -1.947914   -0.349987
     26          1           0       -0.438842   -1.026727   -1.503440
     27          1           0        0.744351    1.905069    0.813661
     28          1           0        2.446770    2.228133    1.144331
     29          1           0        1.850677    2.230016   -0.523682
     30          1           0        2.182394   -1.540576    1.601505
     31          1           0        2.625730   -0.040918    2.432133
     32          1           0        0.929598   -0.389034    2.094311
     33          1           0        3.921148   -0.901664   -0.155286
     34          1           0        3.794144    0.627777   -1.018757
     35          1           0        4.226081    0.626674    0.707334
 ---------------------------------------------------------------------

 SCF Done:  E(UB3LYP) =  -579.281993090     A.U. after   33 cycles
 SCF Done:  E(UB3LYP) =  -579.281993090     a.u. after    1 cycles

 The electronic state is 2-A.
 Alpha  occ. eigenvalues --  -18.98427 -14.22534 -14.19425 -10.17032 -10.11052
 Alpha  occ. eigenvalues --  -10.10254 -10.09220 -10.07842 -10.07345 -10.07218
 Alpha  occ. eigenvalues --  -10.06460 -10.05998 -10.05761  -0.93644  -0.82476
 Alpha  occ. eigenvalues --   -0.77695  -0.72623  -0.70185  -0.62035  -0.60225
 Alpha  occ. eigenvalues --   -0.59400  -0.58659  -0.53771  -0.52046  -0.47257
 Alpha  occ. eigenvalues --   -0.45206  -0.40329  -0.39457  -0.37501  -0.36201
 Alpha  occ. eigenvalues --   -0.35261  -0.35160  -0.34790  -0.33811  -0.32510
 Alpha  occ. eigenvalues --   -0.31097  -0.30524  -0.29609  -0.29060  -0.28786
 Alpha  occ. eigenvalues --   -0.27904  -0.27577  -0.27204  -0.25938  -0.24494
 Alpha  occ. eigenvalues --   -0.24323  -0.24169  -0.23372  -0.22272  -0.16110
 Alpha  occ. eigenvalues --   -0.15231  -0.14203   0.04207
 Alpha virt. eigenvalues --    0.06320   0.07064   0.07789   0.08678   0.08763
 Alpha virt. eigenvalues --    0.09209   0.10121   0.10626   0.10983   0.11128
 Alpha virt. eigenvalues --    0.11437   0.11998   0.12159   0.12942   0.13570

  Beta  occ. eigenvalues --  -18.98425 -14.22532 -14.19374 -10.17031 -10.11047
  Beta  occ. eigenvalues --  -10.10252 -10.09190 -10.07833 -10.07326 -10.07199
  Beta  occ. eigenvalues --  -10.06453 -10.05980 -10.05711  -0.93641  -0.82459
  Beta  occ. eigenvalues --   -0.77617  -0.72610  -0.70154  -0.61977  -0.60187
  Beta  occ. eigenvalues --   -0.59377  -0.58587  -0.53718  -0.51996  -0.47197
  Beta  occ. eigenvalues --   -0.45177  -0.40288  -0.39417  -0.37478  -0.36170
  Beta  occ. eigenvalues --   -0.35202  -0.35130  -0.34736  -0.33772  -0.32484
  Beta  occ. eigenvalues --   -0.31075  -0.30487  -0.29584  -0.29029  -0.28752
  Beta  occ. eigenvalues --   -0.27879  -0.27562  -0.27163  -0.25918  -0.24472
  Beta  occ. eigenvalues --   -0.24274  -0.24147  -0.23339  -0.22243  -0.16087
  Beta  occ. eigenvalues --   -0.15211  -0.14175
  Beta virt. eigenvalues --    0.06409   0.07197   0.07801   0.08393   0.09001
  Beta virt. eigenvalues --    0.09192   0.09492   0.10465   0.11094   0.11301
  Beta virt. eigenvalues --    0.11304   0.11802   0.12192   0.12490   0.13173

 Mulliken charges and spin densities:
               1          2
     1  C    0.693961  -1.355447
     2  C   -1.787348   2.205115
     3  C    0.218992  -0.881312
     4  C   -0.511194   0.376245
     5  C    2.258197  -3.118177
     6  N   -0.609895   0.264612
     7  N   -0.069374   0.103638
     8  C   -0.060365  -0.235692
     9  O   -0.312918   0.004657
    10  C    0.324510   0.394648
    11  C   -0.027845  -0.507385
    12  C    0.236105  -0.808055
    13  C   -0.595570   0.019448
    14  H   -0.490753   0.645824
    15  H   -0.411241   0.560220
    16  H   -0.323842   0.477022
    17  H    0.034710   0.138801
    18  H    0.121808   0.026195
    19  H    0.060203   0.092340
    20  H   -0.082354   0.235364
    21  H    1.424559  -1.232234
    22  H    0.063163   0.133358
    23  H   -0.496411   0.662262
    24  H   -0.146775   0.395183
    25  H   -0.075529   0.322791
    26  H    0.344447  -0.004590
    27  H   -0.605585   0.703759
    28  H   -0.131843   0.287032
    29  H    0.213286  -0.049450
    30  H    0.060697   0.109133
    31  H    0.013292   0.141668
    32  H   -0.615716   0.734644
    33  H    0.134075   0.034766
    34  H    0.095308   0.065018
    35  H    0.057244   0.058600
 Sum of Mulliken charges =  -1.00000   1.00000

 Dipole moment (field-independent basis, Debye):
    X=              5.7945    Y=              2.5342    Z=             -2.0056  Tot=              6.6348
 Quadrupole moment (field-independent basis, Debye-Ang):
   XX=           -154.7404   YY=           -130.1001   ZZ=           -125.6681
   XY=             -3.3423   XZ=             10.8724   YZ=             -3.7043

 Summary of Natural Population Analysis:

                                       Natural Population
                Natural  -----------------------------------------------
    Atom  No    Charge         Core      Valence    Rydberg      Total
 -----------------------------------------------------------------------
      C    1   -0.28614      0.99965     2.28029    0.00620     3.28614
      C    2   -0.11626      0.99959     2.10632    0.01035     3.11626
      C    3   -0.28372      0.99965     2.27849    0.00559     3.28372
      C    4   -0.01611      0.99955     2.00195    0.01461     3.01611
      C    5   -0.09255      0.99960     2.08080    0.01214     3.09255
      N    6   -0.43196      0.99977     2.92133    0.01086     3.93196
      N    7   -0.32393      0.99965     2.81354    0.01073     3.82393
      C    8    0.35332      0.99961     1.62319    0.02388     2.64668
      O    9   -0.32931      0.99988     3.32383    0.00560     4.32931
      C   10   -0.08074      0.99956     2.07192    0.00927     3.08074
      C   11   -0.28262      0.99963     2.27554    0.00744     3.28262
      C   12   -0.28260      0.99963     2.27549    0.00748     3.28260
      C   13   -0.27984      0.99964     2.27361    0.00658     3.27984
      H   14    0.09873      0.00000     0.39970    0.00157     0.40127
      H   15    0.10309      0.00000     0.39481    0.00210     0.39691
      H   16    0.10075      0.00000     0.39811    0.00114     0.39925
      H   17    0.09589      0.00000     0.40189    0.00222     0.40411
      H   18    0.09551      0.00000     0.40354    0.00095     0.40449
      H   19    0.10390      0.00000     0.39518    0.00092     0.39610
      H   20    0.09825      0.00000     0.40106    0.00069     0.40175
      H   21    0.10012      0.00000     0.39677    0.00310     0.39988
      H   22    0.09424      0.00000     0.40438    0.00137     0.40576
      H   23    0.09000      0.00000     0.40707    0.00293     0.41000
      H   24    0.18206      0.00000     0.31551    0.00243     0.31794
      H   25    0.17888      0.00000     0.31837    0.00275     0.32112
      H   26    0.20080      0.00000     0.29632    0.00288     0.29920
      H   27    0.10234      0.00000     0.39651    0.00115     0.39766
      H   28    0.09903      0.00000     0.40011    0.00086     0.40097
      H   29    0.10146      0.00000     0.39768    0.00086     0.39854
      H   30    0.10266      0.00000     0.39630    0.00104     0.39734
      H   31    0.09979      0.00000     0.39933    0.00089     0.40021
      H   32    0.10160      0.00000     0.39717    0.00123     0.39840
      H   33    0.10687      0.00000     0.39230    0.00083     0.39313
      H   34    0.10343      0.00000     0.39578    0.00079     0.39657
      H   35    0.09306      0.00000     0.40614    0.00080     0.40694
 =======================================================================
   * Total *   -0.00000     12.99540    38.84034    0.16427    52.00000

 Normal termination of Gaussian 16 at Wed Dec  9 23:19:26 2020.
