 Gaussian 16, Revision A.03,

 -----------------------------------------------------------
 # opt freq B3LYP/6-31G(d) empiricaldispersion=gd3bj scf=xqc
 -----------------------------------------------------------

 ------------------------------
 CID_43161369_JID_7167_neutraal
 ------------------------------
 Symbolic Z-matrix:
 Charge =  0 Multiplicity = 1

 SCF Done:  E(RB3LYP) =  -1054.72187282     A.U. after   15 cycles
 SCF Done:  E(RB3LYP) =  -1054.72684390     A.U. after   13 cycles
 SCF Done:  E(RB3LYP) =  -1054.72745687     A.U. after   12 cycles
 SCF Done:  E(RB3LYP) =  -1054.72724862     A.U. after   13 cycles
 SCF Done:  E(RB3LYP) =  -1054.72788526     A.U. after   12 cycles
 SCF Done:  E(RB3LYP) =  -1054.72793765     A.U. after   12 cycles
 SCF Done:  E(RB3LYP) =  -1054.72809761     A.U. after   12 cycles
 SCF Done:  E(RB3LYP) =  -1054.72814556     A.U. after   11 cycles
 SCF Done:  E(RB3LYP) =  -1054.72818796     A.U. after   11 cycles
 SCF Done:  E(RB3LYP) =  -1054.72822233     A.U. after   10 cycles
 SCF Done:  E(RB3LYP) =  -1054.72824825     A.U. after    9 cycles
 SCF Done:  E(RB3LYP) =  -1054.72824912     A.U. after    8 cycles
 SCF Done:  E(RB3LYP) =  -1054.72825019     A.U. after    8 cycles
 SCF Done:  E(RB3LYP) =  -1054.72825073     A.U. after    8 cycles
 SCF Done:  E(RB3LYP) =  -1054.72825098     A.U. after    7 cycles
 SCF Done:  E(RB3LYP) =  -1054.72825108     A.U. after    7 cycles
 Optimization completed.
    -- Stationary point found.
 Normal termination of Gaussian 16 at Fri Dec 11 11:57:34 2020.

 --------------------------------------------------------------------
 #N Geom=AllCheck Guess=TCheck SCRF=Check GenChk RB3LYP/6-31G(d) Freq
 --------------------------------------------------------------------

 Structure from the checkpoint file:  "JID_7167.chk"
 ------------------------------
 CID_43161369_JID_7167_neutraal
 ------------------------------
 Charge =  0 Multiplicity = 1

 SCF Done:  E(RB3LYP) =  -1054.72825108     A.U. after    1 cycles

  Exact polarizability: 241.780   4.408 176.668  -8.729   8.773 114.001
 Approx polarizability: 343.320   6.694 296.887 -16.886  18.530 182.331

                      1                      2                      3
                      A                      A                      A
 Frequencies --     29.7124                41.0423                61.6045
 Red. masses --      4.4401                 3.5566                 3.6728
 Frc consts  --      0.0023                 0.0035                 0.0082
 IR Inten    --      0.9989                 0.1323                 0.3153

                      4                      5                      6
                      A                      A                      A
 Frequencies --    100.3253               113.2603               125.3141
 Red. masses --      1.2879                 1.3299                 2.2150
 Frc consts  --      0.0076                 0.0101                 0.0205
 IR Inten    --      0.4271                 0.2125                 0.7575

                      7                      8                      9
                      A                      A                      A
 Frequencies --    135.4193               150.7876               153.8652
 Red. masses --      1.1176                 3.4099                 2.9778
 Frc consts  --      0.0121                 0.0457                 0.0415
 IR Inten    --      0.0230                 1.6117                 1.9325

                     10                     11                     12
                      A                      A                      A
 Frequencies --    177.8589               199.5743               221.3225
 Red. masses --      1.1229                 3.8390                 3.5377
 Frc consts  --      0.0209                 0.0901                 0.1021
 IR Inten    --      0.4953                 0.5519                 1.1242

                     13                     14                     15
                      A                      A                      A
 Frequencies --    238.6057               262.1394               287.4516
 Red. masses --      3.8834                 2.7133                 3.4922
 Frc consts  --      0.1303                 0.1099                 0.1700
 IR Inten    --      1.1459                 2.2767                 5.0164

                     16                     17                     18
                      A                      A                      A
 Frequencies --    306.5094               351.9649               361.8667
 Red. masses --      3.9248                 3.1077                 4.7773
 Frc consts  --      0.2172                 0.2268                 0.3686
 IR Inten    --      1.4727                 0.5786                 3.0145

                     19                     20                     21
                      A                      A                      A
 Frequencies --    390.4796               447.4837               467.9695
 Red. masses --      4.3652                 3.2837                 4.9588
 Frc consts  --      0.3921                 0.3874                 0.6398
 IR Inten    --      1.5241                 0.2221                 1.5275

                     22                     23                     24
                      A                      A                      A
 Frequencies --    504.7383               508.4250               520.4085
 Red. masses --      4.5729                 4.9299                 3.3405
 Frc consts  --      0.6864                 0.7508                 0.5330
 IR Inten    --      3.6942                 1.9475                 2.0293

                     25                     26                     27
                      A                      A                      A
 Frequencies --    522.9143               551.7287               614.9040
 Red. masses --      4.5590                 5.0940                 4.7317
 Frc consts  --      0.7345                 0.9136                 1.0541
 IR Inten    --      0.1000                10.1204                 0.4199

                     28                     29                     30
                      A                      A                      A
 Frequencies --    644.1871               688.3359               698.0594
 Red. masses --      5.3403                 5.7774                 4.6725
 Frc consts  --      1.3057                 1.6128                 1.3415
 IR Inten    --      7.1121                 1.8166                22.0746

                     31                     32                     33
                      A                      A                      A
 Frequencies --    737.8355               758.3619               778.6556
 Red. masses --      3.4283                 5.1681                 1.8210
 Frc consts  --      1.0996                 1.7512                 0.6505
 IR Inten    --      5.9613                27.9476                56.3438

                     34                     35                     36
                      A                      A                      A
 Frequencies --    822.6680               830.6720               866.5466
 Red. masses --      2.5860                 4.4959                 1.5262
 Frc consts  --      1.0312                 1.8278                 0.6752
 IR Inten    --      5.6335                11.6630                 6.1468

                     37                     38                     39
                      A                      A                      A
 Frequencies --    870.7506               925.9063               972.2988
 Red. masses --      2.9496                 1.3350                 1.3840
 Frc consts  --      1.3177                 0.6743                 0.7709
 IR Inten    --      2.9117                 1.7667                 8.6534

                     40                     41                     42
                      A                      A                      A
 Frequencies --    978.6693              1021.0783              1025.5364
 Red. masses --      1.8046                 1.6073                 1.4213
 Frc consts  --      1.0184                 0.9873                 0.8807
 IR Inten    --     13.3075                 1.3526                 7.6868

                     43                     44                     45
                      A                      A                      A
 Frequencies --   1052.8507              1056.5844              1074.8054
 Red. masses --      1.4014                 1.4321                 1.3988
 Frc consts  --      0.9153                 0.9419                 0.9520
 IR Inten    --      2.6816                 3.3590                 1.3201

                     46                     47                     48
                      A                      A                      A
 Frequencies --   1079.3786              1084.2738              1124.5627
 Red. masses --      1.7953                 1.6246                 2.1156
 Frc consts  --      1.2323                 1.1253                 1.5763
 IR Inten    --      8.6905                 3.6261                 4.2011

                     49                     50                     51
                      A                      A                      A
 Frequencies --   1157.7775              1171.7812              1193.5796
 Red. masses --      2.6816                 2.3481                 2.9447
 Frc consts  --      2.1178                 1.8996                 2.4717
 IR Inten    --     67.1604                 7.1306                 1.3813

                     52                     53                     54
                      A                      A                      A
 Frequencies --   1204.6852              1223.1848              1245.4550
 Red. masses --      1.4606                 2.7937                 2.2416
 Frc consts  --      1.2489                 2.4627                 2.0486
 IR Inten    --      3.8532                 6.3274                13.8203

                     55                     56                     57
                      A                      A                      A
 Frequencies --   1283.5406              1297.9665              1351.1144
 Red. masses --      2.1932                 2.8198                 6.1729
 Frc consts  --      2.1289                 2.7989                 6.6394
 IR Inten    --     97.1115                96.7776                14.7712

                     58                     59                     60
                      A                      A                      A
 Frequencies --   1396.5799              1441.5436              1443.5018
 Red. masses --      4.2530                 1.2542                 1.2207
 Frc consts  --      4.8874                 1.5356                 1.4986
 IR Inten    --     64.9971                 0.9146                 1.8434

                     61                     62                     63
                      A                      A                      A
 Frequencies --   1446.0168              1453.1139              1482.4524
 Red. masses --      1.2452                 1.2072                 2.2015
 Frc consts  --      1.5341                 1.5019                 2.8506
 IR Inten    --      2.4516                 2.8494                15.1472

                     64                     65                     66
                      A                      A                      A
 Frequencies --   1498.1860              1498.9249              1507.1605
 Red. masses --      1.0950                 1.6738                 1.0862
 Frc consts  --      1.4481                 2.2157                 1.4537
 IR Inten    --     17.7387                 3.7794                19.1693

                     67                     68                     69
                      A                      A                      A
 Frequencies --   1508.0820              1508.4512              1519.5965
 Red. masses --      1.0517                 1.1718                 1.3306
 Frc consts  --      1.4093                 1.5710                 1.8104
 IR Inten    --      5.9718                 8.8666                47.1622

                     70                     71                     72
                      A                      A                      A
 Frequencies --   1522.9351              1528.6039              1531.8580
 Red. masses --      1.0965                 1.1723                 1.3258
 Frc consts  --      1.4983                 1.6139                 1.8330
 IR Inten    --     12.1838                 7.4684                16.1626

                     73                     74                     75
                      A                      A                      A
 Frequencies --   1536.1426              1615.5756              1640.1057
 Red. masses --      2.5887                 5.9127                 5.9739
 Frc consts  --      3.5992                 9.0926                 9.4678
 IR Inten    --    110.3281                20.3617                10.4864

                     76                     77                     78
                      A                      A                      A
 Frequencies --   1651.4420              1725.4645              3041.8668
 Red. masses --      5.2797                11.6517                 1.0387
 Frc consts  --      8.4837                20.4386                 5.6627
 IR Inten    --      2.6942               165.6900                27.0991

                     79                     80                     81
                      A                      A                      A
 Frequencies --   3044.7416              3049.1788              3060.9285
 Red. masses --      1.0365                 1.0447                 1.0356
 Frc consts  --      5.6614                 5.7227                 5.7165
 IR Inten    --     40.1364                28.2471                16.4503

                     82                     83                     84
                      A                      A                      A
 Frequencies --   3091.5267              3096.0998              3096.3703
 Red. masses --      1.0995                 1.0985                 1.1018
 Frc consts  --      6.1914                 6.2041                 6.2239
 IR Inten    --     25.9626                11.1219                17.7858

                     85                     86                     87
                      A                      A                      A
 Frequencies --   3122.2032              3128.8226              3129.7195
 Red. masses --      1.1012                 1.1005                 1.1008
 Frc consts  --      6.3247                 6.3478                 6.3527
 IR Inten    --     10.5765                19.5624                11.5241

                     88                     89                     90
                      A                      A                      A
 Frequencies --   3141.9009              3179.4872              3189.6836
 Red. masses --      1.1026                 1.0871                 1.0945
 Frc consts  --      6.4131                 6.4748                 6.5608
 IR Inten    --     12.1950                 9.8534                 5.9455

                     91                     92                     93
                      A                      A                      A
 Frequencies --   3196.4990              3211.6737              3231.5966
 Red. masses --      1.0899                 1.0957                 1.0925
 Frc consts  --      6.5615                 6.6590                 6.7223
 IR Inten    --     23.7934                17.0597                 3.5196

 - Thermochemistry -
 -------------------
 Temperature   298.150 Kelvin.  Pressure   1.00000 Atm.
 Atom     1 has atomic number  6 and mass  12.00000

 Molecular mass:   244.09219 amu.
 Principal axes and moments of inertia in atomic units:
                           1         2         3
     Eigenvalues --  2214.983777398.011698647.15261
           X            0.99995  -0.00594  -0.00750
           Y            0.00594   0.99998   0.00067
           Z            0.00749  -0.00071   0.99997
 This molecule is an asymmetric top.
 Rotational symmetry number  1.
 Warning -- assumption of classical behavior for rotation
           may cause significant error
 Rotational temperatures (Kelvin)      0.03910     0.01171     0.01002
 Rotational constants (GHZ):           0.81479     0.24395     0.20871
 Zero-point vibrational energy     709007.6 (Joules/Mol)
                                  169.45688 (Kcal/Mol)
 Warning -- explicit consideration of  27 degrees of freedom as
           vibrations may cause significant error
 Vibrational temperatures:     42.75    59.05    88.64   144.35   162.96
          (Kelvin)            180.30   194.84   216.95   221.38   255.90
                              287.14   318.43   343.30   377.16   413.58
                              441.00   506.40   520.65   561.81   643.83
                              673.30   726.21   731.51   748.75   752.36
                              793.81   884.71   926.84   990.36  1004.35
                             1061.58  1091.11  1120.31  1183.64  1195.15
                             1246.77  1252.82  1332.17  1398.92  1408.09
                             1469.10  1475.52  1514.82  1520.19  1546.41
                             1552.99  1560.03  1617.99  1665.78  1685.93
                             1717.29  1733.27  1759.89  1791.93  1846.73
                             1867.48  1943.95  2009.37  2074.06  2076.88
                             2080.50  2090.71  2132.92  2155.56  2156.62
                             2168.47  2169.79  2170.32  2186.36  2191.16
                             2199.32  2204.00  2210.17  2324.45  2359.75
                             2376.06  2482.56  4376.57  4380.70  4387.09
                             4403.99  4448.02  4454.60  4454.99  4492.15
                             4501.68  4502.97  4520.49  4574.57  4589.24
                             4599.05  4620.88  4649.55

 Zero-point correction=                           0.270047 (Hartree/Particle)
 Thermal correction to Energy=                    0.287238
 Thermal correction to Enthalpy=                  0.288182
 Thermal correction to Gibbs Free Energy=         0.224549
 Sum of electronic and zero-point Energies=          -1054.458204
 Sum of electronic and thermal Energies=             -1054.441013
 Sum of electronic and thermal Enthalpies=           -1054.440069
 Sum of electronic and thermal Free Energies=        -1054.503702

                     E (Thermal)             CV                S
                      KCal/Mol        Cal/Mol-Kelvin    Cal/Mol-Kelvin
 Total                  180.245             64.113            133.929
 Electronic               0.000              0.000              0.000
 Translational            0.889              2.981             42.378
 Rotational               0.889              2.981             33.316
 Vibrational            178.467             58.151             58.235
 Vibration     1          0.593              1.984              5.849
 Vibration     2          0.594              1.981              5.208
 Vibration     3          0.597              1.973              4.405
 Vibration     4          0.604              1.949              3.448
 Vibration     5          0.607              1.938              3.212
 Vibration     6          0.610              1.928              3.017
 Vibration     7          0.613              1.918              2.868
 Vibration     8          0.618              1.902              2.662
 Vibration     9          0.619              1.898              2.624
 Vibration    10          0.628              1.870              2.351
 Vibration    11          0.638              1.840              2.137
 Vibration    12          0.648              1.809              1.948
 Vibration    13          0.657              1.781              1.813
 Vibration    14          0.669              1.742              1.647
 Vibration    15          0.685              1.697              1.489
 Vibration    16          0.697              1.661              1.381
 Vibration    17          0.729              1.571              1.157
 Vibration    18          0.736              1.551              1.114
 Vibration    19          0.758              1.491              0.998
 Vibration    20          0.807              1.366              0.803
 Vibration    21          0.825              1.321              0.743
 Vibration    22          0.860              1.240              0.646
 Vibration    23          0.864              1.231              0.637
 Vibration    24          0.875              1.205              0.609
 Vibration    25          0.878              1.199              0.603
 Vibration    26          0.907              1.136              0.541
 Vibration    27          0.974              1.000              0.425

                           ! Non-Optimized Parameters !
 Normal termination of Gaussian 16 at Fri Dec 11 12:10:25 2020.

 ----------------------------------------------------------------------
 # B3LYP/6-311++G(d,p) empiricaldispersion=gd3bj scf=xqc pop=npa geom=c
 heck
 ----------------------------------------------------------------------

 --------------------------------------
 CID_43161369_JID_7167_Energie_neutraal
 --------------------------------------
 Structure from the checkpoint file:  "JID_7167.chk"
 Charge =  0 Multiplicity = 1

 SCF Done:  E(RB3LYP) =  -1054.92477451     A.U. after   16 cycles
 Normal termination of Gaussian 16 at Fri Dec 11 12:16:57 2020.

 ----------------------------------------------------------------------
 # B3LYP/6-311++G(d,p) empiricaldispersion=gd3bj scf=xqc pop=npa geom=c
 heck
 ----------------------------------------------------------------------

 ------------------------------------
 CID_43161369_JID_7167_Energie_kation
 ------------------------------------
 Structure from the checkpoint file:  "JID_7167.chk"
 Charge =  1 Multiplicity = 2

 SCF Done:  E(UB3LYP) =  -1054.63352809     A.U. after   30 cycles
 Normal termination of Gaussian 16 at Fri Dec 11 12:35:16 2020.
 Gaussian 16:  ES64L-G16RevA.03 25-Dec-2016

 ----------------------------------------------------------------------
 # B3LYP/6-311++G(d,p) empiricaldispersion=gd3bj scf=xqc pop=npa geom=c
 heck
 ----------------------------------------------------------------------

 -----------------------------------
 CID_43161369_JID_7167_Energie_anion
 -----------------------------------
 Structure from the checkpoint file:  "JID_7167.chk"
 Charge = -1 Multiplicity = 2

                         Standard orientation:
 ---------------------------------------------------------------------
 Center     Atomic      Atomic             Coordinates (Angstroms)
 Number     Number       Type             X           Y           Z
 ---------------------------------------------------------------------
      1          6           0        4.909002    0.077779   -0.834086
      2          6           0        3.606178    0.369336   -0.129500
      3          6           0        2.475184   -0.447123   -0.342822
      4          6           0        1.276529   -0.134250    0.331038
      5          6           0        1.216562    0.967698    1.197880
      6          6           0        2.339508    1.755709    1.416718
      7          6           0        3.524529    1.453313    0.749358
      8          6           0        0.061753   -1.011317    0.220056
      9          8           0        0.165001   -2.235037    0.289542
     10          6           0       -1.257133   -0.360694    0.047368
     11          6           0       -2.446070   -1.031185    0.278784
     12         16           0       -3.802169    0.006288   -0.048765
     13          6           0       -2.774318    1.346831   -0.520606
     14          6           0       -1.463702    0.989778   -0.408388
     15          6           0       -3.355192    2.651882   -0.969988
     16          6           0       -2.667372   -2.440120    0.734434
     17          6           0        2.583255   -1.610428   -1.299765
     18          1           0        5.252289   -0.946055   -0.642675
     19          1           0        4.814863    0.179691   -1.922803
     20          1           0        5.694249    0.763430   -0.502843
     21          1           0        0.287564    1.185574    1.715255
     22          1           0        2.294599    2.597200    2.101996
     23          1           0        4.407072    2.067334    0.911390
     24          1           0       -0.650708    1.661309   -0.657666
     25          1           0       -3.980618    2.536220   -1.863400
     26          1           0       -3.975327    3.113743   -0.192180
     27          1           0       -2.547061    3.348455   -1.213152
     28          1           0       -3.704066   -2.598470    1.046836
     29          1           0       -2.430562   -3.146609   -0.068250
     30          1           0       -1.999915   -2.684756    1.565097
     31          1           0        3.190067   -2.415439   -0.865736
     32          1           0        1.613664   -2.041223   -1.541672
     33          1           0        3.076291   -1.303963   -2.229192
 ---------------------------------------------------------------------

 SCF Done:  E(UB3LYP) =  -1054.93548305     A.U. after   27 cycles

 The electronic state is 2-A.
 Alpha  occ. eigenvalues --  -88.72957 -18.91237 -10.07016 -10.06739 -10.06300
 Alpha  occ. eigenvalues --  -10.06181 -10.05307 -10.04696 -10.04670 -10.04339
 Alpha  occ. eigenvalues --  -10.03889 -10.03775 -10.03666 -10.03568 -10.03432
 Alpha  occ. eigenvalues --  -10.03188 -10.02232  -7.81636  -5.77922  -5.77568
 Alpha  occ. eigenvalues --   -5.77244  -0.85541  -0.74275  -0.73090  -0.65611
 Alpha  occ. eigenvalues --   -0.65034  -0.63796  -0.60810  -0.58905  -0.57497
 Alpha  occ. eigenvalues --   -0.55094  -0.52804  -0.48734  -0.44960  -0.42977
 Alpha  occ. eigenvalues --   -0.40860  -0.37871  -0.36572  -0.34802  -0.33980
 Alpha  occ. eigenvalues --   -0.32047  -0.31840  -0.31234  -0.30072  -0.29005
 Alpha  occ. eigenvalues --   -0.28724  -0.28377  -0.28162  -0.27992  -0.27420
 Alpha  occ. eigenvalues --   -0.26421  -0.25285  -0.23486  -0.23326  -0.22659
 Alpha  occ. eigenvalues --   -0.22165  -0.21391  -0.21100  -0.20376  -0.19907
 Alpha  occ. eigenvalues --   -0.12002  -0.11713  -0.11367  -0.09026  -0.07855
 Alpha  occ. eigenvalues --    0.04339
 Alpha virt. eigenvalues --    0.07570   0.07841   0.08939   0.09739   0.10184
 Alpha virt. eigenvalues --    0.10283   0.10912   0.11442   0.11517   0.11945
 Alpha virt. eigenvalues --    0.12293   0.12868   0.12984   0.13587   0.13782

  Beta  occ. eigenvalues --  -88.72927 -18.90644 -10.07015 -10.06747 -10.06179
  Beta  occ. eigenvalues --  -10.05959 -10.05334 -10.04587 -10.04368 -10.04190
  Beta  occ. eigenvalues --  -10.03774 -10.03733 -10.03697 -10.03576 -10.03340
  Beta  occ. eigenvalues --  -10.03158 -10.02315  -7.81609  -5.77911  -5.77561
  Beta  occ. eigenvalues --   -5.77136  -0.84480  -0.74060  -0.72922  -0.65492
  Beta  occ. eigenvalues --   -0.64784  -0.63556  -0.60665  -0.58736  -0.57365
  Beta  occ. eigenvalues --   -0.55004  -0.52597  -0.48226  -0.44870  -0.42465
  Beta  occ. eigenvalues --   -0.40790  -0.37626  -0.36427  -0.34635  -0.33759
  Beta  occ. eigenvalues --   -0.31984  -0.31811  -0.31094  -0.29940  -0.28614
  Beta  occ. eigenvalues --   -0.28450  -0.28258  -0.28021  -0.27938  -0.27294
  Beta  occ. eigenvalues --   -0.26200  -0.24993  -0.23193  -0.22642  -0.22530
  Beta  occ. eigenvalues --   -0.21823  -0.21220  -0.20853  -0.20044  -0.18131
  Beta  occ. eigenvalues --   -0.11562  -0.11072  -0.10622  -0.07867  -0.07098
  Beta virt. eigenvalues --    0.07513   0.07791   0.08899   0.09692   0.09895
  Beta virt. eigenvalues --    0.10236   0.10735   0.11110   0.11590   0.11662
  Beta virt. eigenvalues --    0.11998   0.12726   0.12887   0.13125   0.13611

 Mulliken charges and spin densities:
               1          2
     1  C   -0.574584   0.000442
     2  C    0.520002  -0.032588
     3  C    0.610640   0.066133
     4  C    1.228165   0.102605
     5  C   -0.774428   0.042275
     6  C   -0.306160  -0.025449
     7  C   -0.549002   0.131435
     8  C   -2.042557   0.164812
     9  O   -0.313312   0.209783
    10  C    0.284672  -0.068725
    11  C    1.388917   0.338426
    12  S   -0.751228   0.087039
    13  C    0.436672  -0.031737
    14  C   -1.249436  -0.058152
    15  C   -0.139244  -0.013289
    16  C   -0.459244  -0.010002
    17  C   -0.494411   0.046107
    18  H    0.140354  -0.000623
    19  H    0.135618   0.002658
    20  H    0.130392  -0.000542
    21  H    0.159855  -0.004916
    22  H    0.126512   0.006012
    23  H    0.070618  -0.007436
    24  H    0.135882   0.005183
    25  H    0.118139   0.020958
    26  H    0.135428   0.000324
    27  H    0.147857  -0.000576
    28  H    0.086134   0.001219
    29  H    0.158373   0.020371
    30  H    0.188300   0.007485
    31  H    0.146498   0.002402
    32  H    0.208834  -0.004030
    33  H    0.095743   0.002394
 Sum of Mulliken charges =  -1.00000   1.00000

 Dipole moment (field-independent basis, Debye):
    X=              0.9623    Y=              3.3815    Z=             -1.0851  Tot=              3.6795
 Quadrupole moment (field-independent basis, Debye-Ang):
   XX=           -149.1605   YY=           -129.0811   ZZ=           -119.5697
   XY=             -2.4007   XZ=             -3.0831   YZ=              1.2285

 Summary of Natural Population Analysis:

                                       Natural Population
                Natural  -----------------------------------------------
    Atom  No    Charge         Core      Valence    Rydberg      Total
 -----------------------------------------------------------------------
      C    1   -0.29063      0.99965     2.28639    0.00459     3.29063
      C    2   -0.03225      0.99948     2.02478    0.00798     3.03225
      C    3    0.01752      0.99944     1.97394    0.00909     2.98248
      C    4   -0.03847      0.99945     2.02744    0.01159     3.03847
      C    5   -0.08023      0.99953     2.07275    0.00795     3.08023
      C    6   -0.11977      0.99957     2.11093    0.00927     3.11977
      C    7   -0.08155      0.99953     2.07297    0.00906     3.08155
      C    8    0.30322      0.99956     1.67714    0.02009     2.69678
      O    9   -0.24996      0.99988     3.24397    0.00610     4.24996
      C   10   -0.11243      0.99940     2.10133    0.01169     3.11243
      C   11    0.02439      0.99948     1.96614    0.00999     2.97561
      S   12    0.18642      4.99938     2.79307    0.02114     7.81358
      C   13   -0.12444      0.99950     2.11379    0.01115     3.12444
      C   14   -0.11280      0.99944     2.10502    0.00834     3.11280
      C   15   -0.29270      0.99962     2.28795    0.00513     3.29270
      C   16   -0.30259      0.99962     2.29713    0.00583     3.30259
      C   17   -0.29717      0.99964     2.29245    0.00508     3.29717
      H   18    0.09866      0.00000     0.40028    0.00105     0.40134
      H   19    0.09748      0.00000     0.40142    0.00109     0.40252
      H   20    0.09546      0.00000     0.40355    0.00099     0.40454
      H   21    0.10080      0.00000     0.39782    0.00138     0.39920
      H   22    0.09091      0.00000     0.40741    0.00168     0.40909
      H   23    0.08999      0.00000     0.40913    0.00088     0.41001
      H   24    0.10635      0.00000     0.39259    0.00106     0.39365
      H   25    0.09734      0.00000     0.40152    0.00114     0.40266
      H   26    0.09675      0.00000     0.40214    0.00110     0.40325
      H   27    0.10208      0.00000     0.39699    0.00093     0.39792
      H   28    0.08947      0.00000     0.40953    0.00099     0.41053
      H   29    0.11220      0.00000     0.38670    0.00110     0.38780
      H   30    0.11614      0.00000     0.38281    0.00106     0.38386
      H   31    0.10015      0.00000     0.39885    0.00100     0.39985
      H   32    0.11945      0.00000     0.37968    0.00087     0.38055
      H   33    0.09021      0.00000     0.40879    0.00100     0.40979
 =======================================================================
   * Total *    0.00001     20.99217    43.82641    0.18141    64.99999

 Normal termination of Gaussian 16 at Fri Dec 11 12:55:06 2020.
