 Gaussian 16, Revision A.03,

 -----------------------------------------------------------
 # opt freq B3LYP/6-31G(d) empiricaldispersion=gd3bj scf=xqc
 -----------------------------------------------------------

 --------------------------------
 CID_133418860_JID_10732_neutraal
 --------------------------------
 Symbolic Z-matrix:
 Charge =  0 Multiplicity = 1

 SCF Done:  E(RB3LYP) =  -929.764047071     A.U. after   16 cycles
 SCF Done:  E(RB3LYP) =  -929.771501950     A.U. after   15 cycles
 SCF Done:  E(RB3LYP) =  -929.768612813     A.U. after   15 cycles
 SCF Done:  E(RB3LYP) =  -929.774030107     A.U. after   15 cycles
 SCF Done:  E(RB3LYP) =  -929.774799764     A.U. after   14 cycles
 SCF Done:  E(RB3LYP) =  -929.775167804     A.U. after   14 cycles
 SCF Done:  E(RB3LYP) =  -929.775287148     A.U. after   13 cycles
 SCF Done:  E(RB3LYP) =  -929.775362615     A.U. after   12 cycles
 SCF Done:  E(RB3LYP) =  -929.775383780     A.U. after   12 cycles
 SCF Done:  E(RB3LYP) =  -929.775394679     A.U. after   11 cycles
 SCF Done:  E(RB3LYP) =  -929.775408501     A.U. after    8 cycles
 SCF Done:  E(RB3LYP) =  -929.775408620     A.U. after    8 cycles
 SCF Done:  E(RB3LYP) =  -929.775408724     A.U. after    8 cycles
 SCF Done:  E(RB3LYP) =  -929.775408842     A.U. after    8 cycles
 SCF Done:  E(RB3LYP) =  -929.775408938     A.U. after    7 cycles
 SCF Done:  E(RB3LYP) =  -929.775408985     A.U. after    7 cycles
 Optimization completed.
    -- Stationary point found.
 Normal termination of Gaussian 16 at Mon Dec 14 14:05:08 2020.

 --------------------------------------------------------------------
 #N Geom=AllCheck Guess=TCheck SCRF=Check GenChk RB3LYP/6-31G(d) Freq
 --------------------------------------------------------------------

 Structure from the checkpoint file:  "JID_10732.chk"
 --------------------------------
 CID_133418860_JID_10732_neutraal
 --------------------------------
 Charge =  0 Multiplicity = 1

 SCF Done:  E(RB3LYP) =  -929.775408985     A.U. after    1 cycles

  Exact polarizability: 262.821   4.766 178.119 -18.493  -1.013 108.353
 Approx polarizability: 394.660   7.490 315.827 -43.781  -3.657 164.065

                      1                      2                      3
                      A                      A                      A
 Frequencies --     18.1762                35.3254                38.7722
 Red. masses --      4.2364                 3.4675                 4.9567
 Frc consts  --      0.0008                 0.0025                 0.0044
 IR Inten    --      0.8858                 0.2453                 0.0804

                      4                      5                      6
                      A                      A                      A
 Frequencies --     53.3478                99.9252               110.5395
 Red. masses --      7.1805                 3.5016                 5.2699
 Frc consts  --      0.0120                 0.0206                 0.0379
 IR Inten    --      0.1310                 0.5622                 0.6880

                      7                      8                      9
                      A                      A                      A
 Frequencies --    140.1477               147.2931               196.7964
 Red. masses --      2.7256                 6.8374                 4.6178
 Frc consts  --      0.0315                 0.0874                 0.1054
 IR Inten    --      0.7033                 0.0449                 0.1336

                     10                     11                     12
                      A                      A                      A
 Frequencies --    226.5026               245.9625               249.3432
 Red. masses --      1.1192                 3.7437                 2.2558
 Frc consts  --      0.0338                 0.1334                 0.0826
 IR Inten    --      0.2071                 3.9431                 1.7408

                     13                     14                     15
                      A                      A                      A
 Frequencies --    264.9807               284.8602               326.8336
 Red. masses --      2.8882                 1.5866                 2.4774
 Frc consts  --      0.1195                 0.0759                 0.1559
 IR Inten    --      2.1724                 0.0203                 0.3825

                     16                     17                     18
                      A                      A                      A
 Frequencies --    335.6477               360.0564               369.3602
 Red. masses --      2.9570                 3.5308                 3.0448
 Frc consts  --      0.1963                 0.2697                 0.2447
 IR Inten    --      2.1789                 2.3728                 1.7304

                     19                     20                     21
                      A                      A                      A
 Frequencies --    381.0302               407.5000               421.1274
 Red. masses --      4.5624                 4.2217                 3.9858
 Frc consts  --      0.3903                 0.4130                 0.4165
 IR Inten    --      1.3921                 2.2161                 2.3365

                     22                     23                     24
                      A                      A                      A
 Frequencies --    459.8561               527.3156               534.8435
 Red. masses --      3.4634                 3.9890                 4.6032
 Frc consts  --      0.4315                 0.6535                 0.7758
 IR Inten    --      2.7487                10.4657                 8.8945

                     25                     26                     27
                      A                      A                      A
 Frequencies --    578.9826               597.1168               620.9339
 Red. masses --      3.1892                 1.7397                 4.6849
 Frc consts  --      0.6299                 0.3655                 1.0643
 IR Inten    --      7.5433                65.6914                 1.6701

                     28                     29                     30
                      A                      A                      A
 Frequencies --    629.3287               663.5344               670.5250
 Red. masses --      4.8752                 4.1522                 2.6990
 Frc consts  --      1.1376                 1.0771                 0.7150
 IR Inten    --      7.7088                 4.8171                31.0818

                     31                     32                     33
                      A                      A                      A
 Frequencies --    698.7209               747.3080               749.0954
 Red. masses --      3.0412                11.0228                 9.0681
 Frc consts  --      0.8748                 3.6269                 2.9981
 IR Inten    --      6.8233                13.8260                 3.5513

                     34                     35                     36
                      A                      A                      A
 Frequencies --    752.3393               794.3241               810.4452
 Red. masses --      1.9627                 6.4578                 2.9672
 Frc consts  --      0.6545                 2.4006                 1.1483
 IR Inten    --      3.3125                10.6190                12.6004

                     37                     38                     39
                      A                      A                      A
 Frequencies --    823.5303               826.6993               850.8297
 Red. masses --      2.3942                 2.0945                 4.6737
 Frc consts  --      0.9567                 0.8434                 1.9934
 IR Inten    --     38.0939                17.3852                18.0666

                     40                     41                     42
                      A                      A                      A
 Frequencies --    888.1272               900.3297               904.5904
 Red. masses --      2.6848                 1.3694                 2.4939
 Frc consts  --      1.2477                 0.6540                 1.2023
 IR Inten    --      5.8307                 9.4427                 1.8477

                     43                     44                     45
                      A                      A                      A
 Frequencies --    917.2265               943.8192               964.6311
 Red. masses --      2.3042                 2.1695                 1.5813
 Frc consts  --      1.1422                 1.1386                 0.8669
 IR Inten    --      1.4952                 2.7892                 7.5937

                     46                     47                     48
                      A                      A                      A
 Frequencies --    972.4026               984.4552               988.9564
 Red. masses --      2.2204                 1.2830                 1.7402
 Frc consts  --      1.2370                 0.7326                 1.0028
 IR Inten    --      5.6098                 1.2235                 0.3787

                     49                     50                     51
                      A                      A                      A
 Frequencies --   1030.7435              1050.7847              1066.4903
 Red. masses --      1.4620                 1.9345                 2.4118
 Frc consts  --      0.9151                 1.2585                 1.6162
 IR Inten    --      1.6119                 2.4845                 1.7890

                     52                     53                     54
                      A                      A                      A
 Frequencies --   1079.6956              1106.4294              1153.3009
 Red. masses --      4.5851                 1.4959                 1.4598
 Frc consts  --      3.1492                 1.0789                 1.1440
 IR Inten    --     19.7409                 8.3494                 0.8372

                     55                     56                     57
                      A                      A                      A
 Frequencies --   1179.0874              1199.9199              1201.4037
 Red. masses --      2.2529                 1.5283                 1.5001
 Frc consts  --      1.8454                 1.2965                 1.2757
 IR Inten    --     32.2165                27.7244                 7.4583

                     58                     59                     60
                      A                      A                      A
 Frequencies --   1215.8647              1259.7411              1272.4466
 Red. masses --      2.2431                 2.3210                 1.6030
 Frc consts  --      1.9538                 2.1701                 1.5292
 IR Inten    --      9.8666                34.3586                15.8989

                     61                     62                     63
                      A                      A                      A
 Frequencies --   1273.8384              1287.8409              1289.2256
 Red. masses --      2.4497                 1.5602                 1.6682
 Frc consts  --      2.3420                 1.5246                 1.6336
 IR Inten    --     17.5804                10.9487                 1.5436

                     64                     65                     66
                      A                      A                      A
 Frequencies --   1320.9717              1336.4407              1343.6184
 Red. masses --      3.4704                 1.6359                 2.0696
 Frc consts  --      3.5679                 1.7215                 2.2014
 IR Inten    --    121.9887               142.0769               228.4470

                     67                     68                     69
                      A                      A                      A
 Frequencies --   1347.6597              1357.3372              1372.0393
 Red. masses --      2.6572                 1.4965                 1.6230
 Frc consts  --      2.8434                 1.6245                 1.8001
 IR Inten    --     52.6857                 5.4215                 4.4142

                     70                     71                     72
                      A                      A                      A
 Frequencies --   1388.4895              1416.3218              1432.0038
 Red. masses --      1.6354                 7.2134                 1.2598
 Frc consts  --      1.8577                 8.5254                 1.5221
 IR Inten    --     49.4619               153.0078                 5.3765

                     73                     74                     75
                      A                      A                      A
 Frequencies --   1446.0639              1451.8587              1454.4900
 Red. masses --      4.9536                 1.4567                 3.2198
 Frc consts  --      6.1031                 1.8092                 4.0133
 IR Inten    --     87.2923                 7.0334               114.6692

                     76                     77                     78
                      A                      A                      A
 Frequencies --   1460.7141              1510.3071              1514.7140
 Red. masses --      3.3077                 3.8580                 1.0768
 Frc consts  --      4.1582                 5.1850                 1.4556
 IR Inten    --      3.9040               112.6431                 2.1527

                     79                     80                     81
                      A                      A                      A
 Frequencies --   1516.5983              1523.5333              1531.8051
 Red. masses --      1.0630                 1.0677                 1.0687
 Frc consts  --      1.4406                 1.4602                 1.4775
 IR Inten    --      1.2921                 3.4408                 9.7341

                     82                     83                     84
                      A                      A                      A
 Frequencies --   1536.8348              1544.7622              1548.4776
 Red. masses --      1.0654                 1.0546                 1.1104
 Frc consts  --      1.4826                 1.4827                 1.5687
 IR Inten    --      5.3542                11.1876                18.5790

                     85                     86                     87
                      A                      A                      A
 Frequencies --   1571.3377              1609.5580              1616.5340
 Red. masses --      2.3292                 5.2615                13.4937
 Frc consts  --      3.3884                 8.0311                20.7755
 IR Inten    --    118.2617               261.0321               163.2593

                     88                     89                     90
                      A                      A                      A
 Frequencies --   1679.5382              3043.4332              3045.6808
 Red. masses --      6.3746                 1.0635                 1.0374
 Frc consts  --     10.5945                 5.8041                 5.6696
 IR Inten    --    206.5576                31.4711                15.7294

                     91                     92                     93
                      A                      A                      A
 Frequencies --   3052.1558              3073.0295              3084.4927
 Red. masses --      1.0399                 1.0635                 1.0664
 Frc consts  --      5.7074                 5.9170                 5.9775
 IR Inten    --     25.2196                21.5144                22.5144

                     94                     95                     96
                      A                      A                      A
 Frequencies --   3094.7284              3100.4820              3106.9474
 Red. masses --      1.0924                 1.0849                 1.1023
 Frc consts  --      6.1644                 6.1447                 6.2694
 IR Inten    --     33.7037                13.5727                 3.1830

                     97                     98                     99
                      A                      A                      A
 Frequencies --   3109.4260              3112.7395              3122.4560
 Red. masses --      1.1051                 1.1007                 1.1017
 Frc consts  --      6.2953                 6.2837                 6.3284
 IR Inten    --      4.6021                73.2800                35.7502

                    100                    101                    102
                      A                      A                      A
 Frequencies --   3131.2455              3132.6491              3236.0313
 Red. masses --      1.1037                 1.1018                 1.0891
 Frc consts  --      6.3759                 6.3703                 6.7193
 IR Inten    --     12.0159                56.5088                 0.8650

                    103                    104                    105
                      A                      A                      A
 Frequencies --   3251.0468              3288.0350              3570.9860
 Red. masses --      1.0956                 1.0973                 1.0749
 Frc consts  --      6.8228                 6.9897                 8.0757
 IR Inten    --      2.8002                 0.7350                23.0713

 - Thermochemistry -
 -------------------
 Temperature   298.150 Kelvin.  Pressure   1.00000 Atm.
 Atom     1 has atomic number  6 and mass  12.00000

 Molecular mass:   275.13822 amu.
 Principal axes and moments of inertia in atomic units:
                           1         2         3
     Eigenvalues --  2515.615319869.93776**********
           X            0.99996  -0.00819   0.00330
           Y            0.00815   0.99988   0.01282
           Z           -0.00341  -0.01279   0.99991
 This molecule is an asymmetric top.
 Rotational symmetry number  1.
 Warning -- assumption of classical behavior for rotation
           may cause significant error
 Rotational temperatures (Kelvin)      0.03443     0.00878     0.00774
 Rotational constants (GHZ):           0.71742     0.18285     0.16136
 Zero-point vibrational energy     798915.1 (Joules/Mol)
                                  190.94530 (Kcal/Mol)
 Warning -- explicit consideration of  26 degrees of freedom as
           vibrations may cause significant error
 Vibrational temperatures:     26.15    50.83    55.78    76.76   143.77
          (Kelvin)            159.04   201.64   211.92   283.15   325.89
                              353.89   358.75   381.25   409.85   470.24
                              482.92   518.04   531.43   548.22   586.30
                              605.91   661.63   758.69   769.52   833.03
                              859.12   893.39   905.46   954.68   964.74
                             1005.30  1075.21  1077.78  1082.45  1142.86
                             1166.05  1184.88  1189.44  1224.15  1277.82
                             1295.37  1301.50  1319.68  1357.95  1387.89
                             1399.07  1416.41  1422.89  1483.01  1511.84
                             1534.44  1553.44  1591.91  1659.34  1696.44
                             1726.42  1728.55  1749.36  1812.49  1830.77
                             1832.77  1852.92  1854.91  1900.58  1922.84
                             1933.17  1938.98  1952.91  1974.06  1997.73
                             2037.77  2060.33  2080.56  2088.90  2092.69
                             2101.64  2173.00  2179.34  2182.05  2192.02
                             2203.93  2211.16  2222.57  2227.91  2260.80
                             2315.80  2325.83  2416.48  4378.82  4382.06
                             4391.37  4421.40  4437.90  4452.62  4460.90
                             4470.20  4473.77  4478.54  4492.52  4505.16
                             4507.18  4655.93  4677.53  4730.75  5137.85

 Zero-point correction=                           0.304291 (Hartree/Particle)
 Thermal correction to Energy=                    0.321843
 Thermal correction to Enthalpy=                  0.322787
 Thermal correction to Gibbs Free Energy=         0.257160
 Sum of electronic and zero-point Energies=           -929.471118
 Sum of electronic and thermal Energies=              -929.453566
 Sum of electronic and thermal Enthalpies=            -929.452622
 Sum of electronic and thermal Free Energies=         -929.518249

                     E (Thermal)             CV                S
                      KCal/Mol        Cal/Mol-Kelvin    Cal/Mol-Kelvin
 Total                  201.960             68.223            138.125
 Electronic               0.000              0.000              0.000
 Translational            0.889              2.981             42.735
 Rotational               0.889              2.981             33.984
 Vibrational            200.182             62.261             61.406
 Vibration     1          0.593              1.986              6.824
 Vibration     2          0.594              1.982              5.505
 Vibration     3          0.594              1.981              5.321
 Vibration     4          0.596              1.976              4.689
 Vibration     5          0.604              1.949              3.456
 Vibration     6          0.606              1.941              3.259
 Vibration     7          0.615              1.913              2.802
 Vibration     8          0.617              1.906              2.707
 Vibration     9          0.636              1.844              2.163
 Vibration    10          0.650              1.801              1.906
 Vibration    11          0.660              1.769              1.759
 Vibration    12          0.662              1.764              1.735
 Vibration    13          0.671              1.737              1.629
 Vibration    14          0.683              1.702              1.504
 Vibration    15          0.710              1.622              1.276
 Vibration    16          0.717              1.604              1.233
 Vibration    17          0.735              1.555              1.122
 Vibration    18          0.742              1.535              1.082
 Vibration    19          0.751              1.511              1.035
 Vibration    20          0.772              1.454              0.935
 Vibration    21          0.784              1.424              0.888
 Vibration    22          0.818              1.339              0.767
 Vibration    23          0.882              1.190              0.593
 Vibration    24          0.890              1.173              0.576
 Vibration    25          0.936              1.077              0.487
 Vibration    26          0.955              1.038              0.455

 Optimization completed.
    -- Stationary point found.
 Normal termination of Gaussian 16 at Mon Dec 14 14:23:56 2020.

 ----------------------------------------------------------------------
 # B3LYP/6-311++G(d,p) empiricaldispersion=gd3bj scf=xqc pop=npa geom=c
 heck
 ----------------------------------------------------------------------

 ----------------------------------------
 CID_133418860_JID_10732_Energie_neutraal
 ----------------------------------------
 Structure from the checkpoint file:  "JID_10732.chk"
 Charge =  0 Multiplicity = 1

 SCF Done:  E(RB3LYP) =  -930.027886329     A.U. after   16 cycles
 Normal termination of Gaussian 16 at Mon Dec 14 14:31:45 2020.

 ----------------------------------------------------------------------
 # B3LYP/6-311++G(d,p) empiricaldispersion=gd3bj scf=xqc pop=npa geom=c
 heck
 ----------------------------------------------------------------------

 --------------------------------------
 CID_133418860_JID_10732_Energie_kation
 --------------------------------------
 Structure from the checkpoint file:  "JID_10732.chk"
 Charge =  1 Multiplicity = 2

 SCF Done:  E(UB3LYP) =  -929.728254322     A.U. after   30 cycles
 Normal termination of Gaussian 16 at Mon Dec 14 14:51:53 2020.
 Gaussian 16:  ES64L-G16RevA.03 25-Dec-2016

 ----------------------------------------------------------------------
 # B3LYP/6-311++G(d,p) empiricaldispersion=gd3bj scf=xqc pop=npa geom=c
 heck
 ----------------------------------------------------------------------

 -------------------------------------
 CID_133418860_JID_10732_Energie_anion
 -------------------------------------
 Structure from the checkpoint file:  "JID_10732.chk"
 Charge = -1 Multiplicity = 2

                         Standard orientation:
 ---------------------------------------------------------------------
 Center     Atomic      Atomic             Coordinates (Angstroms)
 Number     Number       Type             X           Y           Z
 ---------------------------------------------------------------------
      1          6           0        2.141571    0.483598    1.836493
      2          6           0        3.180976    0.131191    0.769474
      3          6           0        3.602577   -1.353302    0.832158
      4          6           0        4.254370   -1.655411   -0.534298
      5          6           0        3.648004   -0.618848   -1.523325
      6          6           0        2.662574    0.247902   -0.700976
      7          7           0        1.305497   -0.256952   -0.900661
      8          6           0        0.148937    0.418054   -0.610354
      9          7           0       -0.899497   -0.361328   -0.367188
     10          7           0       -2.063952    0.285308   -0.167906
     11          6           0       -2.252038    1.663585   -0.152198
     12          7           0       -3.532350    1.991746    0.096464
     13          6           0       -4.177284    0.821527    0.243251
     14          6           0       -3.307736   -0.260328    0.088713
     15          7           0       -3.614134   -1.643624    0.175023
     16          8           0       -4.799588   -1.914397    0.410575
     17          8           0       -2.714845   -2.470980    0.017071
     18          6           0       -1.117590    2.464215   -0.389484
     19          6           0        0.081624    1.852586   -0.621492
     20          6           0        4.406267    1.048697    0.932352
     21          1           0        1.260316   -0.161683    1.776598
     22          1           0        2.574733    0.360887    2.835778
     23          1           0        1.807125    1.523902    1.748681
     24          1           0        4.267316   -1.558964    1.677819
     25          1           0        2.709035   -1.975166    0.975181
     26          1           0        4.068178   -2.685255   -0.853038
     27          1           0        5.341040   -1.538407   -0.478574
     28          1           0        3.125197   -1.085546   -2.362753
     29          1           0        4.429869    0.012954   -1.953563
     30          1           0        2.681464    1.286947   -1.040099
     31          1           0        1.189041   -1.260898   -0.815349
     32          1           0       -5.234768    0.755250    0.453602
     33          1           0       -1.232791    3.541901   -0.386129
     34          1           0        0.970967    2.436359   -0.818429
     35          1           0        4.841724    0.930277    1.930782
     36          1           0        5.191757    0.831848    0.201116
     37          1           0        4.122788    2.101755    0.815214
 ---------------------------------------------------------------------

 SCF Done:  E(UB3LYP) =  -930.064363146     A.U. after   25 cycles

 The electronic state is 2-A.
 Alpha  occ. eigenvalues --  -18.95637 -18.95463 -14.34748 -14.26489 -14.21743
 Alpha  occ. eigenvalues --  -14.19624 -14.17152 -10.12498 -10.12314 -10.10183
 Alpha  occ. eigenvalues --  -10.09908 -10.09564 -10.09424 -10.09186 -10.08940
 Alpha  occ. eigenvalues --  -10.08915 -10.06955 -10.06943 -10.05790 -10.04728
 Alpha  occ. eigenvalues --   -1.03847  -0.93136  -0.86470  -0.85281  -0.81265
 Alpha  occ. eigenvalues --   -0.76287  -0.71149  -0.68477  -0.67726  -0.64489
 Alpha  occ. eigenvalues --   -0.62568  -0.60690  -0.57509  -0.56300  -0.51986
 Alpha  occ. eigenvalues --   -0.51103  -0.49239  -0.46923  -0.44969  -0.43314
 Alpha  occ. eigenvalues --   -0.40312  -0.39684  -0.38989  -0.37646  -0.37185
 Alpha  occ. eigenvalues --   -0.36531  -0.35998  -0.35102  -0.33611  -0.33155
 Alpha  occ. eigenvalues --   -0.32761  -0.32572  -0.31037  -0.30547  -0.29536
 Alpha  occ. eigenvalues --   -0.29159  -0.27882  -0.27585  -0.26779  -0.26186
 Alpha  occ. eigenvalues --   -0.25486  -0.24703  -0.24371  -0.23677  -0.20751
 Alpha  occ. eigenvalues --   -0.18961  -0.17154  -0.14225  -0.14017  -0.12977
 Alpha  occ. eigenvalues --   -0.10976  -0.10075  -0.09832   0.02384
 Alpha virt. eigenvalues --    0.05123   0.07051   0.07214   0.07410   0.08179
 Alpha virt. eigenvalues --    0.09216   0.09315   0.10034   0.10582   0.11071
 Alpha virt. eigenvalues --    0.11788   0.12133   0.12434   0.13135   0.13841

  Beta  occ. eigenvalues --  -18.95211 -18.95087 -14.34300 -14.26035 -14.21766
  Beta  occ. eigenvalues --  -14.19268 -14.17215 -10.12592 -10.12316 -10.10185
  Beta  occ. eigenvalues --  -10.09899 -10.09564 -10.09435 -10.09186 -10.08941
  Beta  occ. eigenvalues --  -10.08915 -10.06958 -10.06951 -10.05651 -10.04435
  Beta  occ. eigenvalues --   -1.03042  -0.92559  -0.85733  -0.85245  -0.81144
  Beta  occ. eigenvalues --   -0.76256  -0.70818  -0.68458  -0.67311  -0.64151
  Beta  occ. eigenvalues --   -0.62383  -0.60656  -0.57465  -0.55660  -0.51876
  Beta  occ. eigenvalues --   -0.50982  -0.49139  -0.46812  -0.44732  -0.43200
  Beta  occ. eigenvalues --   -0.40166  -0.39637  -0.38850  -0.37389  -0.36362
  Beta  occ. eigenvalues --   -0.36085  -0.35224  -0.34874  -0.33276  -0.32665
  Beta  occ. eigenvalues --   -0.32505  -0.31631  -0.30777  -0.30407  -0.29458
  Beta  occ. eigenvalues --   -0.29060  -0.27776  -0.27516  -0.26724  -0.26158
  Beta  occ. eigenvalues --   -0.25461  -0.24700  -0.24259  -0.23515  -0.19388
  Beta  occ. eigenvalues --   -0.18738  -0.16662  -0.13861  -0.12592  -0.11498
  Beta  occ. eigenvalues --   -0.10564  -0.09008  -0.08859
  Beta virt. eigenvalues --    0.05106   0.07034   0.07262   0.08137   0.08621
  Beta virt. eigenvalues --    0.09088   0.09307   0.09500   0.10017   0.10662
  Beta virt. eigenvalues --    0.11065   0.11776   0.12125   0.12476   0.13187

 Mulliken charges and spin densities:
               1          2
     1  C   -0.592791   0.014795
     2  C    0.777976  -0.024161
     3  C   -0.454031   0.002108
     4  C   -0.363906  -0.000064
     5  C   -0.650190  -0.024356
     6  C   -0.290558   0.034604
     7  N    0.134032  -0.000509
     8  C   -0.675337  -0.078779
     9  N   -0.000953   0.189496
    10  N    0.053591   0.132401
    11  C   -0.436787   0.018705
    12  N   -0.153236  -0.031152
    13  C    0.538321   0.023877
    14  C   -0.154871  -0.022225
    15  N   -0.602584   0.142052
    16  O   -0.141433   0.137848
    17  O   -0.040190   0.158461
    18  C   -0.160497   0.115739
    19  C    0.017825   0.229721
    20  C   -0.628604  -0.000697
    21  H    0.186088  -0.002124
    22  H    0.142590   0.000405
    23  H    0.171225  -0.001140
    24  H    0.156067   0.000463
    25  H    0.158859  -0.000714
    26  H    0.149331   0.000293
    27  H    0.135671  -0.000067
    28  H    0.165142  -0.000340
    29  H    0.146905   0.003649
    30  H    0.231193   0.006768
    31  H    0.307889  -0.000765
    32  H    0.212648   0.001148
    33  H    0.163131  -0.009606
    34  H    0.083878  -0.016408
    35  H    0.134817  -0.000291
    36  H    0.129240   0.000886
    37  H    0.149552  -0.000019
 Sum of Mulliken charges =  -1.00000   1.00000

 Dipole moment (field-independent basis, Debye):
    X=             15.1744    Y=              3.5000    Z=             -0.1202  Tot=             15.5733
 Quadrupole moment (field-independent basis, Debye-Ang):
   XX=           -186.0948   YY=           -151.4019   ZZ=           -127.1434
   XY=            -15.6457   XZ=              2.6961   YZ=              1.4924

 Summary of Natural Population Analysis:

                                       Natural Population
                Natural  -----------------------------------------------
    Atom  No    Charge         Core      Valence    Rydberg      Total
 -----------------------------------------------------------------------
      C    1   -0.28850      0.99963     2.28282    0.00605     3.28850
      C    2   -0.04521      0.99956     2.03657    0.00907     3.04521
      C    3   -0.19271      0.99960     2.18513    0.00798     3.19271
      C    4   -0.19685      0.99965     2.19070    0.00650     3.19685
      C    5   -0.19611      0.99963     2.18949    0.00698     3.19611
      C    6   -0.00205      0.99954     1.98928    0.01323     3.00205
      N    7   -0.32950      0.99966     2.81621    0.01363     3.82950
      C    8    0.17334      0.99957     1.81151    0.01558     2.82666
      N    9   -0.09730      0.99965     2.58709    0.01055     3.59730
      N   10   -0.03012      0.99956     2.51882    0.01174     3.53012
      C   11    0.15982      0.99958     1.82173    0.01887     2.84018
      N   12   -0.27614      0.99970     2.76552    0.01091     3.77614
      C   13   -0.01055      0.99958     1.99664    0.01433     3.01055
      C   14    0.09865      0.99946     1.88605    0.01585     2.90135
      N   15    0.27769      0.99969     2.19606    0.02656     3.22231
      O   16   -0.20993      0.99990     3.20217    0.00786     4.20993
      O   17   -0.17778      0.99990     3.16981    0.00807     4.17778
      C   18   -0.06904      0.99953     2.06120    0.00831     3.06904
      C   19   -0.08949      0.99953     2.08240    0.00755     3.08949
      C   20   -0.28653      0.99963     2.28104    0.00586     3.28653
      H   21    0.11267      0.00000     0.38642    0.00091     0.38733
      H   22    0.09477      0.00000     0.40440    0.00082     0.40523
      H   23    0.10532      0.00000     0.39380    0.00088     0.39468
      H   24    0.09856      0.00000     0.40058    0.00086     0.40144
      H   25    0.10186      0.00000     0.39706    0.00108     0.39814
      H   26    0.09913      0.00000     0.39990    0.00096     0.40087
      H   27    0.09334      0.00000     0.40554    0.00112     0.40666
      H   28    0.10670      0.00000     0.39224    0.00106     0.39330
      H   29    0.09788      0.00000     0.40131    0.00081     0.40212
      H   30    0.09998      0.00000     0.39885    0.00116     0.40002
      H   31    0.19102      0.00000     0.30723    0.00175     0.30898
      H   32    0.10085      0.00000     0.39793    0.00121     0.39915
      H   33    0.10042      0.00000     0.39826    0.00132     0.39958
      H   34    0.09208      0.00000     0.40656    0.00136     0.40792
      H   35    0.09768      0.00000     0.40143    0.00089     0.40232
      H   36    0.09637      0.00000     0.40288    0.00074     0.40363
      H   37    0.09968      0.00000     0.39950    0.00083     0.40032
 =======================================================================
   * Total *   -0.00000     19.99256    52.76417    0.24327    73.00000

 Normal termination of Gaussian 16 at Mon Dec 14 15:08:50 2020.
