 Gaussian 16, Revision A.03,

 -----------------------------------------------------------
 # opt freq B3LYP/6-31G(d) empiricaldispersion=gd3bj scf=xqc
 -----------------------------------------------------------

 ------------------------------
 CID_43124154_JID_4486_neutraal
 ------------------------------
 Symbolic Z-matrix:
 Charge =  0 Multiplicity = 1

 SCF Done:  E(RB3LYP) =  -607.301950012     A.U. after   15 cycles
 SCF Done:  E(RB3LYP) =  -607.304803794     A.U. after   12 cycles
 SCF Done:  E(RB3LYP) =  -607.305306851     A.U. after   11 cycles
 SCF Done:  E(RB3LYP) =  -607.305643052     A.U. after   12 cycles
 SCF Done:  E(RB3LYP) =  -607.306057555     A.U. after   14 cycles
 SCF Done:  E(RB3LYP) =  -607.306418836     A.U. after   11 cycles
 SCF Done:  E(RB3LYP) =  -607.307033402     A.U. after   12 cycles
 SCF Done:  E(RB3LYP) =  -607.307597222     A.U. after   15 cycles
 SCF Done:  E(RB3LYP) =  -607.307963912     A.U. after   15 cycles
 SCF Done:  E(RB3LYP) =  -607.308480729     A.U. after   11 cycles
 SCF Done:  E(RB3LYP) =  -607.310685207     A.U. after   10 cycles
 SCF Done:  E(RB3LYP) =  -607.310686258     A.U. after    9 cycles
 SCF Done:  E(RB3LYP) =  -607.310686298     A.U. after    6 cycles
 SCF Done:  E(RB3LYP) =  -607.310686316     A.U. after    7 cycles
 SCF Done:  E(RB3LYP) =  -607.310686318     A.U. after    6 cycles
 Optimization completed.
    -- Stationary point found.
 Normal termination of Gaussian 16 at Thu Dec 10 10:16:02 2020.

 --------------------------------------------------------------------
 #N Geom=AllCheck Guess=TCheck SCRF=Check GenChk RB3LYP/6-31G(d) Freq
 --------------------------------------------------------------------

 Structure from the checkpoint file:  "JID_4486.chk"
 ------------------------------
 CID_43124154_JID_4486_neutraal
 ------------------------------
 Charge =  0 Multiplicity = 1

 SCF Done:  E(RB3LYP) =  -607.310686318     A.U. after    1 cycles

  Exact polarizability: 167.327  10.501 109.551  11.663  -8.534  90.477
 Approx polarizability: 231.683  17.857 183.607  26.703 -18.154 153.795

                      1                      2                      3
                      A                      A                      A
 Frequencies --     33.3703                44.8186                61.0132
 Red. masses --      4.4456                 4.2036                 1.0866
 Frc consts  --      0.0029                 0.0050                 0.0024
 IR Inten    --      0.3612                 2.0667                 0.2218

                      4                      5                      6
                      A                      A                      A
 Frequencies --     79.4997               138.6696               172.5521
 Red. masses --      4.4136                 3.1514                 3.9507
 Frc consts  --      0.0164                 0.0357                 0.0693
 IR Inten    --      1.4716                 0.6758                 3.2099

                      7                      8                      9
                      A                      A                      A
 Frequencies --    194.7100               261.3153               273.8838
 Red. masses --      3.5336                 2.8524                 3.9714
 Frc consts  --      0.0789                 0.1148                 0.1755
 IR Inten    --      3.2919                 8.4864                 3.9689

                     10                     11                     12
                      A                      A                      A
 Frequencies --    313.8295               324.8326               391.4514
 Red. masses --      3.7619                 1.4483                 3.3871
 Frc consts  --      0.2183                 0.0900                 0.3058
 IR Inten    --      1.9498                44.8417                 3.4404

                     13                     14                     15
                      A                      A                      A
 Frequencies --    412.5693               458.3156               570.5335
 Red. masses --      3.2576                 4.1446                 4.2476
 Frc consts  --      0.3267                 0.5129                 0.8146
 IR Inten    --      2.4352                 2.2111                 0.6370

                     16                     17                     18
                      A                      A                      A
 Frequencies --    617.5781               625.9977               658.3462
 Red. masses --      4.4967                 5.0036                 6.3968
 Frc consts  --      1.0105                 1.1553                 1.6335
 IR Inten    --      4.0497                 7.7049                 2.0209

                     19                     20                     21
                      A                      A                      A
 Frequencies --    666.5504               716.3436               733.7143
 Red. masses --      4.7935                 3.7539                 1.9974
 Frc consts  --      1.2548                 1.1350                 0.6335
 IR Inten    --      7.6340                12.4445                23.3429

                     22                     23                     24
                      A                      A                      A
 Frequencies --    778.6909               819.3980               823.8424
 Red. masses --      2.5775                 1.6632                 1.9492
 Frc consts  --      0.9208                 0.6579                 0.7794
 IR Inten    --     16.2476                19.9854                17.4197

                     25                     26                     27
                      A                      A                      A
 Frequencies --    840.3815               875.0244               947.3256
 Red. masses --      2.2355                 1.3934                 1.3317
 Frc consts  --      0.9302                 0.6286                 0.7041
 IR Inten    --      9.2262                 9.7882                 2.6040

                     28                     29                     30
                      A                      A                      A
 Frequencies --    956.6974               970.6554               995.0627
 Red. masses --      2.3834                 1.4083                 1.3561
 Frc consts  --      1.2853                 0.7818                 0.7911
 IR Inten    --    189.6294                 2.0646                 1.7564

                     31                     32                     33
                      A                      A                      A
 Frequencies --   1009.3489              1034.4487              1046.4639
 Red. masses --      3.6025                 3.9850                 4.0781
 Frc consts  --      2.1624                 2.5124                 2.6312
 IR Inten    --     36.8844                 9.2282                13.9926

                     34                     35                     36
                      A                      A                      A
 Frequencies --   1075.0403              1080.3169              1097.9713
 Red. masses --      2.5949                 1.4940                 2.1930
 Frc consts  --      1.7670                 1.0273                 1.5577
 IR Inten    --      1.7534                 9.5503                17.3971

                     37                     38                     39
                      A                      A                      A
 Frequencies --   1147.4951              1158.7335              1176.2036
 Red. masses --      1.4678                 1.3423                 1.6986
 Frc consts  --      1.1387                 1.0619                 1.3846
 IR Inten    --      2.8910                14.8981                26.6773

                     40                     41                     42
                      A                      A                      A
 Frequencies --   1201.7666              1225.1000              1233.9259
 Red. masses --      1.4054                 1.8008                 1.4785
 Frc consts  --      1.1959                 1.5925                 1.3263
 IR Inten    --      1.7075                 3.2134                 5.9882

                     43                     44                     45
                      A                      A                      A
 Frequencies --   1251.1890              1293.0800              1337.9032
 Red. masses --      1.6718                 3.3283                 2.2145
 Frc consts  --      1.5420                 3.2788                 2.3355
 IR Inten    --      7.7083                18.5723                27.9333

                     46                     47                     48
                      A                      A                      A
 Frequencies --   1346.6681              1383.4470              1397.0164
 Red. masses --      3.4215                 1.8701                 1.4581
 Frc consts  --      3.6559                 2.1089                 1.6766
 IR Inten    --      3.7587                17.7811                 0.6278

                     49                     50                     51
                      A                      A                      A
 Frequencies --   1428.1720              1433.0717              1469.3311
 Red. masses --      2.4575                 3.0217                 1.7829
 Frc consts  --      2.9532                 3.6562                 2.2679
 IR Inten    --     10.6222                25.9266                21.1294

                     52                     53                     54
                      A                      A                      A
 Frequencies --   1475.8586              1492.4286              1509.6017
 Red. masses --      2.1659                 1.9950                 1.0605
 Frc consts  --      2.7796                 2.6180                 1.4239
 IR Inten    --     15.3572                12.8187                10.1156

                     55                     56                     57
                      A                      A                      A
 Frequencies --   1527.7991              1546.4714              1614.0008
 Red. masses --      2.1573                 1.1907                 4.9535
 Frc consts  --      2.9668                 1.6778                 7.6027
 IR Inten    --      9.2946                 5.4906                23.6655

                     58                     59                     60
                      A                      A                      A
 Frequencies --   1632.0045              1649.3840              1692.2473
 Red. masses --      5.1510                 5.6481                 1.1039
 Frc consts  --      8.0832                 9.0530                 1.8626
 IR Inten    --     14.5490                 4.3833                26.1565

                     61                     62                     63
                      A                      A                      A
 Frequencies --   3024.3524              3065.3330              3138.0113
 Red. masses --      1.0837                 1.0375                 1.0990
 Frc consts  --      5.8403                 5.7440                 6.3761
 IR Inten    --     25.6577                56.4651                15.9153

                     64                     65                     66
                      A                      A                      A
 Frequencies --   3151.2990              3170.6028              3173.5484
 Red. masses --      1.0894                 1.1057                 1.0890
 Frc consts  --      6.3741                 6.5491                 6.4617
 IR Inten    --     29.8819                 7.9623                18.3034

                     67                     68                     69
                      A                      A                      A
 Frequencies --   3189.6343              3210.7934              3259.1623
 Red. masses --      1.0891                 1.0964                 1.0958
 Frc consts  --      6.5283                 6.6596                 6.8582
 IR Inten    --     14.6866                19.1941                 5.0103

                     70                     71                     72
                      A                      A                      A
 Frequencies --   3292.8717              3451.5488              3540.0440
 Red. masses --      1.0977                 1.0498                 1.0920
 Frc consts  --      7.0124                 7.3687                 8.0628
 IR Inten    --      0.1757                 1.7372                 0.4583

 - Thermochemistry -
 -------------------
 Temperature   298.150 Kelvin.  Pressure   1.00000 Atm.
 Atom     1 has atomic number  6 and mass  12.00000

 Molecular mass:   188.10620 amu.
 Principal axes and moments of inertia in atomic units:
                           1         2         3
     Eigenvalues --  1043.295564908.383715360.47086
           X            0.99999   0.00371   0.00189
           Y           -0.00367   0.99979  -0.01995
           Z           -0.00197   0.01994   0.99980
 This molecule is an asymmetric top.
 Rotational symmetry number  1.
 Warning -- assumption of classical behavior for rotation
           may cause significant error
 Rotational temperatures (Kelvin)      0.08302     0.01765     0.01616
 Rotational constants (GHZ):           1.72985     0.36769     0.33668
 Zero-point vibrational energy     564581.5 (Joules/Mol)
                                  134.93823 (Kcal/Mol)
 Warning -- explicit consideration of  16 degrees of freedom as
           vibrations may cause significant error
 Vibrational temperatures:     48.01    64.48    87.78   114.38   199.51
          (Kelvin)            248.26   280.14   375.97   394.06   451.53
                              467.36   563.21   593.60   659.41   820.87
                              888.56   900.67   947.21   959.02  1030.66
                             1055.65  1120.36  1178.93  1185.33  1209.12
                             1258.97  1362.99  1376.47  1396.56  1431.67
                             1452.23  1488.34  1505.63  1546.74  1554.34
                             1579.74  1650.99  1667.16  1692.29  1729.07
                             1762.65  1775.34  1800.18  1860.45  1924.94
                             1937.56  1990.47  2010.00  2054.82  2061.87
                             2114.04  2123.43  2147.27  2171.98  2198.16
                             2225.03  2322.19  2348.09  2373.10  2434.77
                             4351.37  4410.33  4514.90  4534.02  4561.79
                             4566.03  4589.17  4619.62  4689.21  4737.71
                             4966.01  5093.33

 Zero-point correction=                           0.215038 (Hartree/Particle)
 Thermal correction to Energy=                    0.227457
 Thermal correction to Enthalpy=                  0.228401
 Thermal correction to Gibbs Free Energy=         0.174638
 Sum of electronic and zero-point Energies=           -607.095649
 Sum of electronic and thermal Energies=              -607.083229
 Sum of electronic and thermal Enthalpies=            -607.082285
 Sum of electronic and thermal Free Energies=         -607.136048

                     E (Thermal)             CV                S
                      KCal/Mol        Cal/Mol-Kelvin    Cal/Mol-Kelvin
 Total                  142.731             46.453            113.153
 Electronic               0.000              0.000              0.000
 Translational            0.889              2.981             41.601
 Rotational               0.889              2.981             31.685
 Vibrational            140.954             40.492             39.867
 Vibration     1          0.594              1.983              5.618
 Vibration     2          0.595              1.979              5.034
 Vibration     3          0.597              1.973              4.424
 Vibration     4          0.600              1.963              3.903
 Vibration     5          0.614              1.915              2.822
 Vibration     6          0.626              1.876              2.408
 Vibration     7          0.635              1.847              2.183
 Vibration     8          0.669              1.744              1.653
 Vibration     9          0.676              1.722              1.572
 Vibration    10          0.702              1.647              1.342
 Vibration    11          0.709              1.626              1.286
 Vibration    12          0.759              1.488              0.995
 Vibration    13          0.776              1.443              0.918
 Vibration    14          0.816              1.342              0.771
 Vibration    15          0.927              1.095              0.503
 Vibration    16          0.977              0.995              0.420

 Optimization completed.
    -- Stationary point found.
 Normal termination of Gaussian 16 at Thu Dec 10 10:23:32 2020.

 ----------------------------------------------------------------------
 # B3LYP/6-311++G(d,p) empiricaldispersion=gd3bj scf=xqc pop=npa geom=c
 heck
 ----------------------------------------------------------------------

 --------------------------------------
 CID_43124154_JID_4486_Energie_neutraal
 --------------------------------------
 Structure from the checkpoint file:  "JID_4486.chk"
 Charge =  0 Multiplicity = 1

 SCF Done:  E(RB3LYP) =  -607.476881726     A.U. after   15 cycles
 Normal termination of Gaussian 16 at Thu Dec 10 10:26:53 2020.

 ----------------------------------------------------------------------
 # B3LYP/6-311++G(d,p) empiricaldispersion=gd3bj scf=xqc pop=npa geom=c
 heck
 ----------------------------------------------------------------------

 ------------------------------------
 CID_43124154_JID_4486_Energie_kation
 ------------------------------------
 Structure from the checkpoint file:  "JID_4486.chk"
 Charge =  1 Multiplicity = 2

 SCF Done:  E(UB3LYP) =  -607.168006971     A.U. after   32 cycles
 Normal termination of Gaussian 16 at Thu Dec 10 10:36:40 2020.
 Gaussian 16:  ES64L-G16RevA.03 25-Dec-2016

 ----------------------------------------------------------------------
 # B3LYP/6-311++G(d,p) empiricaldispersion=gd3bj scf=xqc pop=npa geom=c
 heck
 ----------------------------------------------------------------------

 -----------------------------------
 CID_43124154_JID_4486_Energie_anion
 -----------------------------------
 Structure from the checkpoint file:  "JID_4486.chk"
 Charge = -1 Multiplicity = 2

                         Standard orientation:
 ---------------------------------------------------------------------
 Center     Atomic      Atomic             Coordinates (Angstroms)
 Number     Number       Type             X           Y           Z
 ---------------------------------------------------------------------
      1          6           0        4.553890   -0.442412    0.302123
      2          7           0        3.154800   -0.328603   -0.054918
      3          6           0        2.328608    0.733878    0.133563
      4          6           0        1.065716    0.341435   -0.279770
      5          6           0        1.244087   -0.999051   -0.700084
      6          7           0        2.507117   -1.403879   -0.559321
      7          6           0       -0.175229    1.191926   -0.305275
      8          6           0       -1.445488    0.374536   -0.116942
      9          6           0       -2.550550    0.567129   -0.951285
     10          7           0       -3.724727   -0.061248   -0.815782
     11          6           0       -3.835323   -0.934259    0.191137
     12          6           0       -2.797865   -1.213936    1.084000
     13          6           0       -1.586212   -0.549492    0.924510
     14          7           0       -0.027342    2.281667    0.682527
     15          1           0        4.675006   -0.976602    1.250796
     16          1           0        5.075379   -0.991430   -0.484234
     17          1           0        4.980585    0.558743    0.393740
     18          1           0        2.676287    1.676367    0.528415
     19          1           0        0.503035   -1.678534   -1.099731
     20          1           0       -0.251124    1.687917   -1.283165
     21          1           0       -2.480249    1.270573   -1.781549
     22          1           0       -4.796047   -1.437068    0.286920
     23          1           0       -2.939445   -1.940006    1.878957
     24          1           0       -0.748876   -0.751128    1.587666
     25          1           0       -0.856377    2.874315    0.645292
     26          1           0       -0.016920    1.872751    1.617486
 ---------------------------------------------------------------------

 SCF Done:  E(UB3LYP) =  -607.468250336     A.U. after   33 cycles
 SCF Done:  E(UB3LYP) =  -607.468250336     a.u. after    1 cycles

 The electronic state is 2-A.
 Alpha  occ. eigenvalues --  -14.28374 -14.22172 -14.19731 -14.18079 -10.11008
 Alpha  occ. eigenvalues --  -10.10526 -10.09543 -10.08781 -10.08445 -10.08168
 Alpha  occ. eigenvalues --  -10.06643 -10.06636 -10.06486 -10.05838  -0.94423
 Alpha  occ. eigenvalues --   -0.82410  -0.79428  -0.73677  -0.69144  -0.68043
 Alpha  occ. eigenvalues --   -0.65232  -0.60578  -0.56271  -0.51710  -0.50574
 Alpha  occ. eigenvalues --   -0.47059  -0.46388  -0.42326  -0.40951  -0.39001
 Alpha  occ. eigenvalues --   -0.37191  -0.36136  -0.35785  -0.33555  -0.33455
 Alpha  occ. eigenvalues --   -0.31557  -0.30549  -0.29178  -0.28758  -0.28532
 Alpha  occ. eigenvalues --   -0.27922  -0.27048  -0.25296  -0.19113  -0.18150
 Alpha  occ. eigenvalues --   -0.16413  -0.15048  -0.14470  -0.13669  -0.13293
 Alpha  occ. eigenvalues --    0.04571
 Alpha virt. eigenvalues --    0.06001   0.07445   0.08077   0.08779   0.09139
 Alpha virt. eigenvalues --    0.09203   0.09989   0.10168   0.11103   0.11537
 Alpha virt. eigenvalues --    0.12030   0.12236   0.13104   0.13773   0.14857

  Beta  occ. eigenvalues --  -14.28360 -14.22160 -14.19702 -14.17784 -10.11007
  Beta  occ. eigenvalues --  -10.10470 -10.09520 -10.08789 -10.08356 -10.08170
  Beta  occ. eigenvalues --  -10.06675 -10.06608 -10.06485 -10.05558  -0.94400
  Beta  occ. eigenvalues --   -0.82030  -0.79342  -0.73646  -0.68903  -0.67868
  Beta  occ. eigenvalues --   -0.65070  -0.60496  -0.56163  -0.51398  -0.50463
  Beta  occ. eigenvalues --   -0.46977  -0.46336  -0.42253  -0.40846  -0.38910
  Beta  occ. eigenvalues --   -0.37131  -0.36009  -0.35672  -0.33488  -0.33416
  Beta  occ. eigenvalues --   -0.31491  -0.30488  -0.29042  -0.28652  -0.28425
  Beta  occ. eigenvalues --   -0.27326  -0.26922  -0.25176  -0.19057  -0.17297
  Beta  occ. eigenvalues --   -0.15849  -0.14982  -0.14119  -0.13392  -0.13115
  Beta virt. eigenvalues --    0.07083   0.07722   0.08123   0.08533   0.08991
  Beta virt. eigenvalues --    0.09366   0.09780   0.10044   0.10563   0.11159
  Beta virt. eigenvalues --    0.11839   0.12055   0.12464   0.13563   0.13849

 Mulliken charges and spin densities:
               1          2
     1  C    1.502696  -1.808771
     2  N    0.066758   0.105919
     3  C    0.237832  -0.263405
     4  C   -0.256219   0.473407
     5  C    0.118574  -0.229125
     6  N   -0.424881   0.248959
     7  C   -0.490767  -1.344956
     8  C    0.835135   0.642511
     9  C   -0.392802   0.184499
    10  N   -0.084460   0.126338
    11  C   -0.368115   0.007811
    12  C   -0.136644  -0.120130
    13  C   -0.553559   0.167153
    14  N   -0.364805   0.028218
    15  H   -0.306930   0.480995
    16  H   -0.290057   0.455167
    17  H   -0.813030   0.971569
    18  H   -0.377857   0.590286
    19  H    0.173132  -0.009796
    20  H    0.186396   0.002569
    21  H    0.098079   0.048445
    22  H    0.124762   0.000791
    23  H    0.097114   0.054470
    24  H    0.119697   0.020255
    25  H    0.147392   0.086277
    26  H    0.152558   0.080547
 Sum of Mulliken charges =  -1.00000   1.00000

 Dipole moment (field-independent basis, Debye):
    X=             -5.9446    Y=             -0.8926    Z=              0.3109  Tot=              6.0193
 Quadrupole moment (field-independent basis, Debye-Ang):
   XX=           -186.6135   YY=           -111.0166   ZZ=           -101.0616
   XY=             -2.5982   XZ=             -9.6183   YZ=             -3.8342

 Summary of Natural Population Analysis:

                                       Natural Population
                Natural  -----------------------------------------------
    Atom  No    Charge         Core      Valence    Rydberg      Total
 -----------------------------------------------------------------------
      C    1   -0.17086      0.99964     2.16276    0.00846     3.17086
      N    2   -0.10454      0.99967     2.59168    0.01320     3.60454
      C    3   -0.00090      0.99949     1.98976    0.01165     3.00090
      C    4   -0.07755      0.99951     2.06704    0.01100     3.07755
      C    5   -0.01147      0.99958     1.99799    0.01390     3.01147
      N    6   -0.15639      0.99973     2.64470    0.01196     3.65639
      C    7   -0.02508      0.99953     2.01205    0.01350     3.02508
      C    8   -0.03904      0.99949     2.02952    0.01004     3.03904
      C    9    0.01681      0.99953     1.96489    0.01877     2.98319
      N   10   -0.20134      0.99971     2.69089    0.01074     3.70134
      C   11    0.03267      0.99960     1.95313    0.01460     2.96733
      C   12   -0.13219      0.99957     2.12330    0.00933     3.13219
      C   13   -0.04051      0.99952     2.03294    0.00806     3.04051
      N   14   -0.41372      0.99978     2.90433    0.00962     3.91372
      H   15    0.09730      0.00000     0.40127    0.00143     0.40270
      H   16    0.10452      0.00000     0.39364    0.00184     0.39548
      H   17    0.10438      0.00000     0.39171    0.00391     0.39562
      H   18    0.11278      0.00000     0.38580    0.00141     0.38722
      H   19    0.10139      0.00000     0.39776    0.00085     0.39861
      H   20    0.09678      0.00000     0.40139    0.00184     0.40322
      H   21    0.08345      0.00000     0.41475    0.00180     0.41655
      H   22    0.08187      0.00000     0.41684    0.00129     0.41813
      H   23    0.09733      0.00000     0.40166    0.00101     0.40267
      H   24    0.09774      0.00000     0.40082    0.00143     0.40226
      H   25    0.17490      0.00000     0.32357    0.00152     0.32510
      H   26    0.17168      0.00000     0.32647    0.00185     0.32832
 =======================================================================
   * Total *   -0.00000     13.99435    35.82065    0.18500    50.00000

 Normal termination of Gaussian 16 at Thu Dec 10 10:47:28 2020.
