 Gaussian 16, Revision A.03,

 -----------------------------------------------------------
 # opt freq B3LYP/6-31G(d) empiricaldispersion=gd3bj scf=xqc
 -----------------------------------------------------------

 ------------------------------
 CID_63310731_JID_6171_neutraal
 ------------------------------
 Symbolic Z-matrix:
 Charge =  0 Multiplicity = 1

 SCF Done:  E(RB3LYP) =  -1048.43004293     A.U. after   14 cycles
 SCF Done:  E(RB3LYP) =  -1048.43684309     A.U. after   12 cycles
 SCF Done:  E(RB3LYP) =  -1048.43239496     A.U. after   14 cycles
 SCF Done:  E(RB3LYP) =  -1048.43770980     A.U. after   12 cycles
 SCF Done:  E(RB3LYP) =  -1048.44010846     A.U. after   12 cycles
 SCF Done:  E(RB3LYP) =  -1048.44093754     A.U. after   12 cycles
 SCF Done:  E(RB3LYP) =  -1048.44105354     A.U. after   12 cycles
 SCF Done:  E(RB3LYP) =  -1048.44134110     A.U. after   11 cycles
 SCF Done:  E(RB3LYP) =  -1048.44145864     A.U. after   12 cycles
 SCF Done:  E(RB3LYP) =  -1048.44151554     A.U. after   10 cycles
 SCF Done:  E(RB3LYP) =  -1048.44170398     A.U. after    9 cycles
 SCF Done:  E(RB3LYP) =  -1048.44170688     A.U. after   10 cycles
 SCF Done:  E(RB3LYP) =  -1048.44170723     A.U. after    8 cycles
 SCF Done:  E(RB3LYP) =  -1048.44170755     A.U. after    8 cycles
 SCF Done:  E(RB3LYP) =  -1048.44170765     A.U. after    7 cycles
 SCF Done:  E(RB3LYP) =  -1048.44170767     A.U. after    7 cycles
 Optimization completed.
    -- Stationary point found.
 Normal termination of Gaussian 16 at Thu Dec 10 21:27:01 2020.

 --------------------------------------------------------------------
 #N Geom=AllCheck Guess=TCheck SCRF=Check GenChk RB3LYP/6-31G(d) Freq
 --------------------------------------------------------------------

 Structure from the checkpoint file:  "JID_6171.chk"
 ------------------------------
 CID_63310731_JID_6171_neutraal
 ------------------------------
 Charge =  0 Multiplicity = 1

 SCF Done:  E(RB3LYP) =  -1048.44170767     A.U. after    1 cycles

  Exact polarizability: 154.723 -13.720 157.666 -10.012   0.710 135.497
 Approx polarizability: 205.778 -25.185 234.599 -19.471   1.923 228.221

                      1                      2                      3
                      A                      A                      A
 Frequencies --     27.6946                48.3530                53.1778
 Red. masses --      4.8100                 3.9199                 3.7870
 Frc consts  --      0.0022                 0.0054                 0.0063
 IR Inten    --      0.6210                 0.4426                 0.0661

                      4                      5                      6
                      A                      A                      A
 Frequencies --     72.5445                88.8984               109.9812
 Red. masses --      5.0275                 4.6331                 4.4153
 Frc consts  --      0.0156                 0.0216                 0.0315
 IR Inten    --      0.4421                 3.1510                 0.2703

                      7                      8                      9
                      A                      A                      A
 Frequencies --    133.8697               162.8469               195.5004
 Red. masses --      4.0761                 2.4385                 2.4312
 Frc consts  --      0.0430                 0.0381                 0.0547
 IR Inten    --      1.1200                 1.5369                 3.6278

                     10                     11                     12
                      A                      A                      A
 Frequencies --    206.7205               254.0563               262.9836
 Red. masses --      1.4536                 1.2605                 1.9642
 Frc consts  --      0.0366                 0.0479                 0.0800
 IR Inten    --      2.9847                30.4866                13.5972

                     13                     14                     15
                      A                      A                      A
 Frequencies --    284.0186               321.5669               370.5363
 Red. masses --      2.5303                 3.8588                 2.3451
 Frc consts  --      0.1203                 0.2351                 0.1897
 IR Inten    --     12.0587                14.5148                 0.8709

                     16                     17                     18
                      A                      A                      A
 Frequencies --    376.3932               403.2608               441.0454
 Red. masses --      2.3866                 2.8971                 2.1965
 Frc consts  --      0.1992                 0.2776                 0.2517
 IR Inten    --      4.5732                 3.5876                 2.0417

                     19                     20                     21
                      A                      A                      A
 Frequencies --    452.4060               470.7913               527.7171
 Red. masses --      2.2389                 2.3923                 4.7211
 Frc consts  --      0.2700                 0.3124                 0.7746
 IR Inten    --      1.2789                 2.5164                 0.2051

                     22                     23                     24
                      A                      A                      A
 Frequencies --    557.9926               604.0405               639.6674
 Red. masses --      2.6956                 5.1066                 4.1410
 Frc consts  --      0.4945                 1.0978                 0.9983
 IR Inten    --      6.0459                 9.7422                 6.4677

                     25                     26                     27
                      A                      A                      A
 Frequencies --    664.9393               677.2097               686.9528
 Red. masses --      4.2064                 2.6442                 3.3576
 Frc consts  --      1.0958                 0.7145                 0.9335
 IR Inten    --     20.3939                64.3328                 2.4072

                     28                     29                     30
                      A                      A                      A
 Frequencies --    707.1856               732.5821               744.6173
 Red. masses --      3.5959                 1.2151                 3.2404
 Frc consts  --      1.0596                 0.3842                 1.0586
 IR Inten    --     11.1260                34.4576                14.8280

                     31                     32                     33
                      A                      A                      A
 Frequencies --    783.8677               786.7530               815.6817
 Red. masses --      1.8536                 2.1726                 1.7604
 Frc consts  --      0.6711                 0.7923                 0.6901
 IR Inten    --    130.0331                73.3134                 2.2595

                     34                     35                     36
                      A                      A                      A
 Frequencies --    817.3697               865.9978               879.1582
 Red. masses --      1.3832                 2.5103                 2.4826
 Frc consts  --      0.5445                 1.1092                 1.1305
 IR Inten    --      2.6353                 4.0294                 3.2304

                     37                     38                     39
                      A                      A                      A
 Frequencies --    900.6848               924.1546               977.9380
 Red. masses --      2.0617                 1.7391                 2.1044
 Frc consts  --      0.9854                 0.8751                 1.1858
 IR Inten    --      6.5550                 3.1341                 1.8354

                     40                     41                     42
                      A                      A                      A
 Frequencies --    997.6324              1006.8396              1022.9832
 Red. masses --      1.8100                 2.9246                 3.2190
 Frc consts  --      1.0614                 1.7468                 1.9848
 IR Inten    --     14.5089                 6.2454                11.1599

                     43                     44                     45
                      A                      A                      A
 Frequencies --   1035.8192              1044.4678              1066.7467
 Red. masses --      2.1266                 1.7789                 1.5010
 Frc consts  --      1.3443                 1.1434                 1.0064
 IR Inten    --      4.7719                19.8572                 4.3504

                     46                     47                     48
                      A                      A                      A
 Frequencies --   1077.9391              1087.5263              1101.7658
 Red. masses --      1.2893                 1.7808                 2.3327
 Frc consts  --      0.8827                 1.2409                 1.6684
 IR Inten    --     14.5719                23.8834                 6.0399

                     49                     50                     51
                      A                      A                      A
 Frequencies --   1127.8403              1141.4098              1152.7359
 Red. masses --      1.2235                 1.5030                 1.3271
 Frc consts  --      0.9170                 1.1537                 1.0390
 IR Inten    --      3.4304                 3.2286                 9.1532

                     52                     53                     54
                      A                      A                      A
 Frequencies --   1168.9108              1175.6594              1220.9235
 Red. masses --      1.7520                 1.5764                 1.4168
 Frc consts  --      1.4104                 1.2838                 1.2443
 IR Inten    --     13.7203                 6.1357                 5.8180

                     55                     56                     57
                      A                      A                      A
 Frequencies --   1238.9942              1252.9754              1272.3365
 Red. masses --      1.4148                 1.4723                 1.6141
 Frc consts  --      1.2796                 1.3619                 1.5396
 IR Inten    --      0.5443                11.6722                10.1708

                     58                     59                     60
                      A                      A                      A
 Frequencies --   1287.0019              1315.9853              1324.1880
 Red. masses --      1.6134                 1.4476                 1.3499
 Frc consts  --      1.5745                 1.4771                 1.3946
 IR Inten    --     49.7482                13.7882                 1.0794

                     61                     62                     63
                      A                      A                      A
 Frequencies --   1335.4350              1344.6895              1366.5791
 Red. masses --      2.1698                 1.7897                 1.4795
 Frc consts  --      2.2799                 1.9067                 1.6279
 IR Inten    --     17.2739                 6.0951                 4.6444

                     64                     65                     66
                      A                      A                      A
 Frequencies --   1380.0811              1391.0083              1400.8172
 Red. masses --      1.3977                 1.4112                 1.4721
 Frc consts  --      1.5684                 1.6088                 1.7019
 IR Inten    --      6.1860                37.1128                12.3759

                     67                     68                     69
                      A                      A                      A
 Frequencies --   1421.7174              1424.4454              1449.9809
 Red. masses --      1.4643                 1.5315                 2.4461
 Frc consts  --      1.7438                 1.8309                 3.0301
 IR Inten    --     20.7101                16.8499                 5.5901

                     70                     71                     72
                      A                      A                      A
 Frequencies --   1482.7870              1486.8767              1501.6358
 Red. masses --      3.6985                 1.1751                 1.0851
 Frc consts  --      4.7911                 1.5307                 1.4416
 IR Inten    --     37.2018                 2.6176                 5.1284

                     73                     74                     75
                      A                      A                      A
 Frequencies --   1507.7935              1513.4615              1519.7490
 Red. masses --      1.0932                 1.0805                 1.1083
 Frc consts  --      1.4643                 1.4582                 1.5082
 IR Inten    --      6.6631                 9.7402                 6.2017

                     76                     77                     78
                      A                      A                      A
 Frequencies --   1532.5062              1538.5357              1543.0423
 Red. masses --      1.1334                 1.0681                 1.1089
 Frc consts  --      1.5684                 1.4897                 1.5556
 IR Inten    --     13.7221                10.5204                13.8815

                     79                     80                     81
                      A                      A                      A
 Frequencies --   1546.5794              1551.9593              1606.2214
 Red. masses --      3.0178                 1.1308                 3.9266
 Frc consts  --      4.2529                 1.6048                 5.9687
 IR Inten    --     55.0955                 5.6902               115.6656

                     82                     83                     84
                      A                      A                      A
 Frequencies --   1682.8338              2931.5041              2938.7561
 Red. masses --      1.2585                 1.0727                 1.0707
 Frc consts  --      2.0998                 5.4314                 5.4482
 IR Inten    --    118.1713                35.3729               139.1699

                     85                     86                     87
                      A                      A                      A
 Frequencies --   3032.4228              3035.3337              3060.0473
 Red. masses --      1.0745                 1.0700                 1.0646
 Frc consts  --      5.8217                 5.8085                 5.8732
 IR Inten    --     29.7660                50.7174                55.3209

                     88                     89                     90
                      A                      A                      A
 Frequencies --   3079.5843              3086.2798              3091.2850
 Red. masses --      1.0695                 1.0685                 1.0706
 Frc consts  --      5.9761                 5.9967                 6.0279
 IR Inten    --      9.0449                56.1480                15.1918

                     91                     92                     93
                      A                      A                      A
 Frequencies --   3092.9613              3096.2383              3117.3948
 Red. masses --      1.0566                 1.0980                 1.0955
 Frc consts  --      5.9553                 6.2020                 6.2725
 IR Inten    --     24.0074                 4.3774                35.2206

                     94                     95                     96
                      A                      A                      A
 Frequencies --   3128.5165              3142.0125              3148.9043
 Red. masses --      1.1030                 1.1014                 1.1038
 Frc consts  --      6.3607                 6.4062                 6.4487
 IR Inten    --     26.5318                 2.7681                24.0362

                     97                     98                     99
                      A                      A                      A
 Frequencies --   3162.6997              3172.9727              3263.2319
 Red. masses --      1.0953                 1.0873                 1.0912
 Frc consts  --      6.4553                 6.4495                 6.8459
 IR Inten    --     17.2024                14.3213                 2.7406

                    100                    101                    102
                      A                      A                      A
 Frequencies --   3282.3974              3529.6069              3627.9709
 Red. masses --      1.1040                 1.0481                 1.0965
 Frc consts  --      7.0083                 7.6933                 8.5034
 IR Inten    --      1.4109                 8.2607                 9.6069

 - Thermochemistry -
 -------------------
 Temperature   298.150 Kelvin.  Pressure   1.00000 Atm.
 Atom     1 has atomic number  6 and mass  12.00000

 Molecular mass:   240.14087 amu.
 Principal axes and moments of inertia in atomic units:
                           1         2         3
     Eigenvalues --  2498.151825538.528676760.51109
           X            0.99970  -0.02394  -0.00584
           Y            0.02394   0.99971  -0.00107
           Z            0.00587   0.00093   0.99998
 This molecule is an asymmetric top.
 Rotational symmetry number  1.
 Warning -- assumption of classical behavior for rotation
           may cause significant error
 Rotational temperatures (Kelvin)      0.03467     0.01564     0.01281
 Rotational constants (GHZ):           0.72243     0.32585     0.26695
 Zero-point vibrational energy     829614.4 (Joules/Mol)
                                  198.28259 (Kcal/Mol)
 Warning -- explicit consideration of  23 degrees of freedom as
           vibrations may cause significant error
 Vibrational temperatures:     39.85    69.57    76.51   104.38   127.90
          (Kelvin)            158.24   192.61   234.30   281.28   297.42
                              365.53   378.37   408.64   462.66   533.12
                              541.55   580.20   634.57   650.91   677.36
                              759.27   802.83   869.08   920.34   956.70
                              974.35   988.37  1017.48  1054.02  1071.34
                             1127.81  1131.96  1173.58  1176.01  1245.98
                             1264.91  1295.88  1329.65  1407.03  1435.37
                             1448.62  1471.84  1490.31  1502.76  1534.81
                             1550.91  1564.71  1585.20  1622.71  1642.23
                             1658.53  1681.80  1691.51  1756.64  1782.64
                             1802.75  1830.61  1851.71  1893.41  1905.21
                             1921.39  1934.71  1966.20  1985.63  2001.35
                             2015.46  2045.53  2049.46  2086.20  2133.40
                             2139.28  2160.52  2169.38  2177.53  2186.58
                             2204.93  2213.61  2220.09  2225.18  2232.92
                             2310.99  2421.22  4217.78  4228.21  4362.98
                             4367.17  4402.73  4430.83  4440.47  4447.67
                             4450.08  4454.80  4485.24  4501.24  4520.66
                             4530.57  4550.42  4565.20  4695.06  4722.64
                             5078.32  5219.84

 Zero-point correction=                           0.315983 (Hartree/Particle)
 Thermal correction to Energy=                    0.332106
 Thermal correction to Enthalpy=                  0.333050
 Thermal correction to Gibbs Free Energy=         0.271364
 Sum of electronic and zero-point Energies=          -1048.125724
 Sum of electronic and thermal Energies=             -1048.109602
 Sum of electronic and thermal Enthalpies=           -1048.108658
 Sum of electronic and thermal Free Energies=        -1048.170344

                     E (Thermal)             CV                S
                      KCal/Mol        Cal/Mol-Kelvin    Cal/Mol-Kelvin
 Total                  208.400             62.064            129.829
 Electronic               0.000              0.000              0.000
 Translational            0.889              2.981             42.329
 Rotational               0.889              2.981             32.903
 Vibrational            206.622             56.102             54.597
 Vibration     1          0.593              1.984              5.988
 Vibration     2          0.595              1.978              4.884
 Vibration     3          0.596              1.976              4.696
 Vibration     4          0.599              1.967              4.083
 Vibration     5          0.602              1.957              3.684
 Vibration     6          0.606              1.941              3.269
 Vibration     7          0.613              1.920              2.890
 Vibration     8          0.623              1.888              2.516
 Vibration     9          0.636              1.846              2.175
 Vibration    10          0.641              1.830              2.072
 Vibration    11          0.665              1.756              1.702
 Vibration    12          0.670              1.741              1.642
 Vibration    13          0.682              1.703              1.509
 Vibration    14          0.707              1.632              1.302
 Vibration    15          0.743              1.533              1.078
 Vibration    16          0.747              1.520              1.054
 Vibration    17          0.769              1.463              0.951
 Vibration    18          0.801              1.381              0.823
 Vibration    19          0.811              1.356              0.789
 Vibration    20          0.828              1.315              0.735
 Vibration    21          0.883              1.189              0.592
 Vibration    22          0.914              1.122              0.528
 Vibration    23          0.963              1.023              0.443

 Optimization completed.
    -- Stationary point found.
 Normal termination of Gaussian 16 at Thu Dec 10 21:41:29 2020.

 ----------------------------------------------------------------------
 # B3LYP/6-311++G(d,p) empiricaldispersion=gd3bj scf=xqc pop=npa geom=c
 heck
 ----------------------------------------------------------------------

 --------------------------------------
 CID_63310731_JID_6171_Energie_neutraal
 --------------------------------------
 Structure from the checkpoint file:  "JID_6171.chk"
 Charge =  0 Multiplicity = 1

 SCF Done:  E(RB3LYP) =  -1048.65183478     A.U. after   14 cycles
 Normal termination of Gaussian 16 at Thu Dec 10 21:48:40 2020.

 ----------------------------------------------------------------------
 # B3LYP/6-311++G(d,p) empiricaldispersion=gd3bj scf=xqc pop=npa geom=c
 heck
 ----------------------------------------------------------------------

 ------------------------------------
 CID_63310731_JID_6171_Energie_kation
 ------------------------------------
 Structure from the checkpoint file:  "JID_6171.chk"
 Charge =  1 Multiplicity = 2

 SCF Done:  E(UB3LYP) =  -1048.38754564     A.U. after   25 cycles
 Normal termination of Gaussian 16 at Thu Dec 10 22:06:30 2020.
 Gaussian 16:  ES64L-G16RevA.03 25-Dec-2016

 ----------------------------------------------------------------------
 # B3LYP/6-311++G(d,p) empiricaldispersion=gd3bj scf=xqc pop=npa geom=c
 heck
 ----------------------------------------------------------------------

 -----------------------------------
 CID_63310731_JID_6171_Energie_anion
 -----------------------------------
 Structure from the checkpoint file:  "JID_6171.chk"
 Charge = -1 Multiplicity = 2

                         Standard orientation:
 ---------------------------------------------------------------------
 Center     Atomic      Atomic             Coordinates (Angstroms)
 Number     Number       Type             X           Y           Z
 ---------------------------------------------------------------------
      1          6           0       -2.186681    2.311752   -0.006585
      2          7           0       -1.470536    1.121047   -0.429081
      3          6           0       -0.300910    1.433282   -1.249369
      4          6           0        0.757004    2.407721   -0.692891
      5          6           0        1.440712    2.012444    0.617336
      6          7           0        2.008362    0.674388    0.586426
      7          6           0        2.094773   -0.212964    1.606682
      8          6           0        2.798667   -1.308651    1.143780
      9          6           0        3.114762   -0.977648   -0.199176
     10          7           0        2.651303    0.229682   -0.532080
     11          7           0        3.753201   -1.780575   -1.146958
     12          6           0       -1.341233    0.081444    0.593114
     13          6           0       -0.759460   -1.223642    0.024055
     14          6           0       -1.802771   -1.789732   -0.941510
     15         16           0       -3.441471   -1.498774   -0.132963
     16          6           0       -2.713445   -0.366345    1.130848
     17          1           0       -2.168082    3.043617   -0.820181
     18          1           0       -1.761220    2.798819    0.892505
     19          1           0       -3.237446    2.090391    0.197644
     20          1           0        0.198646    0.508074   -1.532539
     21          1           0       -0.675081    1.875749   -2.182777
     22          1           0        1.525507    2.524089   -1.464522
     23          1           0        0.315500    3.399630   -0.534749
     24          1           0        2.233224    2.739182    0.841340
     25          1           0        0.732285    2.033798    1.450212
     26          1           0        1.646525   -0.007627    2.568557
     27          1           0        3.024878   -2.220409    1.676637
     28          1           0        4.531903   -2.305467   -0.765152
     29          1           0        4.051183   -1.238104   -1.951093
     30          1           0       -0.739624    0.417438    1.458847
     31          1           0       -0.612185   -1.914259    0.861111
     32          1           0        0.214212   -1.102460   -0.453170
     33          1           0       -1.782213   -1.264633   -1.899182
     34          1           0       -1.667562   -2.859751   -1.115092
     35          1           0       -2.565351   -0.907788    2.070006
     36          1           0       -3.406392    0.452339    1.323154
 ---------------------------------------------------------------------

 SCF Done:  E(UB3LYP) =  -1048.64122808     A.U. after   32 cycles

 The electronic state is 2-A.
 Alpha  occ. eigenvalues --  -88.73840 -14.28479 -14.21908 -14.21866 -14.21015
 Alpha  occ. eigenvalues --  -10.12727 -10.11740 -10.11605 -10.10782 -10.10260
 Alpha  occ. eigenvalues --  -10.10211 -10.09731 -10.09349 -10.07918 -10.07560
 Alpha  occ. eigenvalues --  -10.06399  -7.82454  -5.78850  -5.78506  -5.77806
 Alpha  occ. eigenvalues --   -0.94865  -0.83528  -0.81869  -0.74228  -0.73132
 Alpha  occ. eigenvalues --   -0.69240  -0.65981  -0.63472  -0.62878  -0.59961
 Alpha  occ. eigenvalues --   -0.56045  -0.51528  -0.50876  -0.48589  -0.46803
 Alpha  occ. eigenvalues --   -0.45338  -0.43187  -0.41471  -0.40728  -0.39821
 Alpha  occ. eigenvalues --   -0.37722  -0.37097  -0.35911  -0.35249  -0.34749
 Alpha  occ. eigenvalues --   -0.33311  -0.32286  -0.31237  -0.30626  -0.30059
 Alpha  occ. eigenvalues --   -0.29374  -0.27766  -0.27323  -0.26895  -0.26470
 Alpha  occ. eigenvalues --   -0.25313  -0.25141  -0.24058  -0.22592  -0.21463
 Alpha  occ. eigenvalues --   -0.19835  -0.15235  -0.12828  -0.11692  -0.11432
 Alpha  occ. eigenvalues --    0.03978
 Alpha virt. eigenvalues --    0.05644   0.06615   0.07339   0.07768   0.08433
 Alpha virt. eigenvalues --    0.08826   0.09044   0.09499   0.10398   0.10501
 Alpha virt. eigenvalues --    0.11013   0.11329   0.11844   0.12200   0.12362

  Beta  occ. eigenvalues --  -88.73840 -14.28478 -14.21889 -14.21825 -14.21012
  Beta  occ. eigenvalues --  -10.12724 -10.11713 -10.11595 -10.10765 -10.10259
  Beta  occ. eigenvalues --  -10.10196 -10.09728 -10.09319 -10.07913 -10.07546
  Beta  occ. eigenvalues --  -10.06384  -7.82453  -5.78850  -5.78506  -5.77805
  Beta  occ. eigenvalues --   -0.94846  -0.83515  -0.81819  -0.74210  -0.73096
  Beta  occ. eigenvalues --   -0.69210  -0.65957  -0.63450  -0.62858  -0.59921
  Beta  occ. eigenvalues --   -0.56000  -0.51495  -0.50829  -0.48574  -0.46759
  Beta  occ. eigenvalues --   -0.45299  -0.43127  -0.41450  -0.40701  -0.39765
  Beta  occ. eigenvalues --   -0.37697  -0.37063  -0.35878  -0.35215  -0.34723
  Beta  occ. eigenvalues --   -0.33283  -0.32263  -0.31206  -0.30587  -0.30034
  Beta  occ. eigenvalues --   -0.29350  -0.27743  -0.27296  -0.26874  -0.26456
  Beta  occ. eigenvalues --   -0.25288  -0.25122  -0.24040  -0.22561  -0.21451
  Beta  occ. eigenvalues --   -0.19807  -0.15208  -0.12820  -0.11663  -0.11403
  Beta virt. eigenvalues --    0.06210   0.06777   0.07272   0.07772   0.07967
  Beta virt. eigenvalues --    0.08933   0.09092   0.09508   0.09781   0.10684
  Beta virt. eigenvalues --    0.10844   0.11249   0.11537   0.12099   0.12339

 Mulliken charges and spin densities:
               1          2
     1  C    0.660747  -1.063773
     2  N    0.122508   0.071250
     3  C   -0.380751   0.225388
     4  C   -0.259441  -0.271116
     5  C    0.621850  -0.757905
     6  N    0.380922  -0.086018
     7  C    0.670413  -0.947800
     8  C   -0.700801   0.775808
     9  C    1.446739  -1.908772
    10  N   -0.570469   0.224845
    11  N   -0.363868   0.119868
    12  C   -0.180555   0.431613
    13  C   -0.563622   0.077280
    14  C   -0.351297   0.043978
    15  S   -0.252418  -0.070649
    16  C    0.050227  -0.759437
    17  H   -0.060780   0.194951
    18  H   -0.397637   0.560036
    19  H    0.114508   0.003387
    20  H    0.165654  -0.055557
    21  H   -0.001021   0.189073
    22  H    0.016255   0.161613
    23  H   -0.014703   0.174029
    24  H   -0.355967   0.577374
    25  H   -0.262246   0.388175
    26  H   -0.683017   0.843731
    27  H   -0.598049   0.772632
    28  H   -0.208197   0.458010
    29  H    0.052670   0.195778
    30  H    0.513114  -0.312425
    31  H    0.219494  -0.033954
    32  H    0.014166   0.173128
    33  H    0.174319   0.023165
    34  H    0.142085   0.064130
    35  H   -0.109000   0.280399
    36  H   -0.051832   0.237763
 Sum of Mulliken charges =  -1.00000   1.00000

 Dipole moment (field-independent basis, Debye):
    X=             -3.5048    Y=             -0.4161    Z=             -2.8973  Tot=              4.5663
 Quadrupole moment (field-independent basis, Debye-Ang):
   XX=           -181.8693   YY=           -159.9369   ZZ=           -145.7971
   XY=              8.1900   XZ=             -0.4134   YZ=             -4.0706

 Summary of Natural Population Analysis:

                                       Natural Population
                Natural  -----------------------------------------------
    Atom  No    Charge         Core      Valence    Rydberg      Total
 -----------------------------------------------------------------------
      C    1   -0.17753      0.99964     2.16902    0.00886     3.17753
      N    2   -0.29029      0.99970     2.77724    0.01335     3.79029
      C    3   -0.08364      0.99960     2.07282    0.01122     3.08364
      C    4   -0.20510      0.99962     2.19673    0.00875     3.20510
      C    5   -0.07977      0.99959     2.06870    0.01148     3.07977
      N    6   -0.11838      0.99966     2.60400    0.01471     3.61838
      C    7    0.00482      0.99955     1.98332    0.01231     2.99518
      C    8   -0.18001      0.99951     2.17091    0.00959     3.18001
      C    9    0.16538      0.99958     1.81933    0.01572     2.83462
      N   10   -0.19037      0.99969     2.67939    0.01129     3.69037
      N   11   -0.40433      0.99972     2.89420    0.01042     3.90433
      C   12   -0.00831      0.99956     1.99413    0.01462     3.00831
      C   13   -0.20438      0.99960     2.19489    0.00989     3.20438
      C   14   -0.23913      0.99960     2.23186    0.00768     3.23913
      S   15    0.06389      4.99966     2.92056    0.01588     7.93611
      C   16   -0.24359      0.99957     2.23367    0.01035     3.24359
      H   17    0.09647      0.00000     0.40261    0.00092     0.40353
      H   18    0.08434      0.00000     0.41407    0.00158     0.41566
      H   19    0.09382      0.00000     0.40502    0.00116     0.40618
      H   20    0.10342      0.00000     0.39490    0.00169     0.39658
      H   21    0.09269      0.00000     0.40643    0.00088     0.40731
      H   22    0.10679      0.00000     0.39170    0.00151     0.39321
      H   23    0.10083      0.00000     0.39797    0.00120     0.39917
      H   24    0.09920      0.00000     0.39938    0.00142     0.40080
      H   25    0.10107      0.00000     0.39622    0.00271     0.39893
      H   26    0.10680      0.00000     0.39120    0.00200     0.39320
      H   27    0.10988      0.00000     0.38892    0.00121     0.39012
      H   28    0.18695      0.00000     0.30940    0.00365     0.31305
      H   29    0.18668      0.00000     0.31148    0.00184     0.31332
      H   30    0.09082      0.00000     0.40600    0.00318     0.40918
      H   31    0.10432      0.00000     0.39444    0.00123     0.39568
      H   32    0.11441      0.00000     0.38345    0.00215     0.38559
      H   33    0.10130      0.00000     0.39710    0.00160     0.39870
      H   34    0.10228      0.00000     0.39654    0.00119     0.39772
      H   35    0.10145      0.00000     0.39675    0.00180     0.39855
      H   36    0.10722      0.00000     0.39155    0.00123     0.39278
 =======================================================================
   * Total *   -0.00000     19.99384    44.78591    0.22025    65.00000

 Normal termination of Gaussian 16 at Thu Dec 10 22:29:24 2020.
