 Gaussian 16, Revision A.03,

 -----------------------------------------------------------
 # opt freq B3LYP/6-31G(d) empiricaldispersion=gd3bj scf=xqc
 -----------------------------------------------------------

 -----------------------------
 CID_21278510_JID_663_neutraal
 -----------------------------
 Symbolic Z-matrix:
 Charge =  0 Multiplicity = 1

 SCF Done:  E(RB3LYP) =  -528.019191264     A.U. after   17 cycles
 SCF Done:  E(RB3LYP) =  -528.020162472     A.U. after   12 cycles
 SCF Done:  E(RB3LYP) =  -528.020285850     A.U. after   12 cycles
 SCF Done:  E(RB3LYP) =  -528.020006659     A.U. after   14 cycles
 SCF Done:  E(RB3LYP) =  -528.020299623     A.U. after   10 cycles
 SCF Done:  E(RB3LYP) =  -528.020300645     A.U. after   10 cycles
 SCF Done:  E(RB3LYP) =  -528.020300643     A.U. after    9 cycles
 SCF Done:  E(RB3LYP) =  -528.020301781     A.U. after    9 cycles
 Optimization completed.
    -- Stationary point found.
 Normal termination of Gaussian 16 at Tue Dec  8 12:19:02 2020.

 --------------------------------------------------------------------
 #N Geom=AllCheck Guess=TCheck SCRF=Check GenChk RB3LYP/6-31G(d) Freq
 --------------------------------------------------------------------

 Structure from the checkpoint file:  "JID_663.chk"
 -----------------------------
 CID_21278510_JID_663_neutraal
 -----------------------------
 Charge =  0 Multiplicity = 1

 SCF Done:  E(RB3LYP) =  -528.020301781     A.U. after    1 cycles

  Exact polarizability: 123.073   0.446  79.168  -0.001  -0.000  28.197
 Approx polarizability: 200.807   3.924 156.173  -0.004  -0.000  43.475

                      1                      2                      3
                      A                      A                      A
 Frequencies --     89.0087               111.1251               143.9765
 Red. masses --     12.0422                 6.2605                 9.0857
 Frc consts  --      0.0562                 0.0455                 0.1110
 IR Inten    --      8.2049                 1.5665                12.0634

                      4                      5                      6
                      A                      A                      A
 Frequencies --    209.0078               255.1661               288.5363
 Red. masses --      3.9415                 6.3467                 3.4280
 Frc consts  --      0.1014                 0.2435                 0.1681
 IR Inten    --      3.5613                 4.9289                 6.1180

                      7                      8                      9
                      A                      A                      A
 Frequencies --    375.7039               520.3724               589.4068
 Red. masses --     10.4326                 8.9606                 2.8702
 Frc consts  --      0.8676                 1.4296                 0.5875
 IR Inten    --      1.0868                 3.9046                51.3473

                     10                     11                     12
                      A                      A                      A
 Frequencies --    593.2494               612.3863               673.6675
 Red. masses --      5.6721                 2.7830                 1.4841
 Frc consts  --      1.1762                 0.6149                 0.3968
 IR Inten    --      2.5768                21.1817                18.4970

                     13                     14                     15
                      A                      A                      A
 Frequencies --    745.9781               765.1253               823.1817
 Red. masses --      5.9743                 4.9696                10.1189
 Frc consts  --      1.9588                 1.7141                 4.0399
 IR Inten    --     28.9263                70.2343                39.6769

                     16                     17                     18
                      A                      A                      A
 Frequencies --    840.7121               873.7268               991.9355
 Red. masses --      1.4061                 1.3936                 2.7267
 Frc consts  --      0.5856                 0.6268                 1.5807
 IR Inten    --      6.8769                29.2327                21.0093

                     19                     20                     21
                      A                      A                      A
 Frequencies --   1011.1621              1028.9539              1135.9410
 Red. masses --      5.3812                 1.7762                 1.2666
 Frc consts  --      3.2417                 1.1080                 0.9629
 IR Inten    --      7.7998                 0.1089                45.2680

                     22                     23                     24
                      A                      A                      A
 Frequencies --   1140.9537              1249.8470              1345.8409
 Red. masses --      1.7214                 1.9392                 3.8101
 Frc consts  --      1.3203                 1.7848                 4.0661
 IR Inten    --     58.6627                 0.4443               231.6187

                     25                     26                     27
                      A                      A                      A
 Frequencies --   1398.1198              1430.3673              1453.7902
 Red. masses --      3.1263                 5.3183                 2.3090
 Frc consts  --      3.6005                 6.4109                 2.8753
 IR Inten    --     71.3334               195.7979                61.2011

                     28                     29                     30
                      A                      A                      A
 Frequencies --   1489.5994              1533.1279              1594.0726
 Red. masses --      3.5032                 5.3608                 4.5656
 Frc consts  --      4.5799                 7.4240                 6.8354
 IR Inten    --     65.2448                46.4015               138.9596

                     31                     32                     33
                      A                      A                      A
 Frequencies --   1624.6350              1793.4961              2934.1340
 Red. masses --     13.8521                 9.4696                 1.0847
 Frc consts  --     21.5416                17.9467                 5.5018
 IR Inten    --    202.3168               244.8335               123.2992

                     34                     35                     36
                      A                      A                      A
 Frequencies --   3294.3110              3300.6031              3637.0482
 Red. masses --      1.0973                 1.0979                 1.0809
 Frc consts  --      7.0164                 7.0467                 8.4244
 IR Inten    --      3.1064                 4.8452               133.2763

 - Thermochemistry -
 -------------------
 Temperature   298.150 Kelvin.  Pressure   1.00000 Atm.
 Atom     1 has atomic number  6 and mass  12.00000

 Molecular mass:   140.02219 amu.
 Principal axes and moments of inertia in atomic units:
                           1         2         3
     Eigenvalues --   399.156192493.743182892.89936
           X            0.99998  -0.00624  -0.00000
           Y            0.00624   0.99998  -0.00000
           Z            0.00000   0.00000   1.00000
 This molecule is an asymmetric top.
 Rotational symmetry number  1.
 Rotational temperatures (Kelvin)      0.21699     0.03473     0.02994
 Rotational constants (GHZ):           4.52139     0.72371     0.62385
 Zero-point vibrational energy     250607.3 (Joules/Mol)
                                   59.89658 (Kcal/Mol)
 Warning -- explicit consideration of  11 degrees of freedom as
           vibrations may cause significant error
 Vibrational temperatures:    128.06   159.88   207.15   300.72   367.13
          (Kelvin)            415.14   540.55   748.70   848.02   853.55
                              881.09   969.26  1073.30  1100.84  1184.37
                             1209.60  1257.10  1427.17  1454.84  1480.44
                             1634.37  1641.58  1798.25  1936.36  2011.58
                             2057.98  2091.68  2143.20  2205.83  2293.51
                             2337.49  2580.44  4221.56  4739.78  4748.83
                             5232.90

 Zero-point correction=                           0.095451 (Hartree/Particle)
 Thermal correction to Energy=                    0.103610
 Thermal correction to Enthalpy=                  0.104555
 Thermal correction to Gibbs Free Energy=         0.061805
 Sum of electronic and zero-point Energies=           -527.924851
 Sum of electronic and thermal Energies=              -527.916691
 Sum of electronic and thermal Enthalpies=            -527.915747
 Sum of electronic and thermal Free Energies=         -527.958497

                     E (Thermal)             CV                S
                      KCal/Mol        Cal/Mol-Kelvin    Cal/Mol-Kelvin
 Total                   65.016             29.407             89.975
 Electronic               0.000              0.000              0.000
 Translational            0.889              2.981             40.721
 Rotational               0.889              2.981             29.444
 Vibrational             63.239             23.445             19.809
 Vibration     1          0.602              1.957              3.682
 Vibration     2          0.607              1.940              3.249
 Vibration     3          0.616              1.909              2.750
 Vibration     4          0.642              1.827              2.052
 Vibration     5          0.666              1.754              1.695
 Vibration     6          0.685              1.695              1.483
 Vibration     7          0.747              1.522              1.056
 Vibration     8          0.875              1.205              0.609
 Vibration     9          0.947              1.054              0.468
 Vibration    10          0.951              1.046              0.461
 Vibration    11          0.972              1.006              0.429

 Optimization completed.
    -- Stationary point found.
 Normal termination of Gaussian 16 at Tue Dec  8 12:22:11 2020.

 ----------------------------------------------------------------------
 # B3LYP/6-311++G(d,p) empiricaldispersion=gd3bj scf=xqc pop=npa geom=c
 heck
 ----------------------------------------------------------------------

 -------------------------------------
 CID_21278510_JID_663_Energie_neutraal
 -------------------------------------
 Structure from the checkpoint file:  "JID_663.chk"
 Charge =  0 Multiplicity = 1

 SCF Done:  E(RB3LYP) =  -528.178485151     A.U. after   17 cycles
 Normal termination of Gaussian 16 at Tue Dec  8 12:23:38 2020.

 ----------------------------------------------------------------------
 # B3LYP/6-311++G(d,p) empiricaldispersion=gd3bj scf=xqc pop=npa geom=c
 heck
 ----------------------------------------------------------------------

 -----------------------------------
 CID_21278510_JID_663_Energie_kation
 -----------------------------------
 Structure from the checkpoint file:  "JID_663.chk"
 Charge =  1 Multiplicity = 2

 SCF Done:  E(UB3LYP) =  -527.821057368     A.U. after   31 cycles
 Normal termination of Gaussian 16 at Tue Dec  8 12:26:39 2020.
 Gaussian 16:  ES64L-G16RevA.03 25-Dec-2016

 ----------------------------------------------------------------------
 # B3LYP/6-311++G(d,p) empiricaldispersion=gd3bj scf=xqc pop=npa geom=c
 heck
 ----------------------------------------------------------------------

 ----------------------------------
 CID_21278510_JID_663_Energie_anion
 ----------------------------------
 Structure from the checkpoint file:  "JID_663.chk"
 Charge = -1 Multiplicity = 2

                         Standard orientation:
 ---------------------------------------------------------------------
 Center     Atomic      Atomic             Coordinates (Angstroms)
 Number     Number       Type             X           Y           Z
 ---------------------------------------------------------------------
      1          6           0        0.213813   -0.938037   -0.000071
      2          6           0       -0.813064   -0.018543   -0.000047
      3          7           0       -0.284403    1.254331    0.000042
      4          6           0        1.064640    1.171961   -0.000129
      5          6           0        1.417209   -0.182472    0.000012
      6          6           0        2.791079   -0.687630    0.000091
      7          8           0        3.776454    0.028045    0.000029
      8          7           0       -2.222256   -0.193337   -0.000058
      9          8           0       -2.909566    0.839553    0.000089
     10          8           0       -2.656343   -1.344951    0.000014
     11          1           0        0.100574   -2.011837   -0.000094
     12          1           0       -0.865639    2.082576    0.000128
     13          1           0        1.701158    2.043856   -0.000179
     14          1           0        2.884088   -1.794397    0.000056
 ---------------------------------------------------------------------

 SCF Done:  E(UB3LYP) =  -528.221816383     A.U. after   26 cycles

 The electronic state is 2-A.
 Alpha  occ. eigenvalues --  -18.99198 -18.93153 -18.92959 -14.30432 -14.24011
 Alpha  occ. eigenvalues --  -10.13747 -10.08771 -10.08301 -10.04679 -10.02974
 Alpha  occ. eigenvalues --   -1.01317  -0.92260  -0.86854  -0.84021  -0.67007
 Alpha  occ. eigenvalues --   -0.63849  -0.54067  -0.52608  -0.45754  -0.42718
 Alpha  occ. eigenvalues --   -0.38484  -0.34946  -0.33911  -0.33482  -0.32673
 Alpha  occ. eigenvalues --   -0.31057  -0.29552  -0.28199  -0.26561  -0.26255
 Alpha  occ. eigenvalues --   -0.14437  -0.14283  -0.12611  -0.11454  -0.10427
 Alpha  occ. eigenvalues --   -0.09520   0.03149
 Alpha virt. eigenvalues --    0.06746   0.09240   0.09907   0.12358   0.13532
 Alpha virt. eigenvalues --    0.14340   0.15394   0.17170   0.17966   0.19073
 Alpha virt. eigenvalues --    0.19469   0.20120   0.20542   0.21004   0.21081

  Beta  occ. eigenvalues --  -18.99207 -18.92604 -18.92336 -14.29598 -14.23855
  Beta  occ. eigenvalues --  -10.13736 -10.08796 -10.08194 -10.04735 -10.02714
  Beta  occ. eigenvalues --   -0.99982  -0.92275  -0.86579  -0.82945  -0.66763
  Beta  occ. eigenvalues --   -0.63230  -0.53831  -0.51725  -0.45456  -0.42671
  Beta  occ. eigenvalues --   -0.37767  -0.33742  -0.32986  -0.32537  -0.32192
  Beta  occ. eigenvalues --   -0.30571  -0.28445  -0.27740  -0.26106  -0.25855
  Beta  occ. eigenvalues --   -0.14284  -0.13459  -0.10930  -0.09365  -0.08934
  Beta  occ. eigenvalues --   -0.08612
  Beta virt. eigenvalues --    0.07162   0.09231   0.09886   0.11392   0.12360
  Beta virt. eigenvalues --    0.13537   0.14343   0.15387   0.17164   0.18453
  Beta virt. eigenvalues --    0.19087   0.19449   0.20575   0.21012   0.21242

 Mulliken charges and spin densities:
               1          2
     1  C    0.778009   0.263880
     2  C   -0.808663  -0.047751
     3  N   -0.113131   0.072463
     4  C    0.023266   0.063863
     5  C   -0.009689  -0.046915
     6  C   -0.497276   0.016105
     7  O   -0.326404  -0.005385
     8  N   -0.264233   0.250915
     9  O   -0.298093   0.217906
    10  O   -0.234507   0.244307
    11  H    0.187641  -0.015618
    12  H    0.304741  -0.005588
    13  H    0.170258  -0.007684
    14  H    0.088080  -0.000496
 Sum of Mulliken charges =  -1.00000   1.00000

 Dipole moment (field-independent basis, Debye):
    X=              4.9964    Y=              1.8681    Z=             -0.0002  Tot=              5.3342
 Quadrupole moment (field-independent basis, Debye-Ang):
   XX=           -118.1391   YY=            -60.1616   ZZ=            -61.6038
   XY=             -6.1257   XZ=              0.0007   YZ=              0.0000

 Summary of Natural Population Analysis:

                                       Natural Population
                Natural  -----------------------------------------------
    Atom  No    Charge         Core      Valence    Rydberg      Total
 -----------------------------------------------------------------------
      C    1   -0.07427      0.99950     2.06518    0.00959     3.07427
      C    2    0.12815      0.99948     1.85696    0.01541     2.87185
      N    3   -0.23421      0.99965     2.72585    0.00871     3.73421
      C    4    0.03099      0.99957     1.95664    0.01281     2.96901
      C    5   -0.13845      0.99952     2.12991    0.00903     3.13845
      C    6    0.20752      0.99966     1.77295    0.01987     2.79248
      O    7   -0.30659      0.99988     3.29886    0.00785     4.30659
      N    8    0.31763      0.99968     2.15622    0.02646     3.18237
      O    9   -0.21562      0.99990     3.20769    0.00803     4.21562
      O   10   -0.17894      0.99990     3.17107    0.00797     4.17894
      H   11    0.10911      0.00000     0.38976    0.00113     0.39089
      H   12    0.21146      0.00000     0.28664    0.00190     0.28854
      H   13    0.09837      0.00000     0.40057    0.00106     0.40163
      H   14    0.04485      0.00000     0.45272    0.00242     0.45515
 =======================================================================
   * Total *    0.00000      9.99675    25.87101    0.13223    36.00000

 Normal termination of Gaussian 16 at Tue Dec  8 12:30:49 2020.
