 Gaussian 16, Revision A.03,

 -----------------------------------------------------------
 # opt freq B3LYP/6-31G(d) empiricaldispersion=gd3bj scf=xqc
 -----------------------------------------------------------

 -------------------------------
 CID_132077468_JID_6337_neutraal
 -------------------------------
 Symbolic Z-matrix:
 Charge =  0 Multiplicity = 1

 SCF Done:  E(RB3LYP) =  -696.011700567     A.U. after   14 cycles
 SCF Done:  E(RB3LYP) =  -696.015808525     A.U. after   12 cycles
 SCF Done:  E(RB3LYP) =  -696.016002678     A.U. after   11 cycles
 SCF Done:  E(RB3LYP) =  -696.016491446     A.U. after   11 cycles
 SCF Done:  E(RB3LYP) =  -696.016712585     A.U. after   10 cycles
 SCF Done:  E(RB3LYP) =  -696.017333932     A.U. after   14 cycles
 SCF Done:  E(RB3LYP) =  -696.017742199     A.U. after   11 cycles
 SCF Done:  E(RB3LYP) =  -696.018095873     A.U. after   14 cycles
 SCF Done:  E(RB3LYP) =  -696.018140225     A.U. after   12 cycles
 SCF Done:  E(RB3LYP) =  -696.018394335     A.U. after   11 cycles
 SCF Done:  E(RB3LYP) =  -696.020920510     A.U. after   10 cycles
 SCF Done:  E(RB3LYP) =  -696.020920534     A.U. after    8 cycles
 SCF Done:  E(RB3LYP) =  -696.020920781     A.U. after    8 cycles
 SCF Done:  E(RB3LYP) =  -696.020920841     A.U. after    7 cycles
 SCF Done:  E(RB3LYP) =  -696.020920801     A.U. after    7 cycles
 Optimization completed.
    -- Stationary point found.
 Normal termination of Gaussian 16 at Thu Dec 10 23:04:53 2020.

 --------------------------------------------------------------------
 #N Geom=AllCheck Guess=TCheck SCRF=Check GenChk RB3LYP/6-31G(d) Freq
 --------------------------------------------------------------------

 Structure from the checkpoint file:  "JID_6337.chk"
 -------------------------------
 CID_132077468_JID_6337_neutraal
 -------------------------------
 Charge =  0 Multiplicity = 1

 SCF Done:  E(RB3LYP) =  -696.020920802     A.U. after    1 cycles

  Exact polarizability: 191.287  -0.781 148.351  11.275   5.276 104.705
 Approx polarizability: 247.255  -2.952 232.421  26.191  14.573 160.382

                      1                      2                      3
                      A                      A                      A
 Frequencies --     25.8355                37.0223                56.0736
 Red. masses --      4.6597                 3.5355                 4.0219
 Frc consts  --      0.0018                 0.0029                 0.0075
 IR Inten    --      0.0082                 0.0123                 0.7511

                      4                      5                      6
                      A                      A                      A
 Frequencies --     82.8660               114.6708               140.4263
 Red. masses --      3.6016                 2.9171                 2.8113
 Frc consts  --      0.0146                 0.0226                 0.0327
 IR Inten    --      0.8826                 1.2333                 2.1640

                      7                      8                      9
                      A                      A                      A
 Frequencies --    188.7326               212.2179               241.4313
 Red. masses --      3.6716                 3.7323                 3.9297
 Frc consts  --      0.0771                 0.0990                 0.1350
 IR Inten    --      0.8013                 2.2296                 0.6265

                     10                     11                     12
                      A                      A                      A
 Frequencies --    252.8940               266.0904               318.3748
 Red. masses --      2.7455                 2.6882                 2.7185
 Frc consts  --      0.1035                 0.1121                 0.1624
 IR Inten    --      0.8551                 0.6669                 0.2528

                     13                     14                     15
                      A                      A                      A
 Frequencies --    358.5475               402.8298               424.2701
 Red. masses --      2.5303                 2.3817                 3.1320
 Frc consts  --      0.1917                 0.2277                 0.3322
 IR Inten    --      0.4576                 1.1839                 0.0322

                     16                     17                     18
                      A                      A                      A
 Frequencies --    451.8799               479.0075               489.8088
 Red. masses --      2.6063                 2.2893                 2.7667
 Frc consts  --      0.3136                 0.3095                 0.3911
 IR Inten    --      1.5852                 6.0447                 1.3849

                     19                     20                     21
                      A                      A                      A
 Frequencies --    520.2989               536.7146               567.8003
 Red. masses --      2.8807                 2.4312                 2.5005
 Frc consts  --      0.4595                 0.4126                 0.4750
 IR Inten    --      4.0648                 5.6549                 0.6971

                     22                     23                     24
                      A                      A                      A
 Frequencies --    609.3627               632.0050               702.7094
 Red. masses --      5.4679                 6.3449                 2.3283
 Frc consts  --      1.1962                 1.4932                 0.6774
 IR Inten    --      3.0502                 0.3218                10.4308

                     25                     26                     27
                      A                      A                      A
 Frequencies --    729.6727               765.6083               786.6551
 Red. masses --      1.7431                 1.6051                 1.9326
 Frc consts  --      0.5468                 0.5543                 0.7046
 IR Inten    --      2.7811                51.8607                 0.3086

                     28                     29                     30
                      A                      A                      A
 Frequencies --    815.4312               829.7098               835.2693
 Red. masses --      2.3386                 1.2534                 3.5186
 Frc consts  --      0.9162                 0.5084                 1.4463
 IR Inten    --      3.3314                 0.2101                16.6320

                     31                     32                     33
                      A                      A                      A
 Frequencies --    857.7775               890.8009               911.0536
 Red. masses --      3.7758                 1.4647                 1.7922
 Frc consts  --      1.6368                 0.6848                 0.8764
 IR Inten    --      7.2420                 4.6918                 6.2730

                     34                     35                     36
                      A                      A                      A
 Frequencies --    936.1059               955.2304               973.5619
 Red. masses --      1.7960                 1.3237                 2.3507
 Frc consts  --      0.9273                 0.7116                 1.3127
 IR Inten    --      7.0973                 0.0867                 7.1017

                     37                     38                     39
                      A                      A                      A
 Frequencies --    981.3005               994.2823              1016.5248
 Red. masses --      1.2260                 1.9631                 5.0990
 Frc consts  --      0.6956                 1.1435                 3.1043
 IR Inten    --      0.1834                 5.4471                 1.4715

                     40                     41                     42
                      A                      A                      A
 Frequencies --   1019.5134              1030.4414              1055.7869
 Red. masses --      2.2890                 1.7038                 2.2483
 Frc consts  --      1.4018                 1.0659                 1.4766
 IR Inten    --      9.9071                 9.2739                 0.9577

                     43                     44                     45
                      A                      A                      A
 Frequencies --   1070.9355              1084.9241              1105.3867
 Red. masses --      2.0824                 3.6548                 2.0927
 Frc consts  --      1.4071                 2.5346                 1.5066
 IR Inten    --      4.0146                93.7259                 0.1154

                     46                     47                     48
                      A                      A                      A
 Frequencies --   1110.9287              1118.2808              1147.6529
 Red. masses --      1.9899                 1.6235                 2.9284
 Frc consts  --      1.4470                 1.1962                 2.2725
 IR Inten    --      0.9226                11.6147                25.4233

                     49                     50                     51
                      A                      A                      A
 Frequencies --   1161.6534              1178.0235              1190.0336
 Red. masses --      2.8669                 2.4415                 1.0994
 Frc consts  --      2.2794                 1.9962                 0.9173
 IR Inten    --    113.6342                 4.7701                 3.2021

                     52                     53                     54
                      A                      A                      A
 Frequencies --   1209.1103              1237.4403              1241.3672
 Red. masses --      1.1434                 1.2969                 1.2629
 Frc consts  --      0.9848                 1.1701                 1.1466
 IR Inten    --     17.3618                31.3490                 1.4645

                     55                     56                     57
                      A                      A                      A
 Frequencies --   1265.0343              1289.5462              1295.8601
 Red. masses --      1.1931                 1.3304                 3.5088
 Frc consts  --      1.1250                 1.3034                 3.4716
 IR Inten    --     12.8698                35.7223               304.2086

                     58                     59                     60
                      A                      A                      A
 Frequencies --   1305.0955              1332.4086              1336.4310
 Red. masses --      1.2825                 1.1807                 1.1175
 Frc consts  --      1.2871                 1.2349                 1.1760
 IR Inten    --      5.8587                16.1306                 2.1213

                     61                     62                     63
                      A                      A                      A
 Frequencies --   1348.4592              1352.1748              1367.5019
 Red. masses --      1.3994                 1.5697                 1.3177
 Frc consts  --      1.4992                 1.6910                 1.4519
 IR Inten    --     13.9042                13.0569                 3.3480

                     64                     65                     66
                      A                      A                      A
 Frequencies --   1375.3788              1394.3329              1404.5280
 Red. masses --      2.4669                 1.3761                 1.3949
 Frc consts  --      2.7494                 1.5763                 1.6213
 IR Inten    --     22.5799                 1.1915                 1.3185

                     67                     68                     69
                      A                      A                      A
 Frequencies --   1411.5944              1426.6183              1431.8370
 Red. masses --      1.3611                 1.2480                 1.4357
 Frc consts  --      1.5979                 1.4965                 1.7342
 IR Inten    --      7.1961                12.9813                10.6422

                     70                     71                     72
                      A                      A                      A
 Frequencies --   1444.4654              1449.4149              1504.8024
 Red. masses --      1.4311                 1.2902                 1.1124
 Frc consts  --      1.7592                 1.5970                 1.4841
 IR Inten    --     20.8576                 3.7979                 5.2886

                     73                     74                     75
                      A                      A                      A
 Frequencies --   1507.0712              1511.2320              1518.0062
 Red. masses --      2.2044                 1.0880                 1.0841
 Frc consts  --      2.9499                 1.4640                 1.4718
 IR Inten    --      1.2249                 5.0799                 0.3270

                     76                     77                     78
                      A                      A                      A
 Frequencies --   1528.6650              1538.3920              1541.5591
 Red. masses --      1.0940                 1.3027                 1.0872
 Frc consts  --      1.5062                 1.8164                 1.5222
 IR Inten    --      3.1458                88.8982                 3.3808

                     79                     80                     81
                      A                      A                      A
 Frequencies --   1551.8431              1556.1935              1647.3974
 Red. masses --      1.1637                 1.5523                 5.9125
 Frc consts  --      1.6512                 2.2149                 9.4541
 IR Inten    --     38.0160                23.4905                23.5024

                     82                     83                     84
                      A                      A                      A
 Frequencies --   1668.4419              2998.3909              3005.5153
 Red. masses --      5.6353                 1.0600                 1.0624
 Frc consts  --      9.2424                 5.6147                 5.6544
 IR Inten    --     91.6992                19.4137                31.1424

                     85                     86                     87
                      A                      A                      A
 Frequencies --   3016.8232              3022.8494              3030.1579
 Red. masses --      1.0635                 1.0798                 1.0675
 Frc consts  --      5.7028                 5.8133                 5.7752
 IR Inten    --     32.1892                 7.8638                45.2096

                     88                     89                     90
                      A                      A                      A
 Frequencies --   3031.0746              3045.7936              3053.4349
 Red. masses --      1.0765                 1.0911                 1.0803
 Frc consts  --      5.8269                 5.9636                 5.9345
 IR Inten    --      2.1059                18.2601               113.7652

                     91                     92                     93
                      A                      A                      A
 Frequencies --   3059.7449              3062.1747              3076.4972
 Red. masses --      1.0800                 1.0850                 1.0972
 Frc consts  --      5.9575                 5.9941                 6.1183
 IR Inten    --     24.7165                25.6309                65.1373

                     94                     95                     96
                      A                      A                      A
 Frequencies --   3079.7459              3093.3319              3103.0111
 Red. masses --      1.0994                 1.0964                 1.0947
 Frc consts  --      6.1435                 6.1813                 6.2105
 IR Inten    --     81.7258                12.9914                54.1063

                     97                     98                     99
                      A                      A                      A
 Frequencies --   3113.5860              3184.3787              3191.9980
 Red. masses --      1.0932                 1.0851                 1.0894
 Frc consts  --      6.2443                 6.4831                 6.5396
 IR Inten    --     31.3496                 2.9877                16.2074

                    100                    101                    102
                      A                      A                      A
 Frequencies --   3208.7132              3216.8400              3230.1780
 Red. masses --      1.0929                 1.0957                 1.0918
 Frc consts  --      6.6299                 6.6802                 6.7119
 IR Inten    --     33.5855                12.4810                 9.0482

 - Thermochemistry -
 -------------------
 Temperature   298.150 Kelvin.  Pressure   1.00000 Atm.
 Atom     1 has atomic number  6 and mass  12.00000

 Molecular mass:   220.14633 amu.
 Principal axes and moments of inertia in atomic units:
                           1         2         3
     Eigenvalues --  1413.662608449.423068987.85980
           X            0.99998   0.00594   0.00024
           Y           -0.00594   0.99994  -0.00882
           Z           -0.00030   0.00882   0.99996
 This molecule is an asymmetric top.
 Rotational symmetry number  1.
 Warning -- assumption of classical behavior for rotation
           may cause significant error
 Rotational temperatures (Kelvin)      0.06127     0.01025     0.00964
 Rotational constants (GHZ):           1.27664     0.21359     0.20080
 Zero-point vibrational energy     840262.1 (Joules/Mol)
                                  200.82747 (Kcal/Mol)
 Warning -- explicit consideration of  22 degrees of freedom as
           vibrations may cause significant error
 Vibrational temperatures:     37.17    53.27    80.68   119.23   164.99
          (Kelvin)            202.04   271.54   305.33   347.37   363.86
                              382.84   458.07   515.87   579.58   610.43
                              650.15   689.18   704.73   748.59   772.21
                              816.94   876.74   909.31  1011.04  1049.84
                             1101.54  1131.82  1173.22  1193.77  1201.77
                             1234.15  1281.66  1310.80  1346.85  1374.36
                             1400.74  1411.87  1430.55  1462.55  1466.85
                             1482.58  1519.04  1540.84  1560.96  1590.40
                             1598.38  1608.96  1651.22  1671.36  1694.91
                             1712.19  1739.64  1780.40  1786.05  1820.10
                             1855.37  1864.45  1877.74  1917.04  1922.83
                             1940.13  1945.48  1967.53  1978.86  2006.13
                             2020.80  2030.97  2052.59  2060.09  2078.26
                             2085.38  2165.08  2168.34  2174.33  2184.07
                             2199.41  2213.40  2217.96  2232.76  2239.02
                             2370.24  2400.52  4314.02  4324.27  4340.54
                             4349.21  4359.72  4361.04  4382.22  4393.21
                             4402.29  4405.79  4426.39  4431.07  4450.61
                             4464.54  4479.76  4581.61  4592.57  4616.62
                             4628.32  4647.51

 Zero-point correction=                           0.320039 (Hartree/Particle)
 Thermal correction to Energy=                    0.334653
 Thermal correction to Enthalpy=                  0.335597
 Thermal correction to Gibbs Free Energy=         0.276965
 Sum of electronic and zero-point Energies=           -695.700882
 Sum of electronic and thermal Energies=              -695.686268
 Sum of electronic and thermal Enthalpies=            -695.685324
 Sum of electronic and thermal Free Energies=         -695.743956

                     E (Thermal)             CV                S
                      KCal/Mol        Cal/Mol-Kelvin    Cal/Mol-Kelvin
 Total                  209.998             57.550            123.402
 Electronic               0.000              0.000              0.000
 Translational            0.889              2.981             42.070
 Rotational               0.889              2.981             33.040
 Vibrational            208.220             51.588             48.292
 Vibration     1          0.593              1.985              6.126
 Vibration     2          0.594              1.982              5.412
 Vibration     3          0.596              1.975              4.591
 Vibration     4          0.600              1.961              3.822
 Vibration     5          0.608              1.937              3.188
 Vibration     6          0.615              1.913              2.798
 Vibration     7          0.633              1.855              2.240
 Vibration     8          0.643              1.822              2.025
 Vibration     9          0.658              1.777              1.792
 Vibration    10          0.664              1.758              1.710
 Vibration    11          0.672              1.735              1.621
 Vibration    12          0.705              1.638              1.318
 Vibration    13          0.733              1.558              1.128
 Vibration    14          0.768              1.464              0.952
 Vibration    15          0.786              1.417              0.878
 Vibration    16          0.811              1.357              0.790
 Vibration    17          0.835              1.297              0.713
 Vibration    18          0.846              1.273              0.684
 Vibration    19          0.875              1.205              0.609
 Vibration    20          0.892              1.169              0.572
 Vibration    21          0.924              1.101              0.508
 Vibration    22          0.968              1.012              0.434

 Optimization completed.
    -- Stationary point found.
 Normal termination of Gaussian 16 at Thu Dec 10 23:16:21 2020.

 ----------------------------------------------------------------------
 # B3LYP/6-311++G(d,p) empiricaldispersion=gd3bj scf=xqc pop=npa geom=c
 heck
 ----------------------------------------------------------------------

 ---------------------------------------
 CID_132077468_JID_6337_Energie_neutraal
 ---------------------------------------
 Structure from the checkpoint file:  "JID_6337.chk"
 Charge =  0 Multiplicity = 1

 SCF Done:  E(RB3LYP) =  -696.211806471     A.U. after   15 cycles
 Normal termination of Gaussian 16 at Thu Dec 10 23:21:42 2020.

 ----------------------------------------------------------------------
 # B3LYP/6-311++G(d,p) empiricaldispersion=gd3bj scf=xqc pop=npa geom=c
 heck
 ----------------------------------------------------------------------

 -------------------------------------
 CID_132077468_JID_6337_Energie_kation
 -------------------------------------
 Structure from the checkpoint file:  "JID_6337.chk"
 Charge =  1 Multiplicity = 2

 SCF Done:  E(UB3LYP) =  -695.918998574     A.U. after   24 cycles
 Normal termination of Gaussian 16 at Thu Dec 10 23:33:37 2020.
 Gaussian 16:  ES64L-G16RevA.03 25-Dec-2016

 ----------------------------------------------------------------------
 # B3LYP/6-311++G(d,p) empiricaldispersion=gd3bj scf=xqc pop=npa geom=c
 heck
 ----------------------------------------------------------------------

 ------------------------------------
 CID_132077468_JID_6337_Energie_anion
 ------------------------------------
 Structure from the checkpoint file:  "JID_6337.chk"
 Charge = -1 Multiplicity = 2

                         Standard orientation:
 ---------------------------------------------------------------------
 Center     Atomic      Atomic             Coordinates (Angstroms)
 Number     Number       Type             X           Y           Z
 ---------------------------------------------------------------------
      1          6           0       -2.904048   -1.640305   -0.419381
      2          6           0       -3.836033   -1.413591    0.782431
      3          6           0       -3.763305   -0.016426    1.404111
      4          8           0       -3.904616    1.027551    0.452021
      5          6           0       -2.727937    1.729483    0.076620
      6          6           0       -2.070440    1.199455   -1.206406
      7          6           0       -1.042914    0.050786   -1.087212
      8          6           0       -1.457828   -1.142747   -0.202665
      9          6           0        0.299569    0.612131   -0.622160
     10          8           0        1.256479   -0.441134   -0.635576
     11          6           0        2.521977   -0.177767   -0.197687
     12          6           0        2.966353    1.077610    0.231811
     13          6           0        4.289149    1.228488    0.658669
     14          6           0        5.168674    0.149248    0.661484
     15          6           0        4.715222   -1.101514    0.228970
     16          6           0        3.403362   -1.268028   -0.197752
     17          1           0       -3.339996   -1.150075   -1.295711
     18          1           0       -2.901321   -2.711596   -0.650548
     19          1           0       -4.869233   -1.613454    0.472956
     20          1           0       -3.603042   -2.135197    1.578982
     21          1           0       -2.823631    0.112515    1.959748
     22          1           0       -4.578961    0.096358    2.129841
     23          1           0       -2.015354    1.754508    0.915849
     24          1           0       -3.050170    2.761772   -0.102512
     25          1           0       -1.570509    2.042312   -1.705017
     26          1           0       -2.885615    0.903246   -1.874767
     27          1           0       -0.886794   -0.330831   -2.106181
     28          1           0       -1.307900   -0.871039    0.850383
     29          1           0       -0.743066   -1.948388   -0.389361
     30          1           0        0.630850    1.423547   -1.286355
     31          1           0        0.214367    1.022513    0.395669
     32          1           0        2.301291    1.932818    0.235763
     33          1           0        4.626735    2.206616    0.990603
     34          1           0        6.194051    0.276699    0.994813
     35          1           0        5.389147   -1.953834    0.225037
     36          1           0        3.033452   -2.230770   -0.535752
 ---------------------------------------------------------------------

 SCF Done:  E(UB3LYP) =  -696.197158350     A.U. after   33 cycles
 SCF Done:  E(UB3LYP) =  -696.197158350     a.u. after    1 cycles

 The electronic state is 2-A.
 Alpha  occ. eigenvalues --  -19.05905 -19.03014 -10.14269 -10.13020 -10.12591
 Alpha  occ. eigenvalues --  -10.12456 -10.08757 -10.08506 -10.08349 -10.07923
 Alpha  occ. eigenvalues --  -10.07909 -10.07893 -10.07709 -10.07638 -10.07615
 Alpha  occ. eigenvalues --  -10.07216  -0.97684  -0.94246  -0.76300  -0.73130
 Alpha  occ. eigenvalues --   -0.70467  -0.66427  -0.65622  -0.62567  -0.61909
 Alpha  occ. eigenvalues --   -0.57674  -0.53168  -0.52115  -0.50298  -0.49033
 Alpha  occ. eigenvalues --   -0.45609  -0.44958  -0.41110  -0.40636  -0.39837
 Alpha  occ. eigenvalues --   -0.38675  -0.38131  -0.37255  -0.35427  -0.34375
 Alpha  occ. eigenvalues --   -0.33646  -0.33159  -0.32636  -0.32117  -0.30304
 Alpha  occ. eigenvalues --   -0.28828  -0.28280  -0.27754  -0.27344  -0.25731
 Alpha  occ. eigenvalues --   -0.25168  -0.24579  -0.24030  -0.23601  -0.22856
 Alpha  occ. eigenvalues --   -0.21917  -0.21308  -0.16510  -0.16471  -0.13365
 Alpha  occ. eigenvalues --    0.04248
 Alpha virt. eigenvalues --    0.05846   0.06202   0.06833   0.07514   0.07633
 Alpha virt. eigenvalues --    0.07709   0.08881   0.08974   0.09073   0.09294
 Alpha virt. eigenvalues --    0.09820   0.10135   0.10923   0.11897   0.12003

  Beta  occ. eigenvalues --  -19.05896 -19.03004 -10.14270 -10.12998 -10.12578
  Beta  occ. eigenvalues --  -10.12433 -10.08754 -10.08495 -10.08333 -10.07911
  Beta  occ. eigenvalues --  -10.07893 -10.07887 -10.07692 -10.07628 -10.07605
  Beta  occ. eigenvalues --  -10.07205  -0.97666  -0.94230  -0.76279  -0.73107
  Beta  occ. eigenvalues --   -0.70440  -0.66401  -0.65594  -0.62538  -0.61878
  Beta  occ. eigenvalues --   -0.57635  -0.53118  -0.52080  -0.50269  -0.48993
  Beta  occ. eigenvalues --   -0.45564  -0.44922  -0.41074  -0.40605  -0.39802
  Beta  occ. eigenvalues --   -0.38648  -0.38101  -0.37225  -0.35390  -0.34341
  Beta  occ. eigenvalues --   -0.33614  -0.33133  -0.32601  -0.32088  -0.30285
  Beta  occ. eigenvalues --   -0.28807  -0.28245  -0.27728  -0.27309  -0.25702
  Beta  occ. eigenvalues --   -0.25144  -0.24549  -0.24001  -0.23580  -0.22830
  Beta  occ. eigenvalues --   -0.21887  -0.21282  -0.16490  -0.16435  -0.13355
  Beta virt. eigenvalues --    0.06074   0.06521   0.07117   0.07196   0.07632
  Beta virt. eigenvalues --    0.07925   0.08200   0.08996   0.09287   0.09435
  Beta virt. eigenvalues --    0.09699   0.10119   0.10415   0.11089   0.12212

 Mulliken charges and spin densities:
               1          2
     1  C   -0.014429  -0.256565
     2  C   -0.281029  -0.143448
     3  C    0.231087  -0.480248
     4  O   -0.147535   0.060309
     5  C    0.299314  -0.788643
     6  C    0.098124  -0.441849
     7  C    0.842640  -0.098998
     8  C   -0.258825  -0.033812
     9  C   -0.326827  -0.872869
    10  O   -0.015497   0.015683
    11  C    0.851754  -0.690433
    12  C    1.206274  -1.173938
    13  C   -1.202436   0.922024
    14  C    1.085131  -1.391103
    15  C    0.320493  -0.500606
    16  C   -1.905979   1.842296
    17  H    0.207525  -0.071794
    18  H   -0.179786   0.350043
    19  H   -0.025781   0.185008
    20  H   -0.008628   0.136085
    21  H   -0.023456   0.135031
    22  H   -0.022188   0.199014
    23  H   -0.268057   0.407964
    24  H   -0.244969   0.431110
    25  H   -0.206714   0.343338
    26  H    0.084076   0.119746
    27  H    0.017570   0.180418
    28  H   -0.007431   0.137811
    29  H    0.226188  -0.015857
    30  H   -0.043118   0.221685
    31  H    0.493731  -0.332116
    32  H   -0.549712   0.712905
    33  H   -0.614978   0.807314
    34  H   -0.198666   0.343386
    35  H   -0.267189   0.432186
    36  H   -0.150674   0.308925
 Sum of Mulliken charges =  -1.00000   1.00000

 Dipole moment (field-independent basis, Debye):
    X=             -3.4782    Y=             -3.5794    Z=             -0.9002  Tot=              5.0715
 Quadrupole moment (field-independent basis, Debye-Ang):
   XX=           -200.7740   YY=           -150.2332   ZZ=           -129.3466
   XY=             -1.7242   XZ=             -1.8873   YZ=             -0.1498

 Summary of Natural Population Analysis:

                                       Natural Population
                Natural  -----------------------------------------------
    Atom  No    Charge         Core      Valence    Rydberg      Total
 -----------------------------------------------------------------------
      C    1   -0.19493      0.99963     2.18647    0.00884     3.19493
      C    2   -0.19796      0.99962     2.19021    0.00813     3.19796
      C    3   -0.00733      0.99957     1.99597    0.01179     3.00733
      O    4   -0.30644      0.99988     3.29713    0.00943     4.30644
      C    5   -0.00935      0.99956     1.99607    0.01371     3.00935
      C    6   -0.20690      0.99960     2.19731    0.00999     3.20690
      C    7   -0.11348      0.99958     2.10326    0.01064     3.11348
      C    8   -0.19754      0.99961     2.18921    0.00872     3.19754
      C    9   -0.00750      0.99952     1.99564    0.01234     3.00750
      O   10   -0.27728      0.99985     3.26802    0.00941     4.27728
      C   11    0.16330      0.99939     1.82478    0.01253     2.83670
      C   12   -0.14396      0.99952     2.13488    0.00956     3.14396
      C   13   -0.09001      0.99957     2.07950    0.01094     3.09001
      C   14   -0.11925      0.99956     2.10966    0.01003     3.11925
      C   15   -0.09607      0.99957     2.08640    0.01010     3.09607
      C   16   -0.12157      0.99952     2.11226    0.00978     3.12157
      H   17    0.09698      0.00000     0.40156    0.00147     0.40302
      H   18    0.09944      0.00000     0.39971    0.00085     0.40056
      H   19    0.09654      0.00000     0.40242    0.00104     0.40346
      H   20    0.09599      0.00000     0.40284    0.00116     0.40401
      H   21    0.07912      0.00000     0.41942    0.00146     0.42088
      H   22    0.08667      0.00000     0.41217    0.00116     0.41333
      H   23    0.07944      0.00000     0.41881    0.00175     0.42056
      H   24    0.09097      0.00000     0.40758    0.00144     0.40903
      H   25    0.10414      0.00000     0.39428    0.00158     0.39586
      H   26    0.10390      0.00000     0.39486    0.00124     0.39610
      H   27    0.09840      0.00000     0.39994    0.00166     0.40160
      H   28    0.09351      0.00000     0.40502    0.00146     0.40649
      H   29    0.10898      0.00000     0.38956    0.00146     0.39102
      H   30    0.08861      0.00000     0.40962    0.00177     0.41139
      H   31    0.08446      0.00000     0.41355    0.00199     0.41554
      H   32    0.10947      0.00000     0.38855    0.00198     0.39053
      H   33    0.10266      0.00000     0.39569    0.00165     0.39734
      H   34    0.10118      0.00000     0.39766    0.00116     0.39882
      H   35    0.10008      0.00000     0.39888    0.00104     0.39992
      H   36    0.10571      0.00000     0.39310    0.00119     0.39429
 =======================================================================
   * Total *   -0.00000     15.99355    43.81198    0.19447    60.00000

 Normal termination of Gaussian 16 at Thu Dec 10 23:50:36 2020.
