 Gaussian 16, Revision A.03,

 -----------------------------------------------------------
 # opt freq B3LYP/6-31G(d) empiricaldispersion=gd3bj scf=xqc
 -----------------------------------------------------------

 ---------------------------
 CID_89041207_JID_9_neutraal
 ---------------------------
 Symbolic Z-matrix:
 Charge =  0 Multiplicity = 1

 SCF Done:  E(RB3LYP) =  -750.822795695     A.U. after   13 cycles
 SCF Done:  E(RB3LYP) =  -750.824388483     A.U. after   11 cycles
 SCF Done:  E(RB3LYP) =  -750.824514222     A.U. after   10 cycles
 SCF Done:  E(RB3LYP) =  -750.824582881     A.U. after   10 cycles
 SCF Done:  E(RB3LYP) =  -750.824616224     A.U. after   10 cycles
 SCF Done:  E(RB3LYP) =  -750.824620429     A.U. after    9 cycles
 SCF Done:  E(RB3LYP) =  -750.824623013     A.U. after    7 cycles
 SCF Done:  E(RB3LYP) =  -750.824626796     A.U. after    9 cycles
 SCF Done:  E(RB3LYP) =  -750.824629583     A.U. after    8 cycles
 SCF Done:  E(RB3LYP) =  -750.824631405     A.U. after    9 cycles
 SCF Done:  E(RB3LYP) =  -750.824631551     A.U. after    7 cycles
 Optimization completed.
    -- Stationary point found.

 1\1\GINC-NODE371\FOpt\RB3LYP\6-31G(d)\C9H16S1\VSC10255\08-Dec-2020\0\\
 # opt freq B3LYP/6-31G(d) empiricaldispersion=gd3bj scf=xqc\\CID_89041
 207_JID_9_neutraal\\0,1\C,0.9792648166,0.0863408359,-0.0220765086\C,0.
 5475181323,-1.3574807147,-0.1497054465\C,1.3142196225,-2.4077925215,0.
 1966025453\C,0.9017472906,-3.8540837939,-0.0032874936\S,-0.4241391071,
 -4.1526232901,-1.2237660967\C,-1.5213593349,-2.8315296174,-0.603153857
 \C,-0.8505335701,-1.4704112737,-0.7291312027\C,2.7028431624,-2.2514108
 865,0.8129494461\C,2.9352660337,-3.1944002652,2.0071770752\C,3.8020081

 Normal termination of Gaussian 16 at Tue Dec  8 10:16:08 2020.

 --------------------------------------------------------------------
 #N Geom=AllCheck Guess=TCheck SCRF=Check GenChk RB3LYP/6-31G(d) Freq
 --------------------------------------------------------------------

 Structure from the checkpoint file:  "JID_9.chk"
 ---------------------------
 CID_89041207_JID_9_neutraal
 ---------------------------
 Charge =  0 Multiplicity = 1

 SCF Done:  E(RB3LYP) =  -750.824631551     A.U. after    1 cycles

  Exact polarizability: 124.028  -8.327 116.942   0.689   1.927  85.220
 Approx polarizability: 165.757 -18.694 175.608   2.622   5.266 129.097

                      1                      2                      3
                      A                      A                      A
 Frequencies --     55.9185                84.3400               102.4706
 Red. masses --      2.6912                 1.6736                 1.5018
 Frc consts  --      0.0050                 0.0070                 0.0093
 IR Inten    --      0.2360                 0.4115                 0.3679

                      4                      5                      6
                      A                      A                      A
 Frequencies --    123.3051               205.6634               229.8235
 Red. masses --      2.9440                 1.8077                 2.2819
 Frc consts  --      0.0264                 0.0450                 0.0710
 IR Inten    --      0.9075                 0.2235                 0.4498

                      7                      8                      9
                      A                      A                      A
 Frequencies --    243.3269               269.9298               277.3019
 Red. masses --      1.3713                 1.0720                 2.1887
 Frc consts  --      0.0478                 0.0460                 0.0992
 IR Inten    --      0.0641                 0.2429                 1.3159

                     10                     11                     12
                      A                      A                      A
 Frequencies --    286.6454               349.2537               387.5754
 Red. masses --      2.3316                 4.9171                 2.5191
 Frc consts  --      0.1129                 0.3534                 0.2229
 IR Inten    --      0.9146                 0.2158                 2.6917

                     13                     14                     15
                      A                      A                      A
 Frequencies --    393.2095               453.0643               499.4471
 Red. masses --      2.4118                 3.2467                 2.7551
 Frc consts  --      0.2197                 0.3927                 0.4049
 IR Inten    --      0.9375                 0.7254                 1.0140

                     16                     17                     18
                      A                      A                      A
 Frequencies --    567.1078               592.3976               668.6889
 Red. masses --      2.9653                 2.9345                 4.0158
 Frc consts  --      0.5619                 0.6067                 1.0580
 IR Inten    --      0.9176                 1.2461                 1.2744

                     19                     20                     21
                      A                      A                      A
 Frequencies --    703.8391               783.7028               825.2013
 Red. masses --      3.8947                 4.1334                 1.9239
 Frc consts  --      1.1368                 1.4958                 0.7719
 IR Inten    --      2.3956                 6.8656                 2.6585

                     22                     23                     24
                      A                      A                      A
 Frequencies --    888.1761               904.2540               933.7878
 Red. masses --      1.9220                 1.9281                 1.7603
 Frc consts  --      0.8933                 0.9289                 0.9043
 IR Inten    --      1.0378                 0.5370                 1.1134

                     25                     26                     27
                      A                      A                      A
 Frequencies --    941.7567               976.9987              1001.7826
 Red. masses --      1.2454                 1.4722                 1.5722
 Frc consts  --      0.6508                 0.8280                 0.9296
 IR Inten    --      0.5466                 0.0759                 2.4888

                     28                     29                     30
                      A                      A                      A
 Frequencies --   1040.7369              1058.4504              1068.5975
 Red. masses --      1.9462                 1.8516                 1.5832
 Frc consts  --      1.2420                 1.2222                 1.0652
 IR Inten    --      5.1819                 0.5702                 1.1764

                     31                     32                     33
                      A                      A                      A
 Frequencies --   1094.4512              1133.0195              1164.7602
 Red. masses --      2.2881                 2.2897                 2.2963
 Frc consts  --      1.6148                 1.7319                 1.8355
 IR Inten    --      9.2054                 2.2219                 1.2073

                     34                     35                     36
                      A                      A                      A
 Frequencies --   1190.7739              1218.4672              1231.3758
 Red. masses --      1.1999                 2.0056                 1.1632
 Frc consts  --      1.0024                 1.7544                 1.0392
 IR Inten    --      0.4288                 3.6419                 8.4965

                     37                     38                     39
                      A                      A                      A
 Frequencies --   1251.0637              1252.1496              1333.2038
 Red. masses --      1.8371                 1.3581                 1.4743
 Frc consts  --      1.6941                 1.2546                 1.5440
 IR Inten    --      1.0580                 3.1543                 3.3764

                     40                     41                     42
                      A                      A                      A
 Frequencies --   1347.6196              1357.3623              1383.9388
 Red. masses --      1.2718                 1.3536                 1.3473
 Frc consts  --      1.3609                 1.4694                 1.5204
 IR Inten    --     11.9287                 6.2281                 5.1626

                     43                     44                     45
                      A                      A                      A
 Frequencies --   1404.5768              1425.6618              1445.8307
 Red. masses --      1.7344                 1.2274                 1.2216
 Frc consts  --      2.0160                 1.4698                 1.5046
 IR Inten    --      0.7631                 5.0027                 1.3506

                     46                     47                     48
                      A                      A                      A
 Frequencies --   1447.4898              1488.3587              1495.3017
 Red. masses --      1.2231                 1.0897                 1.0764
 Frc consts  --      1.5099                 1.4223                 1.4180
 IR Inten    --      2.2887                 1.0340                 3.1506

                     49                     50                     51
                      A                      A                      A
 Frequencies --   1504.0526              1513.6834              1519.1635
 Red. masses --      1.1010                 1.0527                 1.0446
 Frc consts  --      1.4675                 1.4210                 1.4204
 IR Inten    --      2.3141                 2.9873                 2.6388

                     52                     53                     54
                      A                      A                      A
 Frequencies --   1526.4578              1530.5995              1535.9217
 Red. masses --      1.0539                 1.0563                 1.0434
 Frc consts  --      1.4469                 1.4579                 1.4502
 IR Inten    --      3.9363                 4.3295                 6.9524

                     55                     56                     57
                      A                      A                      A
 Frequencies --   1540.5425              1743.5618              3005.7176
 Red. masses --      1.0547                 7.1804                 1.0637
 Frc consts  --      1.4748                12.8609                 5.6619
 IR Inten    --      4.8221                 1.8826                37.8015

                     58                     59                     60
                      A                      A                      A
 Frequencies --   3030.8388              3037.7765              3039.0634
 Red. masses --      1.0460                 1.0714                 1.0855
 Frc consts  --      5.6613                 5.8254                 5.9067
 IR Inten    --     45.0906                 4.2665                23.0391

                     61                     62                     63
                      A                      A                      A
 Frequencies --   3043.8799              3050.2886              3063.1751
 Red. masses --      1.0351                 1.0371                 1.0665
 Frc consts  --      5.6506                 5.6855                 5.8961
 IR Inten    --     27.5513                38.9601                38.1930

                     64                     65                     66
                      A                      A                      A
 Frequencies --   3075.0904              3079.6766              3094.0824
 Red. masses --      1.0961                 1.0868                 1.0954
 Frc consts  --      6.1068                 6.0731                 6.1785
 IR Inten    --     25.7073                 6.1239                 8.7941

                     67                     68                     69
                      A                      A                      A
 Frequencies --   3107.6549              3115.9823              3119.8243
 Red. masses --      1.1018                 1.1024                 1.1019
 Frc consts  --      6.2690                 6.3066                 6.3189
 IR Inten    --     10.6167                46.4223                36.0994

                     70                     71                     72
                      A                      A                      A
 Frequencies --   3123.3974              3123.8750              3156.4454
 Red. masses --      1.1009                 1.1024                 1.0935
 Frc consts  --      6.3281                 6.3383                 6.4187
 IR Inten    --     51.7429                16.3639                28.2586

 - Thermochemistry -
 -------------------
 Temperature   298.150 Kelvin.  Pressure   1.00000 Atm.
 Atom     1 has atomic number  6 and mass  12.00000

 Molecular mass:   156.09727 amu.
 Principal axes and moments of inertia in atomic units:
                           1         2         3
     Eigenvalues --  1180.806462094.371852785.04488
           X            0.99848  -0.05402  -0.01071
           Y            0.05379   0.99833  -0.02091
           Z            0.01182   0.02030   0.99972
 This molecule is an asymmetric top.
 Rotational symmetry number  1.
 Warning -- assumption of classical behavior for rotation
           may cause significant error
 Rotational temperatures (Kelvin)      0.07335     0.04136     0.03110
 Rotational constants (GHZ):           1.52840     0.86171     0.64801
 Zero-point vibrational energy     611668.0 (Joules/Mol)
                                  146.19217 (Kcal/Mol)
 Warning -- explicit consideration of  17 degrees of freedom as
           vibrations may cause significant error
 Vibrational temperatures:     80.45   121.35   147.43   177.41   295.90
          (Kelvin)            330.66   350.09   388.37   398.98   412.42
                              502.50   557.63   565.74   651.86   718.59
                              815.94   852.33   962.09  1012.67  1127.57
                             1187.28  1277.89  1301.02  1343.51  1354.98
                             1405.68  1441.34  1497.39  1522.87  1537.47
                             1574.67  1630.16  1675.83  1713.26  1753.10
                             1771.68  1800.00  1801.56  1918.18  1938.92
                             1952.94  1991.18  2020.87  2051.21  2080.23
                             2082.61  2141.42  2151.41  2164.00  2177.85
                             2185.74  2196.23  2202.19  2209.85  2216.50
                             2508.60  4324.56  4360.70  4370.68  4372.53
                             4379.46  4388.68  4407.23  4424.37  4430.97
                             4451.69  4471.22  4483.20  4488.73  4493.87
                             4494.56  4541.42

 Zero-point correction=                           0.232972 (Hartree/Particle)
 Thermal correction to Energy=                    0.244558
 Thermal correction to Enthalpy=                  0.245502
 Thermal correction to Gibbs Free Energy=         0.195725
 Sum of electronic and zero-point Energies=           -750.591660
 Sum of electronic and thermal Energies=              -750.580074
 Sum of electronic and thermal Enthalpies=            -750.579129
 Sum of electronic and thermal Free Energies=         -750.628906

                     E (Thermal)             CV                S
                      KCal/Mol        Cal/Mol-Kelvin    Cal/Mol-Kelvin
 Total                  153.462             43.529            104.764
 Electronic               0.000              0.000              0.000
 Translational            0.889              2.981             41.045
 Rotational               0.889              2.981             30.311
 Vibrational            151.685             37.567             33.408
 Vibration     1          0.596              1.975              4.596
 Vibration     2          0.601              1.960              3.787
 Vibration     3          0.605              1.947              3.407
 Vibration     4          0.610              1.930              3.048
 Vibration     5          0.640              1.832              2.082
 Vibration     6          0.652              1.795              1.880
 Vibration     7          0.659              1.774              1.778
 Vibration     8          0.674              1.729              1.597
 Vibration     9          0.678              1.715              1.550
 Vibration    10          0.684              1.699              1.494
 Vibration    11          0.727              1.577              1.170
 Vibration    12          0.756              1.497              1.009
 Vibration    13          0.760              1.485              0.988
 Vibration    14          0.812              1.354              0.787
 Vibration    15          0.855              1.251              0.660
 Vibration    16          0.923              1.102              0.510
 Vibration    17          0.950              1.048              0.463

                           ! Non-Optimized Parameters !

 1\1\GINC-NODE371\Freq\RB3LYP\6-31G(d)\C9H16S1\VSC10255\08-Dec-2020\0\\
 #N Geom=AllCheck Guess=TCheck SCRF=Check GenChk RB3LYP/6-31G(d) Freq\\
 CID_89041207_JID_9_neutraal\\0,1\C,0.9792648166,0.0863408359,-0.022076
 5086\C,0.5475181323,-1.3574807147,-0.1497054465\C,1.3142196225,-2.4077
 925215,0.1966025453\C,0.9017472906,-3.8540837939,-0.0032874936\S,-0.42
 41391071,-4.1526232901,-1.2237660967\C,-1.5213593349,-2.8315296174,-0.
 603153857\C,-0.8505335701,-1.4704112737,-0.7291312027\C,2.7028431624,-
 2.2514108865,0.8129494461\C,2.9352660337,-3.1944002652,2.0071770752\C,

 Normal termination of Gaussian 16 at Tue Dec  8 10:21:15 2020.

 ----------------------------------------------------------------------
 # B3LYP/6-311++G(d,p) empiricaldispersion=gd3bj scf=xqc pop=npa geom=c
 heck
 ----------------------------------------------------------------------

 -----------------------------------
 CID_89041207_JID_9_Energie_neutraal
 -----------------------------------
 Structure from the checkpoint file:  "JID_9.chk"
 Charge =  0 Multiplicity = 1

 SCF Done:  E(RB3LYP) =  -750.946855266     A.U. after   14 cycles
 Normal termination of Gaussian 16 at Tue Dec  8 10:23:18 2020.

 ----------------------------------------------------------------------
 # B3LYP/6-311++G(d,p) empiricaldispersion=gd3bj scf=xqc pop=npa geom=c
 heck
 ----------------------------------------------------------------------

 ---------------------------------
 CID_89041207_JID_9_Energie_kation
 ---------------------------------
 Structure from the checkpoint file:  "JID_9.chk"
 Charge =  1 Multiplicity = 2

 SCF Done:  E(UB3LYP) =  -750.651436938     A.U. after   22 cycles
 Normal termination of Gaussian 16 at Tue Dec  8 10:27:38 2020.
 Gaussian 16:  ES64L-G16RevA.03 25-Dec-2016

 --------------------------------
 CID_89041207_JID_9_Energie_anion
 --------------------------------
 Structure from the checkpoint file:  "JID_9.chk"
 Charge = -1 Multiplicity = 2

                         Standard orientation:
 ---------------------------------------------------------------------
 Center     Atomic      Atomic             Coordinates (Angstroms)
 Number     Number       Type             X           Y           Z
 ---------------------------------------------------------------------
      1          6           0        0.433885    2.595059   -0.060636
      2          6           0       -0.214691    1.233300    0.050162
      3          6           0        0.467841    0.075162    0.111659
      4          6           0       -0.191974   -1.290535    0.148582
      5         16           0       -1.918635   -1.367547   -0.442503
      6          6           0       -2.482786    0.089086    0.503168
      7          6           0       -1.728496    1.338535    0.069065
      8          6           0        1.993796    0.013597    0.128607
      9          6           0        2.539506   -0.975431    1.174289
     10          6           0        2.548691   -0.308117   -1.271201
     11          1           0        0.376168    3.140120    0.892316
     12          1           0       -0.106787    3.203089   -0.797639
     13          1           0        1.479845    2.566059   -0.368816
     14          1           0       -0.149744   -1.710066    1.162023
     15          1           0        0.361415   -1.984505   -0.492865
     16          1           0       -3.556311    0.195462    0.324340
     17          1           0       -2.337443   -0.106534    1.571903
     18          1           0       -2.072466    1.643201   -0.929914
     19          1           0       -2.004244    2.164714    0.743317
     20          1           0        2.374346    0.998232    0.414068
     21          1           0        2.290815   -2.013986    0.930043
     22          1           0        3.631967   -0.904580    1.221636
     23          1           0        2.142882   -0.758310    2.172438
     24          1           0        2.230311    0.444038   -2.000428
     25          1           0        3.644833   -0.335665   -1.258402
     26          1           0        2.197931   -1.284448   -1.626141
 ---------------------------------------------------------------------

 SCF Done:  E(UB3LYP) =  -750.930527911     A.U. after   32 cycles

 The electronic state is 2-A.
 Alpha  occ. eigenvalues --  -88.73356 -10.09549 -10.09491 -10.07157 -10.07089
 Alpha  occ. eigenvalues --  -10.07060 -10.06839 -10.05645 -10.05365 -10.05334
 Alpha  occ. eigenvalues --   -7.82001  -5.78376  -5.78060  -5.77361  -0.74717
 Alpha  occ. eigenvalues --   -0.69756  -0.66973  -0.63691  -0.58116  -0.57849
 Alpha  occ. eigenvalues --   -0.53682  -0.50038  -0.46904  -0.39352  -0.36829
 Alpha  occ. eigenvalues --   -0.36279  -0.34595  -0.33961  -0.32118  -0.31722
 Alpha  occ. eigenvalues --   -0.30652  -0.29632  -0.27974  -0.27241  -0.26557
 Alpha  occ. eigenvalues --   -0.25945  -0.25488  -0.23931  -0.22928  -0.21552
 Alpha  occ. eigenvalues --   -0.19721  -0.12770  -0.12125   0.04705
 Alpha virt. eigenvalues --    0.06736   0.07687   0.08104   0.08883   0.09537
 Alpha virt. eigenvalues --    0.09699   0.10450   0.11106   0.11605   0.11812
 Alpha virt. eigenvalues --    0.12400   0.12804   0.13328   0.13490   0.14356

  Beta  occ. eigenvalues --  -88.73354 -10.09533 -10.09469 -10.07145 -10.07073
  Beta  occ. eigenvalues --  -10.07047 -10.06836 -10.05609 -10.05332 -10.05300
  Beta  occ. eigenvalues --   -7.81999  -5.78375  -5.78054  -5.77358  -0.74695
  Beta  occ. eigenvalues --   -0.69724  -0.66941  -0.63653  -0.58056  -0.57789
  Beta  occ. eigenvalues --   -0.53626  -0.49985  -0.46836  -0.39313  -0.36779
  Beta  occ. eigenvalues --   -0.36240  -0.34558  -0.33934  -0.32078  -0.31685
  Beta  occ. eigenvalues --   -0.30607  -0.29592  -0.27939  -0.27201  -0.26518
  Beta  occ. eigenvalues --   -0.25903  -0.25452  -0.23893  -0.22884  -0.21519
  Beta  occ. eigenvalues --   -0.19691  -0.12748  -0.12105
  Beta virt. eigenvalues --    0.07009   0.07614   0.08344   0.08769   0.09465
  Beta virt. eigenvalues --    0.10036   0.10172   0.10893   0.11508   0.11967
  Beta virt. eigenvalues --    0.12196   0.12800   0.13109   0.13619   0.13839

 Mulliken charges and spin densities:
               1          2
     1  C    2.675105  -3.189725
     2  C   -0.864327   1.096806
     3  C    1.920146  -1.409297
     4  C    1.001515  -1.411280
     5  S    0.232199  -0.255650
     6  C   -0.199341  -0.268321
     7  C   -0.883672   0.313512
     8  C   -4.317601   4.360035
     9  C    0.852891  -1.500760
    10  C    1.304470  -2.048666
    11  H   -0.212083   0.382120
    12  H   -0.231664   0.379931
    13  H   -0.390897   0.529756
    14  H   -0.006912   0.244946
    15  H    0.299594  -0.134840
    16  H   -0.237208   0.457200
    17  H    0.016937   0.166485
    18  H    0.013773   0.110449
    19  H   -0.329292   0.498137
    20  H   -0.150400   0.328312
    21  H   -0.107260   0.243723
    22  H   -0.618125   0.781929
    23  H   -0.178555   0.319897
    24  H   -0.012768   0.149516
    25  H   -0.390468   0.540485
    26  H   -0.186054   0.315303
 Sum of Mulliken charges =  -1.00000   1.00000

 Dipole moment (field-independent basis, Debye):
    X=             -3.7218    Y=             -2.6490    Z=             -1.2266  Tot=              4.7300
 Quadrupole moment (field-independent basis, Debye-Ang):
   XX=           -137.0865   YY=           -115.7789   ZZ=           -106.5292
   XY=              2.0494   XZ=             -0.1286   YZ=             -0.4078

 Summary of Natural Population Analysis:

                                       Natural Population
                Natural  -----------------------------------------------
    Atom  No    Charge         Core      Valence    Rydberg      Total
 -----------------------------------------------------------------------
      C    1   -0.29528      0.99963     2.28925    0.00640     3.29528
      C    2   -0.00618      0.99942     1.99573    0.01103     3.00618
      C    3   -0.02006      0.99940     2.00684    0.01382     3.02006
      C    4   -0.25705      0.99953     2.24850    0.00902     3.25705
      S    5    0.08444      4.99964     2.89863    0.01729     7.91556
      C    6   -0.24762      0.99960     2.23613    0.01188     3.24762
      C    7   -0.20376      0.99958     2.19370    0.01047     3.20376
      C    8   -0.12226      0.99957     2.11117    0.01152     3.12226
      C    9   -0.28360      0.99965     2.27694    0.00702     3.28360
      C   10   -0.28069      0.99964     2.27462    0.00643     3.28069
      H   11    0.10473      0.00000     0.39378    0.00149     0.39527
      H   12    0.10163      0.00000     0.39696    0.00141     0.39837
      H   13    0.10393      0.00000     0.39472    0.00135     0.39607
      H   14    0.10512      0.00000     0.39297    0.00191     0.39488
      H   15    0.10859      0.00000     0.39001    0.00139     0.39141
      H   16    0.10578      0.00000     0.39309    0.00113     0.39422
      H   17    0.10034      0.00000     0.39797    0.00169     0.39966
      H   18    0.10279      0.00000     0.39542    0.00179     0.39721
      H   19    0.10469      0.00000     0.39344    0.00188     0.39531
      H   20    0.10174      0.00000     0.39583    0.00243     0.39826
      H   21    0.09415      0.00000     0.40470    0.00115     0.40585
      H   22    0.10218      0.00000     0.39648    0.00134     0.39782
      H   23    0.10149      0.00000     0.39714    0.00138     0.39851
      H   24    0.10124      0.00000     0.39760    0.00117     0.39876
      H   25    0.10034      0.00000     0.39837    0.00129     0.39966
      H   26    0.09332      0.00000     0.40555    0.00113     0.40668
 =======================================================================
   * Total *    0.00000     13.99566    28.87551    0.12882    43.00000

 Normal termination of Gaussian 16 at Tue Dec  8 10:34:25 2020.
