 Gaussian 16, Revision A.03,

 -----------------------------------------------------------
 # opt freq B3LYP/6-31G(d) empiricaldispersion=gd3bj scf=xqc
 -----------------------------------------------------------

 -----------------------------
 CID_13451954_JID_160_neutraal
 -----------------------------
 Symbolic Z-matrix:
 Charge =  0 Multiplicity = 1

 SCF Done:  E(RB3LYP) =  -463.708350318     A.U. after   14 cycles
 SCF Done:  E(RB3LYP) =  -463.713583985     A.U. after   12 cycles
 SCF Done:  E(RB3LYP) =  -463.715145853     A.U. after   12 cycles
 SCF Done:  E(RB3LYP) =  -463.716188411     A.U. after   12 cycles
 SCF Done:  E(RB3LYP) =  -463.717239551     A.U. after   13 cycles
 SCF Done:  E(RB3LYP) =  -463.717596329     A.U. after   13 cycles
 SCF Done:  E(RB3LYP) =  -463.717743475     A.U. after   11 cycles
 SCF Done:  E(RB3LYP) =  -463.717846451     A.U. after   12 cycles
 SCF Done:  E(RB3LYP) =  -463.718115089     A.U. after   13 cycles
 SCF Done:  E(RB3LYP) =  -463.718015973     A.U. after   14 cycles
 SCF Done:  E(RB3LYP) =  -463.719219969     A.U. after   12 cycles
 SCF Done:  E(RB3LYP) =  -463.719246415     A.U. after   11 cycles
 SCF Done:  E(RB3LYP) =  -463.719255116     A.U. after    9 cycles
 SCF Done:  E(RB3LYP) =  -463.719256520     A.U. after    8 cycles
 SCF Done:  E(RB3LYP) =  -463.719256699     A.U. after    8 cycles
 SCF Done:  E(RB3LYP) =  -463.719256756     A.U. after    7 cycles
 Optimization completed.
    -- Stationary point found.

 1\1\GINC-NODE205\FOpt\RB3LYP\6-31G(d)\C8H14O2\VSC10255\08-Dec-2020\0\\
 # opt freq B3LYP/6-31G(d) empiricaldispersion=gd3bj scf=xqc\\CID_13451
 954_JID_160_neutraal\\0,1\C,0.152836142,-0.4353925721,0.132253465\C,0.
 6517698538,-0.1699386008,1.5553752113\C,1.3694151416,1.1733089494,1.69
 93760213\C,0.4466793813,2.3860833885,1.6285143658\O,-0.7655008108,2.27
 68537245,1.5357362789\C,1.1180826388,3.7133993731,1.7231337128\C,0.341
 1179108,4.9510001354,1.2949841156\C,0.5864844074,4.7513883175,2.737918
 6197\O,-0.5009786049,4.4590641534,3.5398238378\C,-0.1635939662,3.66511

 Normal termination of Gaussian 16 at Tue Dec  8 10:21:45 2020.

 --------------------------------------------------------------------
 #N Geom=AllCheck Guess=TCheck SCRF=Check GenChk RB3LYP/6-31G(d) Freq
 --------------------------------------------------------------------

 Structure from the checkpoint file:  "JID_160.chk"
 -----------------------------
 CID_13451954_JID_160_neutraal
 -----------------------------
 Charge =  0 Multiplicity = 1

 SCF Done:  E(RB3LYP) =  -463.719256756     A.U. after    1 cycles

  Exact polarizability: 101.452   2.906  84.164  -1.677  -1.225  78.789
 Approx polarizability: 123.055   3.289 114.094  -0.748  -4.477 128.195

                      1                      2                      3
                      A                      A                      A
 Frequencies --     34.3579                57.5158               108.0670
 Red. masses --      3.5153                 2.9644                 3.3344
 Frc consts  --      0.0024                 0.0058                 0.0229
 IR Inten    --      0.1847                 0.7362                 1.8628

                      4                      5                      6
                      A                      A                      A
 Frequencies --    122.0972               148.9569               180.0039
 Red. masses --      2.8861                 1.7695                 1.4444
 Frc consts  --      0.0253                 0.0231                 0.0276
 IR Inten    --      3.7303                 1.0533                 0.0488

                      7                      8                      9
                      A                      A                      A
 Frequencies --    214.9167               226.1931               266.5761
 Red. masses --      2.3694                 1.9375                 1.9243
 Frc consts  --      0.0645                 0.0584                 0.0806
 IR Inten    --      3.8406                 0.9801                 1.9445

                     10                     11                     12
                      A                      A                      A
 Frequencies --    307.4802               326.0100               421.7441
 Red. masses --      2.0651                 3.2932                 2.6928
 Frc consts  --      0.1150                 0.2062                 0.2822
 IR Inten    --      3.0245                 7.8119                 1.3943

                     13                     14                     15
                      A                      A                      A
 Frequencies --    443.2293               505.1689               604.0098
 Red. masses --      3.6090                 2.8335                 2.9285
 Frc consts  --      0.4177                 0.4260                 0.6295
 IR Inten    --      3.9290                 0.9462                 4.3870

                     16                     17                     18
                      A                      A                      A
 Frequencies --    662.5063               760.8659               771.8832
 Red. masses --      2.3751                 2.9793                 1.7001
 Frc consts  --      0.6142                 1.0162                 0.5968
 IR Inten    --      1.4681                 9.3392                 2.3320

                     19                     20                     21
                      A                      A                      A
 Frequencies --    830.1060               849.3440               886.9660
 Red. masses --      1.7233                 1.5040                 2.7434
 Frc consts  --      0.6996                 0.6392                 1.2716
 IR Inten    --      0.6590                13.8928                 6.5366

                     22                     23                     24
                      A                      A                      A
 Frequencies --    913.8848               953.6396               980.7652
 Red. masses --      1.7027                 2.2270                 3.1312
 Frc consts  --      0.8378                 1.1933                 1.7746
 IR Inten    --      3.0374                90.4622                 3.3106

                     25                     26                     27
                      A                      A                      A
 Frequencies --   1060.9822              1069.7979              1080.1237
 Red. masses --      3.3893                 1.4797                 1.4312
 Frc consts  --      2.2479                 0.9977                 0.9838
 IR Inten    --     91.8760                 9.0776                 5.7561

                     28                     29                     30
                      A                      A                      A
 Frequencies --   1106.5166              1109.6541              1118.3352
 Red. masses --      1.6425                 1.6670                 1.9262
 Frc consts  --      1.1849                 1.2094                 1.4194
 IR Inten    --      3.7746                34.9987                37.7219

                     31                     32                     33
                      A                      A                      A
 Frequencies --   1133.3490              1161.7126              1175.3641
 Red. masses --      1.3658                 1.9153                 1.6708
 Frc consts  --      1.0336                 1.5229                 1.3599
 IR Inten    --     21.1017                46.8554                16.3390

                     34                     35                     36
                      A                      A                      A
 Frequencies --   1193.9920              1237.1912              1257.8369
 Red. masses --      1.3207                 1.5269                 1.3141
 Frc consts  --      1.1093                 1.3770                 1.2250
 IR Inten    --      6.3421                 0.4891                 0.6914

                     37                     38                     39
                      A                      A                      A
 Frequencies --   1279.7355              1314.4004              1382.4026
 Red. masses --      2.2031                 1.2522                 1.3903
 Frc consts  --      2.1258                 1.2746                 1.5654
 IR Inten    --     74.7509                 6.9261                 9.4038

                     40                     41                     42
                      A                      A                      A
 Frequencies --   1397.2104              1414.7304              1430.5629
 Red. masses --      1.4371                 1.3433                 1.8145
 Frc consts  --      1.6529                 1.5841                 2.1878
 IR Inten    --      5.4140                39.8304                77.4175

                     43                     44                     45
                      A                      A                      A
 Frequencies --   1439.2530              1481.1096              1488.4084
 Red. masses --      1.3516                 1.0956                 1.2650
 Frc consts  --      1.6496                 1.4161                 1.6511
 IR Inten    --     13.3323                10.8272                23.1087

                     46                     47                     48
                      A                      A                      A
 Frequencies --   1512.8245              1513.9709              1517.7304
 Red. masses --      1.0840                 1.2151                 1.0932
 Frc consts  --      1.4617                 1.6410                 1.4837
 IR Inten    --      6.1684                15.7552                 2.6185

                     49                     50                     51
                      A                      A                      A
 Frequencies --   1528.6055              1532.4771              1544.4691
 Red. masses --      1.0508                 1.0976                 1.0518
 Frc consts  --      1.4466                 1.5187                 1.4782
 IR Inten    --      6.3006                 2.8280                 5.3495

                     52                     53                     54
                      A                      A                      A
 Frequencies --   1788.6041              3007.3267              3017.7365
 Red. masses --     10.1772                 1.0393                 1.0611
 Frc consts  --     19.1826                 5.5379                 5.6934
 IR Inten    --     99.4864                50.5786                28.3600

                     55                     56                     57
                      A                      A                      A
 Frequencies --   3043.4251              3046.3958              3054.2528
 Red. masses --      1.0836                 1.0454                 1.0743
 Frc consts  --      5.9135                 5.7161                 5.9044
 IR Inten    --      5.3542                40.1776                38.5443

                     58                     59                     60
                      A                      A                      A
 Frequencies --   3064.2286              3091.6929              3096.3916
 Red. masses --      1.1011                 1.0978                 1.0876
 Frc consts  --      6.0916                 6.1828                 6.1439
 IR Inten    --     62.1705                12.8601                36.5158

                     61                     62                     63
                      A                      A                      A
 Frequencies --   3110.5991              3144.3381              3153.8789
 Red. masses --      1.1003                 1.1004                 1.0983
 Frc consts  --      6.2727                 6.4098                 6.4366
 IR Inten    --     48.9121                25.1029                27.1596

                     64                     65                     66
                      A                      A                      A
 Frequencies --   3158.0306              3174.3745              3250.4855
 Red. masses --      1.0541                 1.0894                 1.1187
 Frc consts  --      6.1938                 6.4677                 6.9640
 IR Inten    --      9.9723                13.0380                 3.3244

 - Thermochemistry -
 -------------------
 Temperature   298.150 Kelvin.  Pressure   1.00000 Atm.
 Atom     1 has atomic number  6 and mass  12.00000

 Molecular mass:   142.09938 amu.
 Principal axes and moments of inertia in atomic units:
                           1         2         3
     Eigenvalues --   737.995602438.488942704.08866
           X            0.99997  -0.00229  -0.00715
           Y            0.00240   0.99988   0.01532
           Z            0.00711  -0.01534   0.99986
 This molecule is an asymmetric top.
 Rotational symmetry number  1.
 Warning -- assumption of classical behavior for rotation
           may cause significant error
 Rotational temperatures (Kelvin)      0.11736     0.03552     0.03203
 Rotational constants (GHZ):           2.44546     0.74011     0.66741
 Zero-point vibrational energy     551842.1 (Joules/Mol)
                                  131.89343 (Kcal/Mol)
 Warning -- explicit consideration of  15 degrees of freedom as
           vibrations may cause significant error
 Vibrational temperatures:     49.43    82.75   155.48   175.67   214.32
          (Kelvin)            258.99   309.22   325.44   383.54   442.40
                              469.06   606.80   637.71   726.83   869.04
                              953.20  1094.72  1110.57  1194.34  1222.02
                             1276.15  1314.88  1372.07  1411.10  1526.52
                             1539.20  1554.06  1592.03  1596.54  1609.03
                             1630.64  1671.45  1691.09  1717.89  1780.04
                             1809.75  1841.25  1891.13  1988.97  2010.27
                             2035.48  2058.26  2070.76  2130.99  2141.49
                             2176.62  2178.27  2183.68  2199.32  2204.89
                             2222.15  2573.40  4326.87  4341.85  4378.81
                             4383.08  4394.39  4408.74  4448.26  4455.02
                             4475.46  4524.00  4537.73  4543.70  4567.22
                             4676.72

 Zero-point correction=                           0.210186 (Hartree/Particle)
 Thermal correction to Energy=                    0.221604
 Thermal correction to Enthalpy=                  0.222548
 Thermal correction to Gibbs Free Energy=         0.172304
 Sum of electronic and zero-point Energies=           -463.509071
 Sum of electronic and thermal Energies=              -463.497653
 Sum of electronic and thermal Enthalpies=            -463.496708
 Sum of electronic and thermal Free Energies=         -463.546953

                     E (Thermal)             CV                S
                      KCal/Mol        Cal/Mol-Kelvin    Cal/Mol-Kelvin
 Total                  139.059             40.985            105.748
 Electronic               0.000              0.000              0.000
 Translational            0.889              2.981             40.765
 Rotational               0.889              2.981             29.966
 Vibrational            137.281             35.023             35.017
 Vibration     1          0.594              1.983              5.560
 Vibration     2          0.596              1.974              4.541
 Vibration     3          0.606              1.943              3.303
 Vibration     4          0.610              1.931              3.067
 Vibration     5          0.618              1.904              2.686
 Vibration     6          0.629              1.867              2.328
 Vibration     7          0.645              1.818              2.002
 Vibration     8          0.650              1.801              1.909
 Vibration     9          0.672              1.734              1.618
 Vibration    10          0.697              1.659              1.376
 Vibration    11          0.710              1.623              1.280
 Vibration    12          0.784              1.423              0.886
 Vibration    13          0.803              1.376              0.817
 Vibration    14          0.860              1.239              0.645
 Vibration    15          0.962              1.023              0.443

 Optimization completed.
    -- Stationary point found.

 1\1\GINC-NODE205\Freq\RB3LYP\6-31G(d)\C8H14O2\VSC10255\08-Dec-2020\0\\
 #N Geom=AllCheck Guess=TCheck SCRF=Check GenChk RB3LYP/6-31G(d) Freq\\
 CID_13451954_JID_160_neutraal\\0,1\C,0.152836142,-0.4353925721,0.13225
 3465\C,0.6517698538,-0.1699386008,1.5553752113\C,1.3694151416,1.173308
 9494,1.6993760213\C,0.4466793813,2.3860833885,1.6285143658\O,-0.765500
 8108,2.2768537245,1.5357362789\C,1.1180826388,3.7133993731,1.723133712
 8\C,0.3411179108,4.9510001354,1.2949841156\C,0.5864844074,4.7513883175
 ,2.7379186197\O,-0.5009786049,4.4590641534,3.5398238378\C,-0.163593966

 Normal termination of Gaussian 16 at Tue Dec  8 10:25:49 2020.

 ----------------------------------------------------------------------
 # B3LYP/6-311++G(d,p) empiricaldispersion=gd3bj scf=xqc pop=npa geom=c
 heck
 ----------------------------------------------------------------------

 -------------------------------------
 CID_13451954_JID_160_Energie_neutraal
 -------------------------------------
 Structure from the checkpoint file:  "JID_160.chk"
 Charge =  0 Multiplicity = 1

 SCF Done:  E(RB3LYP) =  -463.854017134     A.U. after   14 cycles
 Normal termination of Gaussian 16 at Tue Dec  8 10:27:36 2020.

 ----------------------------------------------------------------------
 # B3LYP/6-311++G(d,p) empiricaldispersion=gd3bj scf=xqc pop=npa geom=c
 heck
 ----------------------------------------------------------------------

 -----------------------------------
 CID_13451954_JID_160_Energie_kation
 -----------------------------------
 Structure from the checkpoint file:  "JID_160.chk"
 Charge =  1 Multiplicity = 2

 SCF Done:  E(UB3LYP) =  -463.531314513     A.U. after   22 cycles
 Normal termination of Gaussian 16 at Tue Dec  8 10:31:26 2020.
 Gaussian 16:  ES64L-G16RevA.03 25-Dec-2016

 ----------------------------------
 CID_13451954_JID_160_Energie_anion
 ----------------------------------
 Structure from the checkpoint file:  "JID_160.chk"
 Charge = -1 Multiplicity = 2

                         Standard orientation:
 ---------------------------------------------------------------------
 Center     Atomic      Atomic             Coordinates (Angstroms)
 Number     Number       Type             X           Y           Z
 ---------------------------------------------------------------------
      1          6           0       -3.577362    0.236645    0.486714
      2          6           0       -2.727254   -0.771839   -0.291074
      3          6           0       -1.520895   -0.133753   -0.982166
      4          6           0       -0.412619    0.302599   -0.028958
      5          8           0       -0.466324    0.090554    1.171905
      6          6           0        0.760324    0.966807   -0.664991
      7          6           0        1.717168    1.752613    0.221351
      8          6           0        2.181780    0.461952   -0.326774
      9          8           0        2.365477   -0.583187    0.559240
     10          6           0        2.150924   -1.853883   -0.029927
     11          1           0       -2.988352    0.707639    1.278201
     12          1           0       -4.440554   -0.252555    0.951403
     13          1           0       -3.957757    1.024851   -0.175552
     14          1           0       -2.369302   -1.550930    0.391276
     15          1           0       -3.344652   -1.268118   -1.050302
     16          1           0       -1.068318   -0.827572   -1.706884
     17          1           0       -1.827653    0.740620   -1.575841
     18          1           0        0.619773    1.298154   -1.690539
     19          1           0        2.134392    2.678101   -0.163247
     20          1           0        1.448564    1.744208    1.273644
     21          1           0        2.874009    0.464974   -1.172885
     22          1           0        2.363047   -2.598129    0.740237
     23          1           0        1.110954   -1.968847   -0.365317
     24          1           0        2.820228   -2.018185   -0.888393
 ---------------------------------------------------------------------

 SCF Done:  E(UB3LYP) =  -463.840099110     A.U. after   30 cycles

 The electronic state is 2-A.
 Alpha  occ. eigenvalues --  -19.03204 -18.99822 -10.14949 -10.13096 -10.11012
 Alpha  occ. eigenvalues --  -10.07690 -10.07442 -10.06687 -10.06313 -10.05448
 Alpha  occ. eigenvalues --   -0.95173  -0.93089  -0.75571  -0.68930  -0.61720
 Alpha  occ. eigenvalues --   -0.59427  -0.54183  -0.49369  -0.48294  -0.43031
 Alpha  occ. eigenvalues --   -0.41008  -0.38764  -0.36298  -0.35809  -0.35067
 Alpha  occ. eigenvalues --   -0.33580  -0.32102  -0.30791  -0.29899  -0.28221
 Alpha  occ. eigenvalues --   -0.26906  -0.25406  -0.24413  -0.23585  -0.23481
 Alpha  occ. eigenvalues --   -0.21112  -0.19394  -0.15945  -0.13983   0.04718
 Alpha virt. eigenvalues --    0.07127   0.07479   0.08130   0.08747   0.09518
 Alpha virt. eigenvalues --    0.09829   0.10623   0.11213   0.11844   0.12455
 Alpha virt. eigenvalues --    0.12659   0.13505   0.14242   0.15256   0.15569

  Beta  occ. eigenvalues --  -19.03198 -18.99808 -10.14943 -10.13071 -10.10979
  Beta  occ. eigenvalues --  -10.07670 -10.07429 -10.06653 -10.06299 -10.05431
  Beta  occ. eigenvalues --   -0.95158  -0.93062  -0.75523  -0.68887  -0.61671
  Beta  occ. eigenvalues --   -0.59371  -0.54132  -0.49300  -0.48232  -0.42965
  Beta  occ. eigenvalues --   -0.40939  -0.38708  -0.36265  -0.35753  -0.35030
  Beta  occ. eigenvalues --   -0.33545  -0.32056  -0.30759  -0.29861  -0.28185
  Beta  occ. eigenvalues --   -0.26860  -0.25371  -0.24379  -0.23544  -0.23443
  Beta  occ. eigenvalues --   -0.21078  -0.19341  -0.15923  -0.13953
  Beta virt. eigenvalues --    0.07210   0.07901   0.08144   0.08493   0.09395
  Beta virt. eigenvalues --    0.09981   0.10414   0.11188   0.11643   0.12107
  Beta virt. eigenvalues --    0.12763   0.13206   0.13883   0.14510   0.15358

 Mulliken charges and spin densities:
               1          2
     1  C    0.267773  -0.874267
     2  C   -0.247788   0.077137
     3  C    0.830868  -0.931018
     4  C    0.052599  -0.422185
     5  O   -0.237245  -0.008774
     6  C   -0.238548   0.611224
     7  C    0.771160  -1.226332
     8  C    0.403877  -0.764679
     9  O   -0.108787   0.032533
    10  C    0.469833  -0.754957
    11  H    0.040977   0.131084
    12  H   -0.033969   0.155660
    13  H   -0.093530   0.214405
    14  H    0.108064   0.029901
    15  H   -0.295131   0.451117
    16  H   -0.299963   0.479283
    17  H   -0.224807   0.373620
    18  H   -1.231922   1.526812
    19  H   -0.211565   0.383484
    20  H    0.156269   0.026320
    21  H   -0.463012   0.645654
    22  H    0.019124   0.115451
    23  H    0.033623   0.124571
    24  H   -0.467899   0.603955
 Sum of Mulliken charges =  -1.00000   1.00000

 Dipole moment (field-independent basis, Debye):
    X=             -1.1724    Y=             -0.8736    Z=              5.5312  Tot=              5.7212
 Quadrupole moment (field-independent basis, Debye-Ang):
   XX=           -118.4861   YY=            -93.2052   ZZ=           -107.0730
   XY=             -0.6774   XZ=              4.8197   YZ=              3.4391

 Summary of Natural Population Analysis:

                                       Natural Population
                Natural  -----------------------------------------------
    Atom  No    Charge         Core      Valence    Rydberg      Total
 -----------------------------------------------------------------------
      C    1   -0.28740      0.99966     2.28225    0.00548     3.28740
      C    2   -0.19252      0.99965     2.18363    0.00925     3.19252
      C    3   -0.23441      0.99958     2.22584    0.00900     3.23441
      C    4    0.28779      0.99963     1.68982    0.02276     2.71221
      O    5   -0.29795      0.99988     3.29213    0.00594     4.29795
      C    6   -0.17672      0.99954     2.16422    0.01296     3.17672
      C    7   -0.19250      0.99959     2.18214    0.01077     3.19250
      C    8    0.07729      0.99950     1.90685    0.01636     2.92271
      O    9   -0.28612      0.99987     3.27687    0.00938     4.28612
      C   10   -0.09555      0.99960     2.08697    0.00898     3.09555
      H   11    0.10411      0.00000     0.39493    0.00096     0.39589
      H   12    0.09467      0.00000     0.40460    0.00073     0.40533
      H   13    0.09406      0.00000     0.40497    0.00096     0.40594
      H   14    0.09972      0.00000     0.39906    0.00122     0.40028
      H   15    0.09617      0.00000     0.40254    0.00129     0.40383
      H   16    0.11403      0.00000     0.38408    0.00189     0.38597
      H   17    0.10990      0.00000     0.38787    0.00223     0.39010
      H   18    0.11707      0.00000     0.37673    0.00620     0.38293
      H   19    0.10671      0.00000     0.39234    0.00096     0.39329
      H   20    0.11576      0.00000     0.38284    0.00140     0.38424
      H   21    0.09363      0.00000     0.40230    0.00408     0.40637
      H   22    0.08753      0.00000     0.41155    0.00092     0.41247
      H   23    0.08292      0.00000     0.41557    0.00151     0.41708
      H   24    0.08181      0.00000     0.41644    0.00175     0.41819
 =======================================================================
   * Total *    0.00000      9.99650    28.86652    0.13698    39.00000

 Normal termination of Gaussian 16 at Tue Dec  8 10:38:11 2020.
