 Gaussian 16, Revision A.03,

 -----------------------------------------------------------
 # opt freq B3LYP/6-31G(d) empiricaldispersion=gd3bj scf=xqc
 -----------------------------------------------------------

 ------------------------------
 CID_20373200_JID_3245_neutraal
 ------------------------------
 Symbolic Z-matrix:
 Charge =  0 Multiplicity = 1

 SCF Done:  E(RB3LYP) =  -595.361653157     A.U. after   15 cycles
 SCF Done:  E(RB3LYP) =  -595.364289022     A.U. after   12 cycles
 SCF Done:  E(RB3LYP) =  -595.363852509     A.U. after   12 cycles
 SCF Done:  E(RB3LYP) =  -595.364795697     A.U. after   12 cycles
 SCF Done:  E(RB3LYP) =  -595.364981992     A.U. after   12 cycles
 SCF Done:  E(RB3LYP) =  -595.365149661     A.U. after   13 cycles
 SCF Done:  E(RB3LYP) =  -595.365206423     A.U. after   12 cycles
 SCF Done:  E(RB3LYP) =  -595.364755627     A.U. after   13 cycles
 SCF Done:  E(RB3LYP) =  -595.365538494     A.U. after   12 cycles
 SCF Done:  E(RB3LYP) =  -595.366048319     A.U. after   14 cycles
 SCF Done:  E(RB3LYP) =  -595.368470344     A.U. after    9 cycles
 SCF Done:  E(RB3LYP) =  -595.368474434     A.U. after    9 cycles
 SCF Done:  E(RB3LYP) =  -595.368474911     A.U. after    7 cycles
 SCF Done:  E(RB3LYP) =  -595.368475033     A.U. after    7 cycles
 SCF Done:  E(RB3LYP) =  -595.368475088     A.U. after    7 cycles
 Optimization completed.
    -- Stationary point found.
 Normal termination of Gaussian 16 at Wed Dec  9 22:51:36 2020.

 --------------------------------------------------------------------
 #N Geom=AllCheck Guess=TCheck SCRF=Check GenChk RB3LYP/6-31G(d) Freq
 --------------------------------------------------------------------

 Structure from the checkpoint file:  "JID_3245.chk"
 ------------------------------
 CID_20373200_JID_3245_neutraal
 ------------------------------
 Charge =  0 Multiplicity = 1

 SCF Done:  E(RB3LYP) =  -595.368475088     A.U. after    1 cycles

  Exact polarizability: 135.796  -2.601 123.112  -5.733  -4.638  84.716
 Approx polarizability: 183.021   0.291 192.687  -9.023  -7.917 123.664

                      1                      2                      3
                      A                      A                      A
 Frequencies --     34.1875                58.8620                74.8174
 Red. masses --      4.5101                 7.6457                 1.2967
 Frc consts  --      0.0031                 0.0156                 0.0043
 IR Inten    --      0.5744                 1.0744                 0.0832

                      4                      5                      6
                      A                      A                      A
 Frequencies --     89.4460               145.3775               151.0369
 Red. masses --      2.3463                 1.6203                 1.8087
 Frc consts  --      0.0111                 0.0202                 0.0243
 IR Inten    --      0.2139                 0.5313                 0.1128

                      7                      8                      9
                      A                      A                      A
 Frequencies --    157.9078               179.6134               192.4942
 Red. masses --      1.0225                 3.1009                 2.3312
 Frc consts  --      0.0150                 0.0589                 0.0509
 IR Inten    --      0.0656                 4.0623                 0.1880

                     10                     11                     12
                      A                      A                      A
 Frequencies --    222.7307               247.5194               272.8157
 Red. masses --      1.6354                 1.5751                 2.7493
 Frc consts  --      0.0478                 0.0569                 0.1206
 IR Inten    --      0.2350                 0.1352                 1.1106

                     13                     14                     15
                      A                      A                      A
 Frequencies --    288.3747               294.8663               311.8653
 Red. masses --      3.2670                 2.9046                 3.8423
 Frc consts  --      0.1601                 0.1488                 0.2202
 IR Inten    --      0.5366                 0.9724                 0.2797

                     16                     17                     18
                      A                      A                      A
 Frequencies --    359.8278               442.8158               467.9646
 Red. masses --      4.9691                 1.2325                 4.2808
 Frc consts  --      0.3791                 0.1424                 0.5523
 IR Inten    --      1.1527                60.3734                10.6744

                     19                     20                     21
                      A                      A                      A
 Frequencies --    498.7388               589.7465               596.8716
 Red. masses --      3.0500                 3.5629                 2.0783
 Frc consts  --      0.4470                 0.7301                 0.4362
 IR Inten    --      0.5290                23.8871                44.3119

                     22                     23                     24
                      A                      A                      A
 Frequencies --    610.6687               641.1909               650.7608
 Red. masses --      3.2077                 2.2725                 3.2868
 Frc consts  --      0.7048                 0.5505                 0.8201
 IR Inten    --     41.4422                19.0136                 5.7705

                     25                     26                     27
                      A                      A                      A
 Frequencies --    703.7404               721.0197               811.4947
 Red. masses --      3.8259                 3.1146                 4.3226
 Frc consts  --      1.1164                 0.9540                 1.6771
 IR Inten    --     25.4082                29.2680                14.5031

                     28                     29                     30
                      A                      A                      A
 Frequencies --    815.8876               850.9926               989.6169
 Red. masses --      3.4790                 2.8134                 1.5807
 Frc consts  --      1.3645                 1.2004                 0.9121
 IR Inten    --      1.1948                 1.4228                 1.0676

                     31                     32                     33
                      A                      A                      A
 Frequencies --   1008.4831              1017.2522              1049.2157
 Red. masses --      1.7968                 1.6167                 1.6005
 Frc consts  --      1.0767                 0.9857                 1.0381
 IR Inten    --     17.9609                 7.2348                32.2631

                     34                     35                     36
                      A                      A                      A
 Frequencies --   1067.0360              1068.4206              1078.8051
 Red. masses --      1.6816                 1.4849                 1.4191
 Frc consts  --      1.1281                 0.9987                 0.9731
 IR Inten    --     29.0274                20.0808                 4.9317

                     37                     38                     39
                      A                      A                      A
 Frequencies --   1083.8981              1135.4714              1179.7387
 Red. masses --      1.4749                 2.3343                 3.4135
 Frc consts  --      1.0209                 1.7732                 2.7991
 IR Inten    --      1.2080                 7.9124                 4.8733

                     40                     41                     42
                      A                      A                      A
 Frequencies --   1208.4655              1226.1851              1263.3729
 Red. masses --      2.2717                 3.0541                 1.7058
 Frc consts  --      1.9546                 2.7055                 1.6042
 IR Inten    --    121.2623                35.0557                13.7663

                     43                     44                     45
                      A                      A                      A
 Frequencies --   1321.9563              1350.7265              1364.8713
 Red. masses --      2.1135                 1.7961                 2.0834
 Frc consts  --      2.1761                 1.9307                 2.2866
 IR Inten    --     10.2583                 5.8104                32.1321

                     46                     47                     48
                      A                      A                      A
 Frequencies --   1377.2363              1436.0806              1439.3227
 Red. masses --      1.8084                 1.3019                 1.2630
 Frc consts  --      2.0209                 1.5819                 1.5416
 IR Inten    --     10.8341                 1.2762                 3.7351

                     49                     50                     51
                      A                      A                      A
 Frequencies --   1448.0163              1457.0761              1472.3091
 Red. masses --      1.2696                 1.2538                 3.5390
 Frc consts  --      1.5684                 1.5684                 4.5199
 IR Inten    --      3.0433                 1.8628                11.3260

                     52                     53                     54
                      A                      A                      A
 Frequencies --   1496.1794              1511.1960              1513.7070
 Red. masses --      2.1337                 1.0510                 1.1526
 Frc consts  --      2.8141                 1.4142                 1.5559
 IR Inten    --     22.8887                 1.9975                 1.8031

                     55                     56                     57
                      A                      A                      A
 Frequencies --   1516.8268              1524.9954              1527.0601
 Red. masses --      1.0585                 1.0603                 1.1983
 Frc consts  --      1.4349                 1.4529                 1.6463
 IR Inten    --     11.3919                 3.6564                 0.4959

                     58                     59                     60
                      A                      A                      A
 Frequencies --   1533.0308              1536.4926              1545.2155
 Red. masses --      1.0739                 1.1463                 1.1208
 Frc consts  --      1.4870                 1.5944                 1.5768
 IR Inten    --      6.0147                 5.0760                 6.5702

                     61                     62                     63
                      A                      A                      A
 Frequencies --   1586.6359              1668.0659              1837.5875
 Red. masses --      4.6852                 5.0499                 9.4339
 Frc consts  --      6.9492                 8.2786                18.7688
 IR Inten    --      7.0647                 7.7825               266.2433

                     64                     65                     66
                      A                      A                      A
 Frequencies --   3024.3173              3031.6344              3034.9639
 Red. masses --      1.0416                 1.0435                 1.0424
 Frc consts  --      5.6133                 5.6507                 5.6573
 IR Inten    --     75.0000                49.3773                36.2867

                     67                     68                     69
                      A                      A                      A
 Frequencies --   3062.9283              3065.0008              3085.6650
 Red. masses --      1.0395                 1.1013                 1.0939
 Frc consts  --      5.7456                 6.0954                 6.1366
 IR Inten    --     31.5294                29.9476                17.3490

                     70                     71                     72
                      A                      A                      A
 Frequencies --   3087.0921              3093.5496              3121.0955
 Red. masses --      1.0980                 1.0840                 1.1000
 Frc consts  --      6.1654                 6.1121                 6.3133
 IR Inten    --     30.1877                 7.8404                23.6293

                     73                     74                     75
                      A                      A                      A
 Frequencies --   3125.5506              3135.4652              3138.9175
 Red. masses --      1.1020                 1.0979                 1.0941
 Frc consts  --      6.3431                 6.3597                 6.3514
 IR Inten    --     30.1975                 6.1972                15.5441

                     76                     77                     78
                      A                      A                      A
 Frequencies --   3166.1281              3652.1199              3682.3639
 Red. masses --      1.0983                 1.0797                 1.0640
 Frc consts  --      6.4869                 8.4848                 8.5003
 IR Inten    --     16.1666                40.0195                45.1312

 - Thermochemistry -
 -------------------
 Temperature   298.150 Kelvin.  Pressure   1.00000 Atm.
 Atom     1 has atomic number  6 and mass  12.00000

 Molecular mass:   181.11028 amu.
 Principal axes and moments of inertia in atomic units:
                           1         2         3
     Eigenvalues --  1560.854732985.738863719.22097
           X            0.99899  -0.04034  -0.01983
           Y            0.03986   0.99892  -0.02402
           Z            0.02078   0.02320   0.99951
 This molecule is an asymmetric top.
 Rotational symmetry number  1.
 Warning -- assumption of classical behavior for rotation
           may cause significant error
 Rotational temperatures (Kelvin)      0.05549     0.02901     0.02329
 Rotational constants (GHZ):           1.15625     0.60445     0.48525
 Zero-point vibrational energy     627028.5 (Joules/Mol)
                                  149.86341 (Kcal/Mol)
 Warning -- explicit consideration of  22 degrees of freedom as
           vibrations may cause significant error
 Vibrational temperatures:     49.19    84.69   107.65   128.69   209.17
          (Kelvin)            217.31   227.19   258.42   276.96   320.46
                              356.13   392.52   414.91   424.25   448.70
                              517.71   637.11   673.30   717.57   848.51
                              858.77   878.62   922.53   936.30  1012.53
                             1037.39  1167.56  1173.88  1224.39  1423.84
                             1450.98  1463.60  1509.59  1535.23  1537.22
                             1552.16  1559.49  1633.69  1697.38  1738.71
                             1764.21  1817.71  1902.00  1943.39  1963.75
                             1981.54  2066.20  2070.86  2083.37  2096.41
                             2118.32  2152.67  2174.27  2177.89  2182.38
                             2194.13  2197.10  2205.69  2210.67  2223.22
                             2282.82  2399.97  2643.88  4351.32  4361.85
                             4366.64  4406.87  4409.85  4439.58  4441.64
                             4450.93  4490.56  4496.97  4511.24  4516.20
                             4555.35  5254.59  5298.10

 Zero-point correction=                           0.238823 (Hartree/Particle)
 Thermal correction to Energy=                    0.253431
 Thermal correction to Enthalpy=                  0.254375
 Thermal correction to Gibbs Free Energy=         0.197249
 Sum of electronic and zero-point Energies=           -595.129653
 Sum of electronic and thermal Energies=              -595.115044
 Sum of electronic and thermal Enthalpies=            -595.114100
 Sum of electronic and thermal Free Energies=         -595.171226

                     E (Thermal)             CV                S
                      KCal/Mol        Cal/Mol-Kelvin    Cal/Mol-Kelvin
 Total                  159.030             52.867            120.233
 Electronic               0.000              0.000              0.000
 Translational            0.889              2.981             41.488
 Rotational               0.889              2.981             31.228
 Vibrational            157.253             46.905             47.516
 Vibration     1          0.594              1.983              5.570
 Vibration     2          0.596              1.974              4.495
 Vibration     3          0.599              1.966              4.022
 Vibration     4          0.602              1.957              3.672
 Vibration     5          0.617              1.908              2.732
 Vibration     6          0.618              1.902              2.659
 Vibration     7          0.621              1.894              2.575
 Vibration     8          0.629              1.867              2.332
 Vibration     9          0.634              1.850              2.204
 Vibration    10          0.648              1.806              1.937
 Vibration    11          0.661              1.767              1.748
 Vibration    12          0.676              1.723              1.578
 Vibration    13          0.685              1.695              1.483
 Vibration    14          0.689              1.683              1.446
 Vibration    15          0.700              1.651              1.352
 Vibration    16          0.734              1.555              1.123
 Vibration    17          0.802              1.377              0.818
 Vibration    18          0.825              1.321              0.743
 Vibration    19          0.854              1.253              0.661
 Vibration    20          0.947              1.054              0.468
 Vibration    21          0.955              1.038              0.455
 Vibration    22          0.970              1.009              0.432

                           ! Non-Optimized Parameters !
 Normal termination of Gaussian 16 at Wed Dec  9 22:59:46 2020.

 ----------------------------------------------------------------------
 # B3LYP/6-311++G(d,p) empiricaldispersion=gd3bj scf=xqc pop=npa geom=c
 heck
 ----------------------------------------------------------------------

 --------------------------------------
 CID_20373200_JID_3245_Energie_neutraal
 --------------------------------------
 Structure from the checkpoint file:  "JID_3245.chk"
 Charge =  0 Multiplicity = 1

 SCF Done:  E(RB3LYP) =  -595.544831106     A.U. after   15 cycles
 Normal termination of Gaussian 16 at Wed Dec  9 23:03:37 2020.

 ----------------------------------------------------------------------
 # B3LYP/6-311++G(d,p) empiricaldispersion=gd3bj scf=xqc pop=npa geom=c
 heck
 ----------------------------------------------------------------------

 ------------------------------------
 CID_20373200_JID_3245_Energie_kation
 ------------------------------------
 Structure from the checkpoint file:  "JID_3245.chk"
 Charge =  1 Multiplicity = 2

 SCF Done:  E(UB3LYP) =  -595.280501459     A.U. after   22 cycles
 Normal termination of Gaussian 16 at Wed Dec  9 23:11:27 2020.
 Gaussian 16:  ES64L-G16RevA.03 25-Dec-2016

 ----------------------------------------------------------------------
 # B3LYP/6-311++G(d,p) empiricaldispersion=gd3bj scf=xqc pop=npa geom=c
 heck
 ----------------------------------------------------------------------

 -----------------------------------
 CID_20373200_JID_3245_Energie_anion
 -----------------------------------
 Structure from the checkpoint file:  "JID_3245.chk"
 Charge = -1 Multiplicity = 2

                         Standard orientation:
 ---------------------------------------------------------------------
 Center     Atomic      Atomic             Coordinates (Angstroms)
 Number     Number       Type             X           Y           Z
 ---------------------------------------------------------------------
      1          6           0        1.276090   -2.248843    0.540533
      2          6           0        1.243584   -0.774243    0.268599
      3          6           0        2.294543    0.027022   -0.132794
      4          7           0        1.788716    1.302725   -0.295110
      5          6           0        0.441363    1.343770   -0.011651
      6          6           0        0.076110    0.059616    0.359581
      7          6           0       -1.296368   -0.450166    0.745258
      8          6           0       -2.064660    0.449225    1.724520
      9          6           0       -2.062133   -0.747481   -0.534211
     10          8           0       -2.084802   -1.815347   -1.106500
     11          8           0       -2.707112    0.344487   -1.030946
     12          6           0       -0.328510    2.620574   -0.145809
     13          6           0        3.735654   -0.272305   -0.385738
     14          1           0        2.252540   -2.680650    0.299816
     15          1           0        0.521936   -2.776160   -0.055555
     16          1           0        1.072305   -2.477946    1.595648
     17          1           0        2.330056    2.101704   -0.588887
     18          1           0       -1.161255   -1.430125    1.211679
     19          1           0       -2.291778    1.424729    1.291578
     20          1           0       -3.012328   -0.015695    2.018232
     21          1           0       -1.461486    0.603844    2.624544
     22          1           0       -3.105156    0.051747   -1.872212
     23          1           0       -1.312390    2.436196   -0.585323
     24          1           0       -0.481546    3.124725    0.817654
     25          1           0        0.200162    3.323262   -0.801134
     26          1           0        4.399934    0.249917    0.316967
     27          1           0        3.925128   -1.343143   -0.276382
     28          1           0        4.044151    0.012388   -1.401020
 ---------------------------------------------------------------------

 SCF Done:  E(UB3LYP) =  -595.532730752     A.U. after   33 cycles
 SCF Done:  E(UB3LYP) =  -595.532730751     a.u. after    1 cycles

 The electronic state is 2-A.
 Alpha  occ. eigenvalues --  -19.06964 -19.01477 -14.23851 -10.20480 -10.09391
 Alpha  occ. eigenvalues --  -10.08965 -10.08452 -10.06778 -10.06770 -10.06302
 Alpha  occ. eigenvalues --  -10.06262 -10.05362 -10.05234  -1.00911  -0.91964
 Alpha  occ. eigenvalues --   -0.86594  -0.71750  -0.68150  -0.65464  -0.61938
 Alpha  occ. eigenvalues --   -0.59858  -0.57024  -0.53234  -0.50982  -0.44939
 Alpha  occ. eigenvalues --   -0.44039  -0.39715  -0.38981  -0.37938  -0.35736
 Alpha  occ. eigenvalues --   -0.33935  -0.33485  -0.32102  -0.31688  -0.31152
 Alpha  occ. eigenvalues --   -0.30907  -0.30368  -0.29459  -0.28656  -0.28235
 Alpha  occ. eigenvalues --   -0.27743  -0.26990  -0.25708  -0.24428  -0.23289
 Alpha  occ. eigenvalues --   -0.22553  -0.18490  -0.12532  -0.09133   0.04329
 Alpha virt. eigenvalues --    0.06360   0.07260   0.07613   0.08954   0.09080
 Alpha virt. eigenvalues --    0.09691   0.09757   0.10755   0.11295   0.11866
 Alpha virt. eigenvalues --    0.12096   0.12937   0.13673   0.13971   0.14166

  Beta  occ. eigenvalues --  -19.06927 -19.01466 -14.23812 -10.20478 -10.09382
  Beta  occ. eigenvalues --  -10.08963 -10.08452 -10.06758 -10.06729 -10.06261
  Beta  occ. eigenvalues --  -10.06250 -10.05360 -10.05232  -1.00864  -0.91923
  Beta  occ. eigenvalues --   -0.86556  -0.71724  -0.68123  -0.65425  -0.61877
  Beta  occ. eigenvalues --   -0.59819  -0.56972  -0.53172  -0.50915  -0.44879
  Beta  occ. eigenvalues --   -0.44010  -0.39675  -0.38955  -0.37905  -0.35703
  Beta  occ. eigenvalues --   -0.33902  -0.33448  -0.32070  -0.31658  -0.31117
  Beta  occ. eigenvalues --   -0.30863  -0.30345  -0.29421  -0.28626  -0.28212
  Beta  occ. eigenvalues --   -0.27713  -0.26963  -0.25671  -0.24402  -0.23266
  Beta  occ. eigenvalues --   -0.22523  -0.18448  -0.12514  -0.09114
  Beta virt. eigenvalues --    0.06555   0.07367   0.08019   0.08345   0.09297
  Beta virt. eigenvalues --    0.09433   0.10065   0.10202   0.11131   0.11672
  Beta virt. eigenvalues --    0.12067   0.12342   0.13126   0.13828   0.14038

 Mulliken charges and spin densities:
               1          2
     1  C   -0.601097  -0.071746
     2  C    1.419409  -0.903074
     3  C   -1.524342   1.112302
     4  N   -0.297175   0.286395
     5  C   -3.293631   2.880575
     6  C    2.339809  -1.121039
     7  C   -2.387553   2.039027
     8  C    0.404567  -1.191111
     9  C    0.026035  -0.269661
    10  O   -0.287761   0.020416
    11  O   -0.231948   0.069782
    12  C    1.819798  -2.517963
    13  C    3.326827  -3.742542
    14  H    0.011525   0.113124
    15  H    0.169745   0.006893
    16  H    0.065013   0.074763
    17  H   -0.393331   0.702640
    18  H    0.112961   0.130080
    19  H    0.115338   0.050956
    20  H   -0.099294   0.256870
    21  H   -0.068586   0.212009
    22  H   -0.181160   0.478862
    23  H   -0.046166   0.234780
    24  H   -0.125052   0.301639
    25  H   -0.513953   0.651756
    26  H   -0.388233   0.547446
    27  H   -0.054760   0.177261
    28  H   -0.316985   0.469560
 Sum of Mulliken charges =  -1.00000   1.00000

 Dipole moment (field-independent basis, Debye):
    X=             -2.8512    Y=             -3.8881    Z=              2.8052  Tot=              5.5782
 Quadrupole moment (field-independent basis, Debye-Ang):
   XX=           -143.7525   YY=           -126.2054   ZZ=           -110.8339
   XY=             -8.9678   XZ=             -0.6127   YZ=              1.3030

 Summary of Natural Population Analysis:

                                       Natural Population
                Natural  -----------------------------------------------
    Atom  No    Charge         Core      Valence    Rydberg      Total
 -----------------------------------------------------------------------
      C    1   -0.29346      0.99963     2.28939    0.00444     3.29346
      C    2   -0.04990      0.99942     2.04010    0.01037     3.04990
      C    3    0.06762      0.99947     1.92025    0.01266     2.93238
      N    4   -0.26284      0.99963     2.75282    0.01039     3.76284
      C    5    0.08239      0.99948     1.90577    0.01236     2.91761
      C    6   -0.05994      0.99940     2.04882    0.01172     3.05994
      C    7   -0.15702      0.99952     2.14664    0.01086     3.15702
      C    8   -0.27922      0.99965     2.27476    0.00481     3.27922
      C    9    0.41680      0.99968     1.55698    0.02654     2.58320
      O   10   -0.31157      0.99987     3.30554    0.00616     4.31157
      O   11   -0.34940      0.99988     3.34223    0.00730     4.34940
      C   12   -0.30415      0.99964     2.29835    0.00616     3.30415
      C   13   -0.29836      0.99964     2.29298    0.00574     3.29836
      H   14    0.10124      0.00000     0.39800    0.00077     0.39876
      H   15    0.10714      0.00000     0.39153    0.00133     0.39286
      H   16    0.09710      0.00000     0.40152    0.00138     0.40290
      H   17    0.20203      0.00000     0.28947    0.00850     0.29797
      H   18    0.11092      0.00000     0.38706    0.00202     0.38908
      H   19    0.10549      0.00000     0.39296    0.00156     0.39451
      H   20    0.09639      0.00000     0.40256    0.00105     0.40361
      H   21    0.10157      0.00000     0.39733    0.00110     0.39843
      H   22    0.24128      0.00000     0.25209    0.00663     0.25872
      H   23    0.11387      0.00000     0.38441    0.00173     0.38613
      H   24    0.10326      0.00000     0.39545    0.00130     0.39674
      H   25    0.10580      0.00000     0.39254    0.00166     0.39420
      H   26    0.10377      0.00000     0.39470    0.00152     0.39623
      H   27    0.10504      0.00000     0.39403    0.00094     0.39496
      H   28    0.10418      0.00000     0.39437    0.00146     0.39582
 =======================================================================
   * Total *    0.00000     12.99492    35.84264    0.16245    49.00000

 Normal termination of Gaussian 16 at Wed Dec  9 23:23:05 2020.
