 Gaussian 16, Revision A.03,

 -----------------------------------------------------------
 # opt freq B3LYP/6-31G(d) empiricaldispersion=gd3bj scf=xqc
 -----------------------------------------------------------

 -------------------------------
 CID_47113989_JID_10099_neutraal
 -------------------------------
 Symbolic Z-matrix:
 Charge =  0 Multiplicity = 1

 SCF Done:  E(RB3LYP) =  -1188.72339367     A.U. after   15 cycles
 SCF Done:  E(RB3LYP) =  -1188.68420504     A.U. after   15 cycles
 SCF Done:  E(RB3LYP) =  -1188.72843962     A.U. after   13 cycles
 SCF Done:  E(RB3LYP) =  -1188.72975135     A.U. after   12 cycles
 SCF Done:  E(RB3LYP) =  -1188.72981753     A.U. after   12 cycles
 SCF Done:  E(RB3LYP) =  -1188.73036740     A.U. after   12 cycles
 SCF Done:  E(RB3LYP) =  -1188.73058014     A.U. after   12 cycles
 SCF Done:  E(RB3LYP) =  -1188.73074132     A.U. after   12 cycles
 SCF Done:  E(RB3LYP) =  -1188.73083263     A.U. after   12 cycles
 SCF Done:  E(RB3LYP) =  -1188.73092402     A.U. after   11 cycles
 SCF Done:  E(RB3LYP) =  -1188.73101620     A.U. after    9 cycles
 SCF Done:  E(RB3LYP) =  -1188.73101748     A.U. after    8 cycles
 SCF Done:  E(RB3LYP) =  -1188.73101809     A.U. after    8 cycles
 SCF Done:  E(RB3LYP) =  -1188.73101825     A.U. after    7 cycles
 SCF Done:  E(RB3LYP) =  -1188.73101834     A.U. after    7 cycles
 Optimization completed.
    -- Stationary point found.
 Normal termination of Gaussian 16 at Sat Dec 12 15:14:10 2020.

 --------------------------------------------------------------------
 #N Geom=AllCheck Guess=TCheck SCRF=Check GenChk RB3LYP/6-31G(d) Freq
 --------------------------------------------------------------------

 Structure from the checkpoint file:  "JID_10099.chk"
 -------------------------------
 CID_47113989_JID_10099_neutraal
 -------------------------------
 Charge =  0 Multiplicity = 1

 SCF Done:  E(RB3LYP) =  -1188.73101834     A.U. after    1 cycles

  Exact polarizability: 217.588 -30.016 171.202  20.248  27.388 175.416
 Approx polarizability: 324.520 -66.178 282.682  45.954  60.246 311.376

                      1                      2                      3
                      A                      A                      A
 Frequencies --     24.7089                43.0049                54.9964
 Red. masses --      4.6818                 4.2343                 5.3557
 Frc consts  --      0.0017                 0.0046                 0.0095
 IR Inten    --      0.2171                 0.1609                 0.7603

                      4                      5                      6
                      A                      A                      A
 Frequencies --     62.9491                79.7051                88.0577
 Red. masses --      3.6865                 4.3977                 3.0746
 Frc consts  --      0.0086                 0.0165                 0.0140
 IR Inten    --      0.2129                 0.8131                 0.3957

                      7                      8                      9
                      A                      A                      A
 Frequencies --     98.0502               116.2515               119.2480
 Red. masses --      2.5541                 1.3537                 1.2994
 Frc consts  --      0.0145                 0.0108                 0.0109
 IR Inten    --      0.5899                 0.1873                 0.1488

                     10                     11                     12
                      A                      A                      A
 Frequencies --    151.8727               170.4289               174.1866
 Red. masses --      2.2245                 3.1192                 2.6837
 Frc consts  --      0.0302                 0.0534                 0.0480
 IR Inten    --      0.4760                 1.3831                 0.4478

                     13                     14                     15
                      A                      A                      A
 Frequencies --    179.1312               216.1830               253.0188
 Red. masses --      3.6725                 2.1274                 2.7981
 Frc consts  --      0.0694                 0.0586                 0.1055
 IR Inten    --      1.2436                 1.2206                 2.3158

                     16                     17                     18
                      A                      A                      A
 Frequencies --    269.4576               283.1175               306.8022
 Red. masses --      2.7753                 2.2290                 3.7545
 Frc consts  --      0.1187                 0.1053                 0.2082
 IR Inten    --      2.5368                 1.2868                 2.9435

                     19                     20                     21
                      A                      A                      A
 Frequencies --    333.1554               337.7413               363.4586
 Red. masses --      3.1059                 3.2467                 4.1013
 Frc consts  --      0.2031                 0.2182                 0.3192
 IR Inten    --      0.3802                 0.5319                 0.5630

                     22                     23                     24
                      A                      A                      A
 Frequencies --    379.7120               404.7351               414.8069
 Red. masses --      4.9176                 3.0879                 2.9537
 Frc consts  --      0.4177                 0.2980                 0.2994
 IR Inten    --      1.6530                 1.1667                 0.0304

                     25                     26                     27
                      A                      A                      A
 Frequencies --    498.6958               503.0398               507.5270
 Red. masses --      3.1237                 4.3798                 5.2415
 Frc consts  --      0.4577                 0.6530                 0.7955
 IR Inten    --      9.5399                 0.6419                 4.1349

                     28                     29                     30
                      A                      A                      A
 Frequencies --    516.5715               567.1625               589.5499
 Red. masses --      4.1257                 3.4739                 3.0512
 Frc consts  --      0.6486                 0.6584                 0.6248
 IR Inten    --      4.5582                 6.3660                24.4275

                     31                     32                     33
                      A                      A                      A
 Frequencies --    601.3763               637.2988               663.0250
 Red. masses --      5.1054                 6.3163                 2.9715
 Frc consts  --      1.0879                 1.5115                 0.7696
 IR Inten    --      3.8252                 0.3037                10.9872

                     34                     35                     36
                      A                      A                      A
 Frequencies --    692.1205               707.3851               711.8160
 Red. masses --      4.2773                 2.5222                 1.7308
 Frc consts  --      1.2072                 0.7436                 0.5167
 IR Inten    --      5.9865                43.3421                21.5905

                     37                     38                     39
                      A                      A                      A
 Frequencies --    733.5811               754.4171               773.3659
 Red. masses --      2.4894                 2.7719                 1.8366
 Frc consts  --      0.7893                 0.9295                 0.6472
 IR Inten    --     29.4583                 9.4665                32.1479

                     40                     41                     42
                      A                      A                      A
 Frequencies --    792.1517               833.8392               852.4287
 Red. masses --      4.1518                 1.8431                 1.3165
 Frc consts  --      1.5350                 0.7550                 0.5636
 IR Inten    --     52.6923                 6.1141                 1.9242

                     43                     44                     45
                      A                      A                      A
 Frequencies --    860.2928               863.1847               886.7422
 Red. masses --      2.5296                 1.3649                 2.0742
 Frc consts  --      1.1031                 0.5992                 0.9609
 IR Inten    --      9.2656                11.0864                 2.6358

                     46                     47                     48
                      A                      A                      A
 Frequencies --    921.7679               951.0361               963.2635
 Red. masses --      1.4288                 1.9889                 1.3565
 Frc consts  --      0.7152                 1.0599                 0.7416
 IR Inten    --      3.1055                 1.4778                 0.0120

                     49                     50                     51
                      A                      A                      A
 Frequencies --    989.1457              1003.2204              1019.2296
 Red. masses --      1.2531                 2.1284                 1.6663
 Frc consts  --      0.7223                 1.2621                 1.0199
 IR Inten    --      0.8818                20.4159                 1.0782

                     52                     53                     54
                      A                      A                      A
 Frequencies --   1023.7482              1055.4153              1061.8551
 Red. masses --      5.8894                 1.9090                 1.4537
 Frc consts  --      3.6367                 1.2529                 0.9657
 IR Inten    --      1.0144                 2.1917                 4.0135

                     55                     56                     57
                      A                      A                      A
 Frequencies --   1064.7538              1068.1292              1073.6682
 Red. masses --      2.3225                 1.7320                 1.4018
 Frc consts  --      1.5514                 1.1642                 0.9521
 IR Inten    --      1.3220                 0.3486                 1.6889

                     58                     59                     60
                      A                      A                      A
 Frequencies --   1096.4903              1107.0714              1151.2557
 Red. masses --      1.8749                 1.7821                 1.9866
 Frc consts  --      1.3281                 1.2869                 1.5514
 IR Inten    --      6.9546                 2.2692                 3.9952

                     61                     62                     63
                      A                      A                      A
 Frequencies --   1165.8910              1172.7861              1188.6977
 Red. masses --      2.4731                 2.1964                 3.7637
 Frc consts  --      1.9806                 1.7799                 3.1333
 IR Inten    --      3.7207                25.8487                 3.1026

                     64                     65                     66
                      A                      A                      A
 Frequencies --   1194.8711              1221.4434              1226.4282
 Red. masses --      1.0963                 1.1701                 2.4101
 Frc consts  --      0.9222                 1.0286                 2.1358
 IR Inten    --      0.0668                 0.6980                28.5904

                     67                     68                     69
                      A                      A                      A
 Frequencies --   1227.4649              1279.1113              1291.5047
 Red. masses --      2.3520                 1.4289                 1.3549
 Frc consts  --      2.0879                 1.3775                 1.3315
 IR Inten    --      7.4186                45.7661                12.1518

                     70                     71                     72
                      A                      A                      A
 Frequencies --   1320.8927              1349.7711              1353.3169
 Red. masses --      2.1006                 1.6122                 1.4359
 Frc consts  --      2.1594                 1.7305                 1.5494
 IR Inten    --     30.9246                37.4410                21.8072

                     73                     74                     75
                      A                      A                      A
 Frequencies --   1367.5823              1373.4534              1399.4296
 Red. masses --      1.6283                 2.1645                 2.1628
 Frc consts  --      1.7943                 2.4056                 2.4956
 IR Inten    --      1.0348                 1.1716                52.9195

                     76                     77                     78
                      A                      A                      A
 Frequencies --   1422.6589              1429.5217              1443.2187
 Red. masses --      1.5915                 1.6810                 1.2527
 Frc consts  --      1.8978                 2.0240                 1.5373
 IR Inten    --     12.5943                72.7539                 2.8003

                     79                     80                     81
                      A                      A                      A
 Frequencies --   1445.2186              1446.2110              1495.1658
 Red. masses --      1.2443                 1.3180                 1.2269
 Frc consts  --      1.5313                 1.6242                 1.6160
 IR Inten    --      3.1149                 2.7221                43.3029

                     82                     83                     84
                      A                      A                      A
 Frequencies --   1497.9449              1501.9548              1507.5114
 Red. masses --      1.2724                 2.0815                 1.0876
 Frc consts  --      1.6822                 2.7665                 1.4562
 IR Inten    --      3.7649                 4.5033                15.3234

                     85                     86                     87
                      A                      A                      A
 Frequencies --   1507.9953              1516.8614              1521.4411
 Red. masses --      1.0800                 1.0972                 1.1443
 Frc consts  --      1.4471                 1.4874                 1.5607
 IR Inten    --     13.3924                 9.4608                 9.8973

                     88                     89                     90
                      A                      A                      A
 Frequencies --   1528.3941              1536.1486              1541.3006
 Red. masses --      1.0615                 1.0621                 1.0871
 Frc consts  --      1.4610                 1.4767                 1.5216
 IR Inten    --      5.1193                 6.0822                 2.6305

                     91                     92                     93
                      A                      A                      A
 Frequencies --   1551.0183              1559.1116              1623.8157
 Red. masses --      2.1440                 4.2689                 5.9750
 Frc consts  --      3.0389                 6.1140                 9.2824
 IR Inten    --     12.0303                47.1218                 9.8903

                     94                     95                     96
                      A                      A                      A
 Frequencies --   1646.8022              1669.3565              1748.9112
 Red. masses --      5.4341                 5.5533                 7.3815
 Frc consts  --      8.6827                 9.1180                13.3024
 IR Inten    --      1.5548                 4.4959               251.3109

                     97                     98                     99
                      A                      A                      A
 Frequencies --   3007.0786              3042.6375              3045.7013
 Red. masses --      1.0824                 1.0365                 1.0445
 Frc consts  --      5.7669                 5.6535                 5.7084
 IR Inten    --     19.4294                42.2949                 7.7211

                    100                    101                    102
                      A                      A                      A
 Frequencies --   3048.4054              3056.4253              3076.9213
 Red. masses --      1.0531                 1.0420                 1.0873
 Frc consts  --      5.7657                 5.7351                 6.0648
 IR Inten    --     31.8558                19.7985                29.2328

                    103                    104                    105
                      A                      A                      A
 Frequencies --   3081.6036              3093.7662              3111.9728
 Red. masses --      1.0863                 1.1016                 1.1021
 Frc consts  --      6.0781                 6.2124                 6.2886
 IR Inten    --     45.7730                17.3753                47.8622

                    106                    107                    108
                      A                      A                      A
 Frequencies --   3113.9242              3119.1851              3126.1116
 Red. masses --      1.0985                 1.1011                 1.1008
 Frc consts  --      6.2759                 6.3117                 6.3383
 IR Inten    --     18.0722                36.3521                12.4353

                    109                    110                    111
                      A                      A                      A
 Frequencies --   3169.8605              3172.6547              3177.2099
 Red. masses --      1.0905                 1.0892                 1.0975
 Frc consts  --      6.4560                 6.4598                 6.5276
 IR Inten    --     10.1419                 8.4524                 3.3113

                    112                    113                    114
                      A                      A                      A
 Frequencies --   3184.5608              3196.5041              3208.8284
 Red. masses --      1.0863                 1.0913                 1.0959
 Frc consts  --      6.4911                 6.5699                 6.6482
 IR Inten    --      0.3066                21.0179                24.7967

                    115                    116                    117
                      A                      A                      A
 Frequencies --   3219.6626              3220.1515              3566.0664
 Red. masses --      1.0923                 1.0930                 1.0744
 Frc consts  --      6.6711                 6.6778                 8.0502
 IR Inten    --      4.8055                 8.6458                12.5671

 - Thermochemistry -
 -------------------
 Temperature   298.150 Kelvin.  Pressure   1.00000 Atm.
 Atom     1 has atomic number  6 and mass  12.00000

 Molecular mass:   287.13439 amu.
 Principal axes and moments of inertia in atomic units:
                           1         2         3
     Eigenvalues --  3897.458936940.231667625.70637
           X            0.99991  -0.01291   0.00377
           Y            0.01228   0.99090   0.13403
           Z           -0.00547  -0.13398   0.99097
 This molecule is an asymmetric top.
 Rotational symmetry number  1.
 Warning -- assumption of classical behavior for rotation
           may cause significant error
 Rotational temperatures (Kelvin)      0.02222     0.01248     0.01136
 Rotational constants (GHZ):           0.46306     0.26004     0.23667
 Zero-point vibrational energy     911152.7 (Joules/Mol)
                                  217.77073 (Kcal/Mol)
 Warning -- explicit consideration of  31 degrees of freedom as
           vibrations may cause significant error
 Vibrational temperatures:     35.55    61.87    79.13    90.57   114.68
          (Kelvin)            126.70   141.07   167.26   171.57   218.51
                              245.21   250.62   257.73   311.04   364.04
                              387.69   407.34   441.42   479.34   485.93
                              522.94   546.32   582.32   596.81   717.51
                              723.76   730.22   743.23   816.02   848.23
                              865.25   916.93   953.95   995.81  1017.77
                             1024.14  1055.46  1085.44  1112.70  1139.73
                             1199.71  1226.45  1237.77  1241.93  1275.82
                             1326.22  1368.33  1385.92  1423.16  1443.41
                             1466.44  1472.95  1518.51  1527.77  1531.94
                             1536.80  1544.77  1577.61  1592.83  1656.40
                             1677.46  1687.38  1710.27  1719.15  1757.38
                             1764.56  1766.05  1840.36  1858.19  1900.47
                             1942.02  1947.12  1967.65  1976.09  2013.47
                             2046.89  2056.76  2076.47  2079.35  2080.78
                             2151.21  2155.21  2160.98  2168.97  2169.67
                             2182.43  2189.01  2199.02  2210.18  2217.59
                             2231.57  2243.21  2336.31  2369.38  2401.83
                             2516.29  4326.52  4377.68  4382.08  4385.98
                             4397.51  4427.00  4433.74  4451.24  4477.43
                             4480.24  4487.81  4497.78  4560.72  4564.74
                             4571.30  4581.87  4599.06  4616.79  4632.38
                             4633.08  5130.77

 Zero-point correction=                           0.347040 (Hartree/Particle)
 Thermal correction to Energy=                    0.367165
 Thermal correction to Enthalpy=                  0.368110
 Thermal correction to Gibbs Free Energy=         0.297748
 Sum of electronic and zero-point Energies=          -1188.383979
 Sum of electronic and thermal Energies=             -1188.363853
 Sum of electronic and thermal Enthalpies=           -1188.362909
 Sum of electronic and thermal Free Energies=        -1188.433271

                     E (Thermal)             CV                S
                      KCal/Mol        Cal/Mol-Kelvin    Cal/Mol-Kelvin
 Total                  230.400             76.163            148.089
 Electronic               0.000              0.000              0.000
 Translational            0.889              2.981             42.862
 Rotational               0.889              2.981             33.689
 Vibrational            228.622             70.201             71.539
 Vibration     1          0.593              1.985              6.214
 Vibration     2          0.595              1.980              5.116
 Vibration     3          0.596              1.976              4.629
 Vibration     4          0.597              1.972              4.363
 Vibration     5          0.600              1.963              3.898
 Vibration     6          0.601              1.958              3.703
 Vibration     7          0.603              1.951              3.493
 Vibration     8          0.608              1.936              3.162
 Vibration     9          0.609              1.933              3.113
 Vibration    10          0.619              1.901              2.649
 Vibration    11          0.626              1.879              2.431
 Vibration    12          0.627              1.874              2.390
 Vibration    13          0.629              1.868              2.337
 Vibration    14          0.645              1.816              1.991
 Vibration    15          0.664              1.758              1.709
 Vibration    16          0.674              1.729              1.600
 Vibration    17          0.682              1.705              1.515
 Vibration    18          0.697              1.661              1.380
 Vibration    19          0.715              1.609              1.245
 Vibration    20          0.718              1.600              1.223
 Vibration    21          0.737              1.547              1.107
 Vibration    22          0.750              1.513              1.040
 Vibration    23          0.770              1.460              0.945
 Vibration    24          0.778              1.438              0.910
 Vibration    25          0.854              1.253              0.661
 Vibration    26          0.858              1.243              0.651
 Vibration    27          0.863              1.233              0.640
 Vibration    28          0.872              1.213              0.618
 Vibration    29          0.923              1.102              0.510
 Vibration    30          0.947              1.054              0.468
 Vibration    31          0.960              1.029              0.447

 Optimization completed.
    -- Stationary point found.
 Normal termination of Gaussian 16 at Sat Dec 12 15:40:38 2020.

 ----------------------------------------------------------------------
 # B3LYP/6-311++G(d,p) empiricaldispersion=gd3bj scf=xqc pop=npa geom=c
 heck
 ----------------------------------------------------------------------

 ---------------------------------------
 CID_47113989_JID_10099_Energie_neutraal
 ---------------------------------------
 Structure from the checkpoint file:  "JID_10099.chk"
 Charge =  0 Multiplicity = 1

 SCF Done:  E(RB3LYP) =  -1188.97078176     A.U. after   17 cycles
 Normal termination of Gaussian 16 at Sat Dec 12 15:52:21 2020.

 ----------------------------------------------------------------------
 # B3LYP/6-311++G(d,p) empiricaldispersion=gd3bj scf=xqc pop=npa geom=c
 heck
 ----------------------------------------------------------------------

 -------------------------------------
 CID_47113989_JID_10099_Energie_kation
 -------------------------------------
 Structure from the checkpoint file:  "JID_10099.chk"
 Charge =  1 Multiplicity = 2

 SCF Done:  E(UB3LYP) =  -1188.68290322     A.U. after   32 cycles
 Normal termination of Gaussian 16 at Sat Dec 12 16:22:46 2020.
 Gaussian 16:  ES64L-G16RevA.03 25-Dec-2016

 ----------------------------------------------------------------------
 # B3LYP/6-311++G(d,p) empiricaldispersion=gd3bj scf=xqc pop=npa geom=c
 heck
 ----------------------------------------------------------------------

 ------------------------------------
 CID_47113989_JID_10099_Energie_anion
 ------------------------------------
 Structure from the checkpoint file:  "JID_10099.chk"
 Charge = -1 Multiplicity = 2

                         Standard orientation:
 ---------------------------------------------------------------------
 Center     Atomic      Atomic             Coordinates (Angstroms)
 Number     Number       Type             X           Y           Z
 ---------------------------------------------------------------------
      1          6           0        4.801879   -1.024239   -0.452050
      2          6           0        3.724463    0.020664   -0.147663
      3          6           0        2.426178   -0.174759   -0.946662
      4          6           0        1.736399   -1.530590   -0.640361
      5          7           0        1.399079   -1.740904    0.762330
      6          6           0        0.352703   -1.176991    1.474993
      7          8           0        0.490315   -0.943844    2.674787
      8          6           0       -0.930908   -0.935951    0.765834
      9          6           0       -1.783366    0.077422    1.146689
     10         16           0       -3.190542    0.108139    0.117581
     11          6           0       -2.650068   -1.278623   -0.803419
     12          6           0       -1.443619   -1.708289   -0.334307
     13          6           0       -3.474429   -1.846488   -1.917057
     14          6           0       -1.664202    1.048135    2.279510
     15          6           0        1.428570    0.963108   -0.796517
     16          6           0        0.413886    1.102840   -1.755047
     17          6           0       -0.556217    2.092984   -1.640438
     18          6           0       -0.523064    2.980577   -0.562447
     19          6           0        0.484488    2.861345    0.391308
     20          6           0        1.447861    1.855970    0.279159
     21          1           0        4.500296   -2.032150   -0.144534
     22          1           0        5.731817   -0.788383    0.075891
     23          1           0        5.026523   -1.060366   -1.524929
     24          1           0        3.503831    0.012805    0.927183
     25          1           0        4.117514    1.020629   -0.367008
     26          1           0        2.701086   -0.228172   -2.011295
     27          1           0        0.831141   -1.602810   -1.240539
     28          1           0        2.389148   -2.354400   -0.947481
     29          1           0        2.197236   -1.857886    1.377692
     30          1           0       -0.949464   -2.588734   -0.729161
     31          1           0       -4.460706   -2.178035   -1.570589
     32          1           0       -3.637444   -1.115641   -2.718771
     33          1           0       -2.962644   -2.711255   -2.350863
     34          1           0       -2.146430    2.000316    2.038633
     35          1           0       -2.132773    0.641806    3.183902
     36          1           0       -0.614698    1.225730    2.513244
     37          1           0        0.381161    0.416167   -2.598016
     38          1           0       -1.338864    2.173284   -2.389203
     39          1           0       -1.278409    3.755600   -0.468950
     40          1           0        0.519104    3.544038    1.235736
     41          1           0        2.211857    1.771627    1.044025
 ---------------------------------------------------------------------

 SCF Done:  E(UB3LYP) =  -1188.96271111     A.U. after   33 cycles
 SCF Done:  E(UB3LYP) =  -1188.96271111     a.u. after    1 cycles

 The electronic state is 2-A.
 Alpha  occ. eigenvalues --  -88.76539 -18.97685 -14.22398 -10.16325 -10.10338
 Alpha  occ. eigenvalues --  -10.10003 -10.09678 -10.08560 -10.08221 -10.07874
 Alpha  occ. eigenvalues --  -10.07526 -10.07459 -10.07373 -10.07193 -10.07163
 Alpha  occ. eigenvalues --  -10.07134 -10.07073 -10.06938 -10.06755 -10.06680
 Alpha  occ. eigenvalues --   -7.85201  -5.81486  -5.81126  -5.80797  -0.92795
 Alpha  occ. eigenvalues --   -0.81426  -0.77917  -0.75977  -0.70871  -0.68075
 Alpha  occ. eigenvalues --   -0.65422  -0.64625  -0.64421  -0.61843  -0.61570
 Alpha  occ. eigenvalues --   -0.56655  -0.55669  -0.51965  -0.50012  -0.49793
 Alpha  occ. eigenvalues --   -0.46779  -0.44637  -0.42005  -0.41599  -0.39252
 Alpha  occ. eigenvalues --   -0.38469  -0.37701  -0.36046  -0.35281  -0.34699
 Alpha  occ. eigenvalues --   -0.33893  -0.33839  -0.32928  -0.32335  -0.32247
 Alpha  occ. eigenvalues --   -0.31966  -0.31349  -0.30315  -0.29315  -0.28603
 Alpha  occ. eigenvalues --   -0.28342  -0.27134  -0.27121  -0.26326  -0.25644
 Alpha  occ. eigenvalues --   -0.25354  -0.24853  -0.24129  -0.23691  -0.23273
 Alpha  occ. eigenvalues --   -0.22518  -0.16248  -0.16010  -0.15386  -0.14476
 Alpha  occ. eigenvalues --   -0.13612  -0.12180   0.04085
 Alpha virt. eigenvalues --    0.06046   0.06113   0.07052   0.07625   0.07944
 Alpha virt. eigenvalues --    0.08297   0.08623   0.08807   0.09260   0.09760
 Alpha virt. eigenvalues --    0.09794   0.09862   0.10654   0.11052   0.11325

  Beta  occ. eigenvalues --  -88.76530 -18.97635 -14.22384 -10.16272 -10.10303
  Beta  occ. eigenvalues --  -10.09967 -10.09480 -10.08546 -10.08212 -10.07842
  Beta  occ. eigenvalues --  -10.07522 -10.07455 -10.07377 -10.07187 -10.07135
  Beta  occ. eigenvalues --  -10.07111 -10.07081 -10.06905 -10.06767 -10.06641
  Beta  occ. eigenvalues --   -7.85192  -5.81483  -5.81124  -5.80761  -0.92698
  Beta  occ. eigenvalues --   -0.81365  -0.77800  -0.75919  -0.70824  -0.67931
  Beta  occ. eigenvalues --   -0.65356  -0.64581  -0.64345  -0.61786  -0.61505
  Beta  occ. eigenvalues --   -0.56588  -0.55603  -0.51906  -0.49928  -0.49672
  Beta  occ. eigenvalues --   -0.46734  -0.44571  -0.41961  -0.41460  -0.39196
  Beta  occ. eigenvalues --   -0.38390  -0.37651  -0.36007  -0.35227  -0.34647
  Beta  occ. eigenvalues --   -0.33801  -0.33750  -0.32829  -0.32288  -0.32186
  Beta  occ. eigenvalues --   -0.31861  -0.31279  -0.30264  -0.29239  -0.28514
  Beta  occ. eigenvalues --   -0.28204  -0.27092  -0.27050  -0.26222  -0.25594
  Beta  occ. eigenvalues --   -0.25303  -0.24752  -0.24008  -0.23604  -0.23215
  Beta  occ. eigenvalues --   -0.22483  -0.16115  -0.15832  -0.15275  -0.14342
  Beta  occ. eigenvalues --   -0.13452  -0.11651
  Beta virt. eigenvalues --    0.06265   0.06648   0.07020   0.07277   0.08089
  Beta virt. eigenvalues --    0.08367   0.08598   0.08796   0.09057   0.09542
  Beta virt. eigenvalues --    0.09811   0.09933   0.10123   0.10883   0.11267

 Mulliken charges and spin densities:
               1          2
     1  C    1.402610  -2.082534
     2  C   -2.051809   1.527248
     3  C    1.754284  -1.582340
     4  C    1.199528  -1.234210
     5  N   -0.297388   0.122504
     6  C   -0.876319  -0.242483
     7  O   -0.266534   0.023583
     8  C    0.344163  -0.084497
     9  C    0.996573   0.185752
    10  S    0.209194  -0.164591
    11  C   -0.927826   0.887987
    12  C   -0.642903  -0.193053
    13  C    0.720853  -0.876240
    14  C   -0.504271  -0.013474
    15  C   -0.603293   1.210074
    16  C    0.201471  -0.216789
    17  C    0.195166  -0.588173
    18  C    0.061349  -0.289854
    19  C   -0.789292   0.134817
    20  C   -0.715533   0.575654
    21  H   -0.187814   0.323873
    22  H   -0.211407   0.352478
    23  H   -0.219180   0.363418
    24  H    0.244236  -0.080288
    25  H    0.009469   0.149361
    26  H   -0.081632   0.318574
    27  H    0.096132  -0.021896
    28  H   -0.423379   0.643174
    29  H    0.194314   0.105492
    30  H    0.019474   0.159384
    31  H    0.147376   0.000012
    32  H   -0.074366   0.246847
    33  H   -0.133073   0.297000
    34  H    0.058064   0.050711
    35  H    0.171781   0.005898
    36  H    0.229425  -0.020488
    37  H   -0.276273   0.427424
    38  H   -0.156517   0.315606
    39  H    0.043188   0.103902
    40  H    0.115861   0.040421
    41  H    0.024301   0.119714
 Sum of Mulliken charges =  -1.00000   1.00000

 Dipole moment (field-independent basis, Debye):
    X=             -3.8930    Y=              3.0725    Z=              2.3246  Tot=              5.4772
 Quadrupole moment (field-independent basis, Debye-Ang):
   XX=           -192.9371   YY=           -166.0141   ZZ=           -176.0854
   XY=              9.6742   XZ=              3.8084   YZ=              2.7229

 Summary of Natural Population Analysis:

                                       Natural Population
                Natural  -----------------------------------------------
    Atom  No    Charge         Core      Valence    Rydberg      Total
 -----------------------------------------------------------------------
      C    1   -0.28497      0.99967     2.28028    0.00503     3.28497
      C    2   -0.19265      0.99962     2.18468    0.00834     3.19265
      C    3   -0.12092      0.99955     2.10918    0.01220     3.12092
      C    4   -0.08632      0.99958     2.07397    0.01276     3.08632
      N    5   -0.32184      0.99968     2.81204    0.01013     3.82184
      C    6    0.34742      0.99960     1.63000    0.02298     2.65258
      O    7   -0.32374      0.99988     3.31887    0.00499     4.32374
      C    8   -0.10455      0.99935     2.09396    0.01123     3.10455
      C    9   -0.02602      0.99947     2.01457    0.01198     3.02602
      S   10    0.20180      4.99936     2.77956    0.01928     7.79820
      C   11   -0.09763      0.99950     2.08667    0.01147     3.09763
      C   12   -0.12189      0.99943     2.11198    0.01048     3.12189
      C   13   -0.29715      0.99961     2.29105    0.00649     3.29715
      C   14   -0.30089      0.99961     2.29561    0.00566     3.30089
      C   15   -0.00802      0.99949     1.99680    0.01172     3.00802
      C   16   -0.09109      0.99950     2.08164    0.00995     3.09109
      C   17   -0.09833      0.99956     2.08841    0.01037     3.09833
      C   18   -0.09958      0.99956     2.08988    0.01015     3.09958
      C   19   -0.10165      0.99957     2.09272    0.00937     3.10165
      C   20   -0.10497      0.99950     2.09643    0.00903     3.10497
      H   21    0.09669      0.00000     0.40205    0.00126     0.40331
      H   22    0.09893      0.00000     0.40026    0.00081     0.40107
      H   23    0.09883      0.00000     0.39987    0.00130     0.40117
      H   24    0.09418      0.00000     0.40377    0.00205     0.40582
      H   25    0.09990      0.00000     0.39905    0.00106     0.40010
      H   26    0.10365      0.00000     0.39433    0.00203     0.39635
      H   27    0.10485      0.00000     0.39333    0.00182     0.39515
      H   28    0.10017      0.00000     0.39810    0.00173     0.39983
      H   29    0.18880      0.00000     0.30891    0.00229     0.31120
      H   30    0.10756      0.00000     0.39133    0.00111     0.39244
      H   31    0.10054      0.00000     0.39862    0.00084     0.39946
      H   32    0.10632      0.00000     0.39245    0.00123     0.39368
      H   33    0.10723      0.00000     0.39192    0.00085     0.39277
      H   34    0.09987      0.00000     0.39914    0.00099     0.40013
      H   35    0.10738      0.00000     0.39169    0.00093     0.39262
      H   36    0.12053      0.00000     0.37852    0.00094     0.37947
      H   37    0.10001      0.00000     0.39820    0.00179     0.39999
      H   38    0.10112      0.00000     0.39780    0.00108     0.39888
      H   39    0.09752      0.00000     0.40170    0.00079     0.40248
      H   40    0.09736      0.00000     0.40187    0.00077     0.40264
      H   41    0.10154      0.00000     0.39711    0.00135     0.39846
 =======================================================================
   * Total *    0.00000     23.99110    52.76830    0.24060    77.00000

 Normal termination of Gaussian 16 at Sat Dec 12 16:53:50 2020.
