 Gaussian 16, Revision A.03,

 -----------------------------------------------------------
 # opt freq B3LYP/6-31G(d) empiricaldispersion=gd3bj scf=xqc
 -----------------------------------------------------------

 ------------------------------
 CID_79967750_JID_6252_neutraal
 ------------------------------
 Symbolic Z-matrix:
 Charge =  0 Multiplicity = 1

 SCF Done:  E(RB3LYP) =  -1104.24716641     A.U. after   14 cycles
 SCF Done:  E(RB3LYP) =  -1104.25501509     A.U. after   12 cycles
 SCF Done:  E(RB3LYP) =  -1104.25589136     A.U. after   12 cycles
 SCF Done:  E(RB3LYP) =  -1104.25760028     A.U. after   12 cycles
 SCF Done:  E(RB3LYP) =  -1104.25789874     A.U. after   12 cycles
 SCF Done:  E(RB3LYP) =  -1104.25850893     A.U. after   12 cycles
 SCF Done:  E(RB3LYP) =  -1104.25852207     A.U. after   11 cycles
 SCF Done:  E(RB3LYP) =  -1104.25888830     A.U. after   11 cycles
 SCF Done:  E(RB3LYP) =  -1104.25897194     A.U. after   11 cycles
 SCF Done:  E(RB3LYP) =  -1104.25901732     A.U. after   11 cycles
 SCF Done:  E(RB3LYP) =  -1104.25906320     A.U. after   10 cycles
 SCF Done:  E(RB3LYP) =  -1104.25906688     A.U. after   10 cycles
 SCF Done:  E(RB3LYP) =  -1104.25907093     A.U. after   10 cycles
 SCF Done:  E(RB3LYP) =  -1104.25907348     A.U. after    9 cycles
 SCF Done:  E(RB3LYP) =  -1104.25907357     A.U. after    7 cycles
 Optimization completed.
    -- Stationary point found.
 Normal termination of Gaussian 16 at Thu Dec 10 21:54:06 2020.

 --------------------------------------------------------------------
 #N Geom=AllCheck Guess=TCheck SCRF=Check GenChk RB3LYP/6-31G(d) Freq
 --------------------------------------------------------------------

 Structure from the checkpoint file:  "JID_6252.chk"
 ------------------------------
 CID_79967750_JID_6252_neutraal
 ------------------------------
 Charge =  0 Multiplicity = 1

 SCF Done:  E(RB3LYP) =  -1104.25907357     A.U. after    1 cycles

  Exact polarizability: 161.860  -6.224 144.528  11.263   2.397 116.330
 Approx polarizability: 239.203 -12.118 212.220  31.552   3.591 185.001

                      1                      2                      3
                      A                      A                      A
 Frequencies --     19.0491                49.6196                91.0731
 Red. masses --      3.4226                 4.0371                 6.1573
 Frc consts  --      0.0007                 0.0059                 0.0301
 IR Inten    --      1.1099                 2.3417                 0.1202

                      4                      5                      6
                      A                      A                      A
 Frequencies --    100.6884               120.5891               145.5821
 Red. masses --      4.6440                 3.2286                 3.1696
 Frc consts  --      0.0277                 0.0277                 0.0396
 IR Inten    --      1.6165                 1.8929                 8.4902

                      7                      8                      9
                      A                      A                      A
 Frequencies --    159.8500               193.2136               213.5732
 Red. masses --      3.6563                 3.1991                 6.5641
 Frc consts  --      0.0550                 0.0704                 0.1764
 IR Inten    --      1.3050                 0.2327                 0.0601

                     10                     11                     12
                      A                      A                      A
 Frequencies --    225.2330               249.6036               265.0776
 Red. masses --      1.8031                 1.9824                 3.1206
 Frc consts  --      0.0539                 0.0728                 0.1292
 IR Inten    --      1.3106                 1.3498                 4.1521

                     13                     14                     15
                      A                      A                      A
 Frequencies --    282.1859               311.1297               331.4805
 Red. masses --      2.6861                 2.8260                 1.6523
 Frc consts  --      0.1260                 0.1612                 0.1070
 IR Inten    --      2.6144                 5.0246               126.4461

                     16                     17                     18
                      A                      A                      A
 Frequencies --    355.2135               357.8862               375.6494
 Red. masses --      2.5751                 2.0067                 2.2292
 Frc consts  --      0.1914                 0.1514                 0.1853
 IR Inten    --     13.8859                63.4968                 2.8400

                     19                     20                     21
                      A                      A                      A
 Frequencies --    399.6518               461.9552               477.2956
 Red. masses --      3.0844                 2.5821                 2.2521
 Frc consts  --      0.2903                 0.3247                 0.3023
 IR Inten    --      9.3565                 9.4909                 3.6538

                     22                     23                     24
                      A                      A                      A
 Frequencies --    497.9792               525.7920               575.2790
 Red. masses --      1.9196                 1.5574                 3.7082
 Frc consts  --      0.2805                 0.2537                 0.7231
 IR Inten    --      6.0460                90.5890                 2.3877

                     25                     26                     27
                      A                      A                      A
 Frequencies --    604.9034               658.2351               672.8390
 Red. masses --      3.5321                 5.2199                 4.4711
 Frc consts  --      0.7615                 1.3325                 1.1926
 IR Inten    --      1.3589                 2.7161                10.4758

                     28                     29                     30
                      A                      A                      A
 Frequencies --    680.6637               727.6238               766.8467
 Red. masses --      5.2696                 4.7102                 8.8255
 Frc consts  --      1.4385                 1.4693                 3.0578
 IR Inten    --      3.0181                 3.4692                13.4841

                     31                     32                     33
                      A                      A                      A
 Frequencies --    789.1073               808.5703               831.4085
 Red. masses --      6.4452                 2.5282                 1.9294
 Frc consts  --      2.3646                 0.9739                 0.7858
 IR Inten    --      6.6837                 8.2750                 3.8488

                     34                     35                     36
                      A                      A                      A
 Frequencies --    845.3471               889.4935               944.7815
 Red. masses --      1.5827                 2.8243                 2.9698
 Frc consts  --      0.6664                 1.3166                 1.5619
 IR Inten    --      5.5151                 1.8124                 9.5262

                     37                     38                     39
                      A                      A                      A
 Frequencies --    951.7700               973.4480               992.4271
 Red. masses --      2.0011                 2.9995                 3.2768
 Frc consts  --      1.0680                 1.6747                 1.9015
 IR Inten    --     16.4474                15.8833                 8.5189

                     40                     41                     42
                      A                      A                      A
 Frequencies --   1040.3307              1054.2872              1067.5516
 Red. masses --      3.0712                 2.2220                 2.0007
 Frc consts  --      1.9584                 1.4552                 1.3434
 IR Inten    --     17.8853                 9.4371                 3.0717

                     43                     44                     45
                      A                      A                      A
 Frequencies --   1087.9268              1096.3079              1111.0526
 Red. masses --      2.2462                 1.8396                 2.0537
 Frc consts  --      1.5664                 1.3027                 1.4936
 IR Inten    --     13.0312                23.4844                 6.1485

                     46                     47                     48
                      A                      A                      A
 Frequencies --   1162.7784              1190.7202              1194.2685
 Red. masses --      2.8255                 1.6769                 2.2653
 Frc consts  --      2.2508                 1.4008                 1.9036
 IR Inten    --     98.1754                 5.8422                67.2952

                     49                     50                     51
                      A                      A                      A
 Frequencies --   1196.6890              1201.1679              1232.2052
 Red. masses --      2.2618                 1.4682                 1.3520
 Frc consts  --      1.9084                 1.2481                 1.2095
 IR Inten    --     30.7224                 3.6079                 1.2856

                     52                     53                     54
                      A                      A                      A
 Frequencies --   1243.5372              1278.6527              1302.3119
 Red. masses --      1.7973                 1.4176                 1.4434
 Frc consts  --      1.6375                 1.3655                 1.4423
 IR Inten    --     32.9571                41.2263                61.5589

                     55                     56                     57
                      A                      A                      A
 Frequencies --   1327.0983              1341.5146              1349.2442
 Red. masses --      1.2815                 1.3165                 1.4026
 Frc consts  --      1.3298                 1.3960                 1.5044
 IR Inten    --      4.7008                14.8194                20.1314

                     58                     59                     60
                      A                      A                      A
 Frequencies --   1364.6790              1388.0178              1401.6660
 Red. masses --      2.0219                 1.3947                 1.4465
 Frc consts  --      2.2186                 1.5832                 1.6744
 IR Inten    --     68.0806                44.1243                 2.9151

                     61                     62                     63
                      A                      A                      A
 Frequencies --   1412.1292              1424.4393              1434.4697
 Red. masses --      1.3448                 1.3737                 1.4485
 Frc consts  --      1.5800                 1.6423                 1.7561
 IR Inten    --      3.5165                 8.8654                13.3929

                     64                     65                     66
                      A                      A                      A
 Frequencies --   1437.1008              1483.3933              1492.9047
 Red. masses --      2.9534                 1.0864                 1.0811
 Frc consts  --      3.5937                 1.4084                 1.4197
 IR Inten    --    114.5476                 5.6938                12.5756

                     67                     68                     69
                      A                      A                      A
 Frequencies --   1494.4728              1498.0280              1506.3848
 Red. masses --      1.0902                 1.0961                 1.0862
 Frc consts  --      1.4346                 1.4493                 1.4522
 IR Inten    --      8.6890                 2.6472                 9.8339

                     70                     71                     72
                      A                      A                      A
 Frequencies --   1515.4727              1519.6668              1528.3311
 Red. masses --      1.0870                 1.0923                 1.1110
 Frc consts  --      1.4708                 1.4862                 1.5290
 IR Inten    --     18.1921                 2.7212                 6.7381

                     73                     74                     75
                      A                      A                      A
 Frequencies --   1558.3256              1640.6796              1707.3962
 Red. masses --      1.0506                 1.5598                 3.4870
 Frc consts  --      1.5031                 2.4738                 5.9893
 IR Inten    --     15.2145                60.9938               563.5132

                     76                     77                     78
                      A                      A                      A
 Frequencies --   1833.2741              2984.3558              2994.4372
 Red. masses --     11.4927                 1.0537                 1.0648
 Frc consts  --     22.7576                 5.5291                 5.6255
 IR Inten    --    322.2406                43.8472                77.4760

                     79                     80                     81
                      A                      A                      A
 Frequencies --   3022.4079              3045.5054              3053.4921
 Red. masses --      1.0692                 1.0679                 1.0699
 Frc consts  --      5.7548                 5.8360                 5.8776
 IR Inten    --     30.0462                17.3948                53.6077

                     82                     83                     84
                      A                      A                      A
 Frequencies --   3064.0278              3076.3163              3097.0343
 Red. masses --      1.0645                 1.0921                 1.0661
 Frc consts  --      5.8882                 6.0893                 6.0246
 IR Inten    --     17.7540                25.4347                18.9608

                     85                     86                     87
                      A                      A                      A
 Frequencies --   3098.7733              3101.7878              3120.7999
 Red. masses --      1.0783                 1.0922                 1.0966
 Frc consts  --      6.1007                 6.1911                 6.2927
 IR Inten    --     46.5874                15.9759                 8.0817

                     88                     89                     90
                      A                      A                      A
 Frequencies --   3135.3561              3137.1108              3142.0781
 Red. masses --      1.0939                 1.1007                 1.1063
 Frc consts  --      6.3359                 6.3825                 6.4351
 IR Inten    --     20.4101                 3.1361                18.0772

                     91                     92                     93
                      A                      A                      A
 Frequencies --   3147.4583              3588.0805              3705.3476
 Red. masses --      1.1055                 1.0466                 1.1018
 Frc consts  --      6.4527                 7.9389                 8.9127
 IR Inten    --      1.6875                58.9391                35.2736

 - Thermochemistry -
 -------------------
 Temperature   298.150 Kelvin.  Pressure   1.00000 Atm.
 Atom     1 has atomic number  6 and mass  12.00000

 Molecular mass:   243.10415 amu.
 Principal axes and moments of inertia in atomic units:
                           1         2         3
     Eigenvalues --  2943.165154336.676165849.43316
           X            0.99955   0.02936   0.00615
           Y           -0.02932   0.99955  -0.00623
           Z           -0.00633   0.00605   0.99996
 This molecule is an asymmetric top.
 Rotational symmetry number  1.
 Warning -- assumption of classical behavior for rotation
           may cause significant error
 Rotational temperatures (Kelvin)      0.02943     0.01997     0.01481
 Rotational constants (GHZ):           0.61320     0.41616     0.30853
 Zero-point vibrational energy     733041.5 (Joules/Mol)
                                  175.20111 (Kcal/Mol)
 Warning -- explicit consideration of  25 degrees of freedom as
           vibrations may cause significant error
 Vibrational temperatures:     27.41    71.39   131.03   144.87   173.50
          (Kelvin)            209.46   229.99   277.99   307.28   324.06
                              359.12   381.39   406.00   447.65   476.93
                              511.07   514.92   540.48   575.01   664.65
                              686.72   716.48   756.50   827.70   870.32
                              947.05   968.07   979.32  1046.89  1103.32
                             1135.35  1163.35  1196.21  1216.27  1279.78
                             1359.33  1369.38  1400.57  1427.88  1496.80
                             1516.88  1535.97  1565.28  1577.34  1598.56
                             1672.98  1713.18  1718.29  1721.77  1728.21
                             1772.87  1789.17  1839.70  1873.74  1909.40
                             1930.14  1941.26  1963.47  1997.05  2016.68
                             2031.74  2049.45  2063.88  2067.67  2134.27
                             2147.96  2150.21  2155.33  2167.35  2180.43
                             2186.46  2198.93  2242.08  2360.57  2456.56
                             2637.67  4293.82  4308.33  4348.57  4381.80
                             4393.29  4408.45  4426.13  4455.94  4458.44
                             4462.78  4490.14  4511.08  4513.60  4520.75
                             4528.49  5162.45  5331.17

 Zero-point correction=                           0.279201 (Hartree/Particle)
 Thermal correction to Energy=                    0.295173
 Thermal correction to Enthalpy=                  0.296117
 Thermal correction to Gibbs Free Energy=         0.235491
 Sum of electronic and zero-point Energies=          -1103.979873
 Sum of electronic and thermal Energies=             -1103.963901
 Sum of electronic and thermal Enthalpies=           -1103.962956
 Sum of electronic and thermal Free Energies=        -1104.023583

                     E (Thermal)             CV                S
                      KCal/Mol        Cal/Mol-Kelvin    Cal/Mol-Kelvin
 Total                  185.224             61.028            127.599
 Electronic               0.000              0.000              0.000
 Translational            0.889              2.981             42.366
 Rotational               0.889              2.981             32.679
 Vibrational            183.446             55.066             52.554
 Vibration     1          0.593              1.986              6.731
 Vibration     2          0.595              1.978              4.832
 Vibration     3          0.602              1.956              3.637
 Vibration     4          0.604              1.949              3.441
 Vibration     5          0.609              1.932              3.091
 Vibration     6          0.617              1.907              2.729
 Vibration     7          0.622              1.892              2.552
 Vibration     8          0.635              1.849              2.197
 Vibration     9          0.644              1.820              2.013
 Vibration    10          0.650              1.803              1.917
 Vibration    11          0.662              1.763              1.733
 Vibration    12          0.671              1.737              1.628
 Vibration    13          0.681              1.707              1.520
 Vibration    14          0.700              1.652              1.356
 Vibration    15          0.714              1.613              1.253
 Vibration    16          0.731              1.565              1.143
 Vibration    17          0.733              1.559              1.131
 Vibration    18          0.746              1.522              1.057
 Vibration    19          0.766              1.471              0.964
 Vibration    20          0.820              1.334              0.760
 Vibration    21          0.834              1.300              0.717
 Vibration    22          0.853              1.254              0.663
 Vibration    23          0.881              1.193              0.597
 Vibration    24          0.932              1.085              0.494
 Vibration    25          0.963              1.021              0.441

                           ! Non-Optimized Parameters !
 Normal termination of Gaussian 16 at Thu Dec 10 22:06:46 2020.

 ----------------------------------------------------------------------
 # B3LYP/6-311++G(d,p) empiricaldispersion=gd3bj scf=xqc pop=npa geom=c
 heck
 ----------------------------------------------------------------------

 --------------------------------------
 CID_79967750_JID_6252_Energie_neutraal
 --------------------------------------
 Structure from the checkpoint file:  "JID_6252.chk"
 Charge =  0 Multiplicity = 1

 SCF Done:  E(RB3LYP) =  -1104.49166632     A.U. after   14 cycles
 Normal termination of Gaussian 16 at Thu Dec 10 22:11:47 2020.

 ----------------------------------------------------------------------
 # B3LYP/6-311++G(d,p) empiricaldispersion=gd3bj scf=xqc pop=npa geom=c
 heck
 ----------------------------------------------------------------------

 ------------------------------------
 CID_79967750_JID_6252_Energie_kation
 ------------------------------------
 Structure from the checkpoint file:  "JID_6252.chk"
 Charge =  1 Multiplicity = 2

 SCF Done:  E(UB3LYP) =  -1104.19800264     A.U. after   26 cycles
 Normal termination of Gaussian 16 at Thu Dec 10 22:24:08 2020.
 Gaussian 16:  ES64L-G16RevA.03 25-Dec-2016

 ----------------------------------------------------------------------
 # B3LYP/6-311++G(d,p) empiricaldispersion=gd3bj scf=xqc pop=npa geom=c
 heck
 ----------------------------------------------------------------------

 -----------------------------------
 CID_79967750_JID_6252_Energie_anion
 -----------------------------------
 Structure from the checkpoint file:  "JID_6252.chk"
 Charge = -1 Multiplicity = 2

                         Standard orientation:
 ---------------------------------------------------------------------
 Center     Atomic      Atomic             Coordinates (Angstroms)
 Number     Number       Type             X           Y           Z
 ---------------------------------------------------------------------
      1          6           0       -3.773967   -0.671673    0.745725
      2          8           0       -3.200026   -1.830563    0.159858
      3          6           0       -1.792385   -1.852843    0.170407
      4          6           0       -1.102249   -0.946487   -0.880820
      5          7           0       -0.607785    0.335920   -0.397680
      6          6           0       -1.325780    1.513874   -0.597959
      7          8           0       -2.412395    1.585765   -1.141165
      8          7           0       -0.602267    2.611231   -0.060376
      9          6           0        0.515056    2.135815    0.376113
     10          6           0        0.713207    0.629762    0.149908
     11          6           0        1.038013   -0.091338    1.480801
     12          6           0        1.493383   -1.553322    1.368481
     13          6           0        2.735741   -1.724446    0.496275
     14         16           0        2.424392   -1.217665   -1.235742
     15          6           0        1.866705    0.488641   -0.881773
     16          7           0        1.496502    2.905437    0.908684
     17          1           0       -4.847474   -0.863194    0.824736
     18          1           0       -3.607757    0.223330    0.137078
     19          1           0       -3.369216   -0.501775    1.757926
     20          1           0       -1.418244   -1.607100    1.177817
     21          1           0       -1.524169   -2.893973   -0.044121
     22          1           0       -0.269034   -1.487976   -1.332495
     23          1           0       -1.831899   -0.726258   -1.664973
     24          1           0        0.159056   -0.014069    2.128702
     25          1           0        1.846657    0.460901    1.981273
     26          1           0        0.691782   -2.183476    0.975534
     27          1           0        1.714234   -1.918539    2.380023
     28          1           0        3.579916   -1.148008    0.896018
     29          1           0        3.042447   -2.773176    0.451382
     30          1           0        1.544739    0.917199   -1.834142
     31          1           0        2.728509    1.068124   -0.532577
     32          1           0        1.249870    3.864788    1.114053
     33          1           0        2.208185    2.488205    1.488768
 ---------------------------------------------------------------------

 SCF Done:  E(UB3LYP) =  -1104.49413572     A.U. after   33 cycles
 SCF Done:  E(UB3LYP) =  -1104.49413572     a.u. after    1 cycles

 The electronic state is 2-A.
 Alpha  occ. eigenvalues --  -88.75367 -19.03848 -18.99022 -14.24374 -14.24340
 Alpha  occ. eigenvalues --  -14.19862 -10.18821 -10.16619 -10.15129 -10.13220
 Alpha  occ. eigenvalues --  -10.11850 -10.11618 -10.11304 -10.11019 -10.08949
 Alpha  occ. eigenvalues --  -10.08862  -7.84010  -5.80390  -5.80055  -5.79373
 Alpha  occ. eigenvalues --   -0.95737  -0.94979  -0.89226  -0.84002  -0.78505
 Alpha  occ. eigenvalues --   -0.74830  -0.68765  -0.67456  -0.65627  -0.60138
 Alpha  occ. eigenvalues --   -0.56470  -0.54777  -0.53402  -0.50518  -0.50010
 Alpha  occ. eigenvalues --   -0.46787  -0.43012  -0.41780  -0.40742  -0.40038
 Alpha  occ. eigenvalues --   -0.39254  -0.38146  -0.37653  -0.35791  -0.34857
 Alpha  occ. eigenvalues --   -0.34394  -0.33034  -0.32410  -0.31929  -0.31179
 Alpha  occ. eigenvalues --   -0.30689  -0.28677  -0.28302  -0.27710  -0.27451
 Alpha  occ. eigenvalues --   -0.25721  -0.25073  -0.23374  -0.22302  -0.18804
 Alpha  occ. eigenvalues --   -0.18010  -0.17124  -0.16956  -0.15229  -0.13320
 Alpha  occ. eigenvalues --    0.03574
 Alpha virt. eigenvalues --    0.06264   0.07112   0.07491   0.08177   0.08690
 Alpha virt. eigenvalues --    0.08747   0.09618   0.10248   0.10362   0.11448
 Alpha virt. eigenvalues --    0.11798   0.12204   0.12528   0.12886   0.13174

  Beta  occ. eigenvalues --  -88.75366 -19.03847 -18.99021 -14.24370 -14.24232
  Beta  occ. eigenvalues --  -14.19853 -10.18818 -10.16598 -10.15131 -10.13217
  Beta  occ. eigenvalues --  -10.11822 -10.11616 -10.11304 -10.10986 -10.08901
  Beta  occ. eigenvalues --  -10.08844  -7.84009  -5.80391  -5.80052  -5.79372
  Beta  occ. eigenvalues --   -0.95730  -0.94977  -0.89193  -0.83929  -0.78444
  Beta  occ. eigenvalues --   -0.74787  -0.68738  -0.67407  -0.65601  -0.60124
  Beta  occ. eigenvalues --   -0.56384  -0.54721  -0.53371  -0.50438  -0.49953
  Beta  occ. eigenvalues --   -0.46722  -0.42973  -0.41685  -0.40703  -0.40011
  Beta  occ. eigenvalues --   -0.39226  -0.38121  -0.37626  -0.35760  -0.34813
  Beta  occ. eigenvalues --   -0.34355  -0.32991  -0.32393  -0.31891  -0.31145
  Beta  occ. eigenvalues --   -0.30669  -0.28643  -0.28296  -0.27671  -0.27389
  Beta  occ. eigenvalues --   -0.25645  -0.25039  -0.23367  -0.22263  -0.18783
  Beta  occ. eigenvalues --   -0.17997  -0.17089  -0.16945  -0.15183  -0.13301
  Beta virt. eigenvalues --    0.06368   0.07092   0.07585   0.07708   0.08362
  Beta virt. eigenvalues --    0.08963   0.09350   0.10056   0.10638   0.10725
  Beta virt. eigenvalues --    0.11607   0.12020   0.12635   0.12864   0.13192

 Mulliken charges and spin densities:
               1          2
     1  C   -0.246963  -0.036378
     2  O   -0.133750   0.004082
     3  C   -0.454957  -0.006213
     4  C   -0.041070  -0.136436
     5  N    0.116004   0.112403
     6  C    0.400793  -0.219425
     7  O   -0.359550  -0.004942
     8  N   -0.105099  -0.114379
     9  C   -0.849343   1.178140
    10  C    1.269979  -1.468462
    11  C    0.938971  -1.464751
    12  C   -0.547775   0.619744
    13  C    0.476619  -1.392119
    14  S    0.103706   0.102023
    15  C   -0.436577  -0.401791
    16  N   -0.368798   0.106380
    17  H    0.135775   0.006054
    18  H    0.187395  -0.005802
    19  H    0.062541   0.032158
    20  H    0.159941   0.021130
    21  H    0.150094   0.029404
    22  H    0.082937  -0.012387
    23  H    0.310057  -0.025478
    24  H    0.087113   0.088311
    25  H   -0.607316   0.787576
    26  H    0.130827  -0.017728
    27  H   -0.551499   0.770636
    28  H   -0.147869   0.369868
    29  H   -0.052933   0.280081
    30  H    0.224490   0.018920
    31  H   -0.162596   0.401397
    32  H   -0.328667   0.640886
    33  H   -0.442479   0.737097
 Sum of Mulliken charges =  -1.00000   1.00000

 Dipole moment (field-independent basis, Debye):
    X=             -4.6053    Y=             -5.5801    Z=             -4.2845  Tot=              8.4085
 Quadrupole moment (field-independent basis, Debye-Ang):
   XX=           -173.3554   YY=           -155.7447   ZZ=           -144.4261
   XY=             -3.9899   XZ=            -23.7319   YZ=             -4.2750

 Summary of Natural Population Analysis:

                                       Natural Population
                Natural  -----------------------------------------------
    Atom  No    Charge         Core      Valence    Rydberg      Total
 -----------------------------------------------------------------------
      C    1   -0.10745      0.99961     2.09902    0.00882     3.10745
      O    2   -0.29822      0.99989     3.28917    0.00917     4.29822
      C    3   -0.01395      0.99959     2.00287    0.01149     3.01395
      C    4   -0.11250      0.99961     2.10338    0.00951     3.11250
      N    5   -0.27722      0.99960     2.76577    0.01185     3.77722
      C    6    0.40154      0.99966     1.57196    0.02684     2.59846
      O    7   -0.32673      0.99987     3.32148    0.00539     4.32673
      N    8   -0.29381      0.99964     2.78428    0.00990     3.79381
      C    9    0.24811      0.99953     1.73104    0.02133     2.75189
      C   10    0.04585      0.99949     1.93880    0.01586     2.95415
      C   11   -0.19819      0.99957     2.18462    0.01400     3.19819
      C   12   -0.19759      0.99960     2.18702    0.01096     3.19759
      C   13   -0.24679      0.99959     2.23633    0.01087     3.24679
      S   14    0.08920      4.99963     2.89430    0.01687     7.91080
      C   15   -0.25227      0.99952     2.24161    0.01114     3.25227
      N   16   -0.38021      0.99967     2.87068    0.00985     3.88021
      H   17    0.08414      0.00000     0.41503    0.00083     0.41586
      H   18    0.09973      0.00000     0.39892    0.00135     0.40027
      H   19    0.07454      0.00000     0.42406    0.00140     0.42546
      H   20    0.08024      0.00000     0.41815    0.00162     0.41976
      H   21    0.08755      0.00000     0.41113    0.00133     0.41245
      H   22    0.10746      0.00000     0.39080    0.00174     0.39254
      H   23    0.11495      0.00000     0.38387    0.00118     0.38505
      H   24    0.10660      0.00000     0.39177    0.00163     0.39340
      H   25    0.11116      0.00000     0.38259    0.00625     0.38884
      H   26    0.09579      0.00000     0.40249    0.00172     0.40421
      H   27    0.10825      0.00000     0.38997    0.00178     0.39175
      H   28    0.10725      0.00000     0.39037    0.00238     0.39275
      H   29    0.10680      0.00000     0.39229    0.00092     0.39320
      H   30    0.11235      0.00000     0.38678    0.00088     0.38765
      H   31    0.11266      0.00000     0.38559    0.00176     0.38734
      H   32    0.20125      0.00000     0.29545    0.00330     0.29875
      H   33    0.20950      0.00000     0.26776    0.02274     0.29050
 =======================================================================
   * Total *    0.00000     19.99406    44.74932    0.25662    65.00000

 Normal termination of Gaussian 16 at Thu Dec 10 22:39:42 2020.
