 Gaussian 16, Revision A.03,

 -----------------------------------------------------------
 # opt freq B3LYP/6-31G(d) empiricaldispersion=gd3bj scf=xqc
 -----------------------------------------------------------

 ------------------------------
 CID_78969509_JID_6145_neutraal
 ------------------------------
 Symbolic Z-matrix:
 Charge =  0 Multiplicity = 1

 SCF Done:  E(RB3LYP) =  -819.838781388     A.U. after   15 cycles
 SCF Done:  E(RB3LYP) =  -819.847355794     A.U. after   12 cycles
 SCF Done:  E(RB3LYP) =  -819.847721472     A.U. after   12 cycles
 SCF Done:  E(RB3LYP) =  -819.847988093     A.U. after   13 cycles
 SCF Done:  E(RB3LYP) =  -819.849059494     A.U. after   12 cycles
 SCF Done:  E(RB3LYP) =  -819.848609353     A.U. after   13 cycles
 SCF Done:  E(RB3LYP) =  -819.849691956     A.U. after   13 cycles
 SCF Done:  E(RB3LYP) =  -819.850014770     A.U. after   13 cycles
 SCF Done:  E(RB3LYP) =  -819.850166790     A.U. after   12 cycles
 SCF Done:  E(RB3LYP) =  -819.850309916     A.U. after   12 cycles
 SCF Done:  E(RB3LYP) =  -819.850637502     A.U. after    7 cycles
 SCF Done:  E(RB3LYP) =  -819.850637661     A.U. after    7 cycles
 SCF Done:  E(RB3LYP) =  -819.850637925     A.U. after    8 cycles
 SCF Done:  E(RB3LYP) =  -819.850638044     A.U. after    7 cycles
 SCF Done:  E(RB3LYP) =  -819.850638129     A.U. after    7 cycles
 Optimization completed.
    -- Stationary point found.
 Normal termination of Gaussian 16 at Thu Dec 10 21:23:27 2020.

 --------------------------------------------------------------------
 #N Geom=AllCheck Guess=TCheck SCRF=Check GenChk RB3LYP/6-31G(d) Freq
 --------------------------------------------------------------------

 Structure from the checkpoint file:  "JID_6145.chk"
 ------------------------------
 CID_78969509_JID_6145_neutraal
 ------------------------------
 Charge =  0 Multiplicity = 1

 SCF Done:  E(RB3LYP) =  -819.850638129     A.U. after    1 cycles

  Exact polarizability: 130.162   1.701 119.161   0.671   4.642  98.566
 Approx polarizability: 163.938   0.748 199.311   6.195  11.649 155.001

                      1                      2                      3
                      A                      A                      A
 Frequencies --     19.3456                65.6314                78.6060
 Red. masses --      7.2621                 1.8745                 4.5801
 Frc consts  --      0.0016                 0.0048                 0.0167
 IR Inten    --      0.4470                 0.1712                 7.9487

                      4                      5                      6
                      A                      A                      A
 Frequencies --     89.0176               133.9437               147.2891
 Red. masses --      5.9857                 4.6480                 7.8560
 Frc consts  --      0.0279                 0.0491                 0.1004
 IR Inten    --      1.5841                 0.9501                 4.1532

                      7                      8                      9
                      A                      A                      A
 Frequencies --    173.4363               195.6235               243.9151
 Red. masses --      6.7389                 4.2871                 4.4477
 Frc consts  --      0.1194                 0.0967                 0.1559
 IR Inten    --      1.1798                 0.5068                 1.6262

                     10                     11                     12
                      A                      A                      A
 Frequencies --    275.4823               299.2817               314.9795
 Red. masses --      6.4090                 2.4947                 3.9890
 Frc consts  --      0.2866                 0.1317                 0.2332
 IR Inten    --      4.9447                 1.2229                 6.0509

                     13                     14                     15
                      A                      A                      A
 Frequencies --    359.8073               398.7476               417.7521
 Red. masses --      4.8621                 1.9872                 5.7289
 Frc consts  --      0.3709                 0.1862                 0.5891
 IR Inten    --      4.2939                 0.5346                14.0417

                     16                     17                     18
                      A                      A                      A
 Frequencies --    469.0199               498.3384               551.1478
 Red. masses --      4.1504                 3.4738                 4.2797
 Frc consts  --      0.5379                 0.5083                 0.7659
 IR Inten    --     13.2669                11.3191                10.5914

                     19                     20                     21
                      A                      A                      A
 Frequencies --    559.2343               573.5581               586.4493
 Red. masses --      3.3053                 2.9047                 2.6102
 Frc consts  --      0.6091                 0.5630                 0.5289
 IR Inten    --      0.8625                17.0394                11.5667

                     22                     23                     24
                      A                      A                      A
 Frequencies --    597.0125               610.5523               648.4226
 Red. masses --      1.7765                 2.1413                 6.2914
 Frc consts  --      0.3731                 0.4703                 1.5585
 IR Inten    --     41.0427                33.3003                15.5794

                     25                     26                     27
                      A                      A                      A
 Frequencies --    676.6928               705.3610               755.3843
 Red. masses --      6.1659                 2.9595                 4.5461
 Frc consts  --      1.6635                 0.8675                 1.5284
 IR Inten    --     34.0596                37.6575                52.0607

                     28                     29                     30
                      A                      A                      A
 Frequencies --    837.3964               839.4067               859.0239
 Red. masses --      1.5897                 1.5400                 4.7660
 Frc consts  --      0.6568                 0.6393                 2.0721
 IR Inten    --      1.1892                11.8379                 3.9082

                     31                     32                     33
                      A                      A                      A
 Frequencies --    865.3394               931.1713               944.3615
 Red. masses --      3.0284                 2.8959                 2.4154
 Frc consts  --      1.3361                 1.4794                 1.2691
 IR Inten    --      3.2408                13.8802                 5.3907

                     34                     35                     36
                      A                      A                      A
 Frequencies --   1022.4628              1028.8688              1033.9541
 Red. masses --      2.4677                 2.1076                 2.5228
 Frc consts  --      1.5200                 1.3145                 1.5891
 IR Inten    --     12.6681                17.5249                 5.8302

                     37                     38                     39
                      A                      A                      A
 Frequencies --   1035.9965              1049.0562              1074.5356
 Red. masses --      2.3742                 3.3055                 1.6626
 Frc consts  --      1.5014                 2.1433                 1.1311
 IR Inten    --      1.1452                 3.7315                16.2809

                     40                     41                     42
                      A                      A                      A
 Frequencies --   1113.6133              1135.2702              1163.0667
 Red. masses --      4.3046                 5.2732                 3.4356
 Frc consts  --      3.1452                 4.0043                 2.7382
 IR Inten    --      5.8224                42.6170                52.4103

                     43                     44                     45
                      A                      A                      A
 Frequencies --   1177.4124              1192.8856              1206.9564
 Red. masses --      1.2919                 3.3275                 2.5006
 Frc consts  --      1.0552                 2.7898                 2.1463
 IR Inten    --      7.2114                48.0810               222.1141

                     46                     47                     48
                      A                      A                      A
 Frequencies --   1238.9477              1248.4385              1258.3358
 Red. masses --      2.5502                 1.4054                 1.1202
 Frc consts  --      2.3063                 1.2905                 1.0451
 IR Inten    --    179.5171                34.3352                 0.6440

                     49                     50                     51
                      A                      A                      A
 Frequencies --   1292.5115              1294.1778              1326.2198
 Red. masses --      1.5184                 1.6447                 1.5388
 Frc consts  --      1.4945                 1.6230                 1.5946
 IR Inten    --     21.2985                18.4509                12.0127

                     52                     53                     54
                      A                      A                      A
 Frequencies --   1330.9702              1336.8930              1370.3214
 Red. masses --      1.6264                 1.2936                 1.3588
 Frc consts  --      1.6975                 1.3622                 1.5033
 IR Inten    --      7.3104                20.7535                 3.9507

                     55                     56                     57
                      A                      A                      A
 Frequencies --   1381.0916              1389.7245              1404.6536
 Red. masses --      2.4062                 2.9318                 1.2541
 Frc consts  --      2.7041                 3.3361                 1.4579
 IR Inten    --    190.7167               114.1711                18.7898

                     58                     59                     60
                      A                      A                      A
 Frequencies --   1421.0655              1445.2367              1485.4141
 Red. masses --      1.7608                 1.3208                 1.0713
 Frc consts  --      2.0950                 1.6254                 1.3927
 IR Inten    --      9.3464                 8.6284                 0.1074

                     61                     62                     63
                      A                      A                      A
 Frequencies --   1505.0620              1507.4323              1524.7189
 Red. masses --      1.0898                 1.0999                 1.0922
 Frc consts  --      1.4545                 1.4725                 1.4960
 IR Inten    --      2.8046                 9.6022                12.8411

                     64                     65                     66
                      A                      A                      A
 Frequencies --   1528.5639              1542.5347              1803.5001
 Red. masses --      1.0798                 1.1042                12.3819
 Frc consts  --      1.4865                 1.5480                23.7284
 IR Inten    --      0.8994                 1.8156               547.8692

                     67                     68                     69
                      A                      A                      A
 Frequencies --   1841.7829              1866.9167              2991.6931
 Red. masses --     10.2756                12.4767                 1.0720
 Frc consts  --     20.5368                25.6212                 5.6530
 IR Inten    --    233.0488                18.4925                58.3249

                     70                     71                     72
                      A                      A                      A
 Frequencies --   3052.9281              3069.8578              3089.6350
 Red. masses --      1.0646                 1.0622                 1.0606
 Frc consts  --      5.8462                 5.8977                 5.9650
 IR Inten    --     41.3739                12.4214                11.9235

                     73                     74                     75
                      A                      A                      A
 Frequencies --   3095.8222              3098.7643              3115.9314
 Red. masses --      1.0627                 1.0687                 1.0982
 Frc consts  --      6.0011                 6.0460                 6.2819
 IR Inten    --      1.6699                 6.2131                42.5614

                     76                     77                     78
                      A                      A                      A
 Frequencies --   3118.5009              3126.2185              3128.1283
 Red. masses --      1.0937                 1.1056                 1.1040
 Frc consts  --      6.2666                 6.3661                 6.3648
 IR Inten    --     28.1395                 0.2509                13.6628

                     79                     80                     81
                      A                      A                      A
 Frequencies --   3141.1996              3186.3955              3682.2787
 Red. masses --      1.1033                 1.0966                 1.0639
 Frc consts  --      6.4138                 6.5597                 8.4996
 IR Inten    --      5.0224                 3.9111                65.7917

 - Thermochemistry -
 -------------------
 Temperature   298.150 Kelvin.  Pressure   1.00000 Atm.
 Atom     1 has atomic number  6 and mass  12.00000

 Molecular mass:   227.07937 amu.
 Principal axes and moments of inertia in atomic units:
                           1         2         3
     Eigenvalues --  2123.420133747.242184693.67658
           X            0.99999   0.00459  -0.00117
           Y           -0.00457   0.99992   0.01166
           Z            0.00122  -0.01166   0.99993
 This molecule is an asymmetric top.
 Rotational symmetry number  1.
 Warning -- assumption of classical behavior for rotation
           may cause significant error
 Rotational temperatures (Kelvin)      0.04079     0.02311     0.01845
 Rotational constants (GHZ):           0.84992     0.48162     0.38450
 Zero-point vibrational energy     617253.2 (Joules/Mol)
                                  147.52706 (Kcal/Mol)
 Warning -- explicit consideration of  23 degrees of freedom as
           vibrations may cause significant error
 Vibrational temperatures:     27.83    94.43   113.10   128.08   192.72
          (Kelvin)            211.92   249.54   281.46   350.94   396.36
                              430.60   453.19   517.68   573.71   601.05
                              674.82   717.00   792.98   804.61   825.22
                              843.77   858.97   878.45   932.94   973.61
                             1014.86  1086.83  1204.83  1207.72  1235.94
                             1245.03  1339.75  1358.73  1471.10  1480.31
                             1487.63  1490.57  1509.36  1546.02  1602.24
                             1633.40  1673.39  1694.03  1716.30  1736.54
                             1782.57  1796.22  1810.46  1859.64  1862.03
                             1908.13  1914.97  1923.49  1971.59  1987.08
                             1999.50  2020.98  2044.60  2079.37  2137.18
                             2165.45  2168.86  2193.73  2199.26  2219.36
                             2594.83  2649.91  2686.08  4304.38  4392.48
                             4416.84  4445.30  4454.20  4458.43  4483.13
                             4486.83  4497.93  4500.68  4519.49  4584.51
                             5297.98

 Zero-point correction=                           0.235099 (Hartree/Particle)
 Thermal correction to Energy=                    0.249176
 Thermal correction to Enthalpy=                  0.250120
 Thermal correction to Gibbs Free Energy=         0.193260
 Sum of electronic and zero-point Energies=           -819.615539
 Sum of electronic and thermal Energies=              -819.601462
 Sum of electronic and thermal Enthalpies=            -819.600518
 Sum of electronic and thermal Free Energies=         -819.657378

                     E (Thermal)             CV                S
                      KCal/Mol        Cal/Mol-Kelvin    Cal/Mol-Kelvin
 Total                  156.360             53.967            119.672
 Electronic               0.000              0.000              0.000
 Translational            0.889              2.981             42.163
 Rotational               0.889              2.981             31.991
 Vibrational            154.583             48.005             45.519
 Vibration     1          0.593              1.986              6.700
 Vibration     2          0.597              1.971              4.280
 Vibration     3          0.600              1.964              3.925
 Vibration     4          0.602              1.957              3.682
 Vibration     5          0.613              1.919              2.889
 Vibration     6          0.617              1.906              2.707
 Vibration     7          0.627              1.875              2.398
 Vibration     8          0.636              1.846              2.174
 Vibration     9          0.659              1.773              1.774
 Vibration    10          0.677              1.719              1.562
 Vibration    11          0.692              1.675              1.421
 Vibration    12          0.702              1.645              1.336
 Vibration    13          0.734              1.555              1.123
 Vibration    14          0.765              1.473              0.967
 Vibration    15          0.781              1.432              0.900
 Vibration    16          0.826              1.319              0.740
 Vibration    17          0.854              1.254              0.662
 Vibration    18          0.906              1.137              0.542
 Vibration    19          0.915              1.120              0.525
 Vibration    20          0.930              1.088              0.497
 Vibration    21          0.944              1.061              0.474
 Vibration    22          0.955              1.038              0.455
 Vibration    23          0.970              1.009              0.432

 Optimization completed.
    -- Stationary point found.
 Normal termination of Gaussian 16 at Thu Dec 10 21:33:42 2020.

 ----------------------------------------------------------------------
 # B3LYP/6-311++G(d,p) empiricaldispersion=gd3bj scf=xqc pop=npa geom=c
 heck
 ----------------------------------------------------------------------

 --------------------------------------
 CID_78969509_JID_6145_Energie_neutraal
 --------------------------------------
 Structure from the checkpoint file:  "JID_6145.chk"
 Charge =  0 Multiplicity = 1

 SCF Done:  E(RB3LYP) =  -820.095201878     A.U. after   16 cycles
 Normal termination of Gaussian 16 at Thu Dec 10 21:37:37 2020.

 ----------------------------------------------------------------------
 # B3LYP/6-311++G(d,p) empiricaldispersion=gd3bj scf=xqc pop=npa geom=c
 heck
 ----------------------------------------------------------------------

 ------------------------------------
 CID_78969509_JID_6145_Energie_kation
 ------------------------------------
 Structure from the checkpoint file:  "JID_6145.chk"
 Charge =  1 Multiplicity = 2

 SCF Done:  E(UB3LYP) =  -819.760115750     A.U. after   30 cycles
 Normal termination of Gaussian 16 at Thu Dec 10 21:47:18 2020.
 Gaussian 16:  ES64L-G16RevA.03 25-Dec-2016

 ----------------------------------------------------------------------
 # B3LYP/6-311++G(d,p) empiricaldispersion=gd3bj scf=xqc pop=npa geom=c
 heck
 ----------------------------------------------------------------------

 -----------------------------------
 CID_78969509_JID_6145_Energie_anion
 -----------------------------------
 Structure from the checkpoint file:  "JID_6145.chk"
 Charge = -1 Multiplicity = 2

                         Standard orientation:
 ---------------------------------------------------------------------
 Center     Atomic      Atomic             Coordinates (Angstroms)
 Number     Number       Type             X           Y           Z
 ---------------------------------------------------------------------
      1          6           0        3.300307   -0.434532   -0.356907
      2          6           0        3.237886    1.043749    0.036942
      3          6           0        1.752916    1.369449    0.167709
      4          8           0        1.288179    2.474822    0.344426
      5          7           0        1.036074    0.172496    0.022481
      6          6           0        1.850638   -0.884260   -0.401849
      7          8           0        1.429672   -1.966871   -0.752922
      8          6           0       -0.436269    0.000263    0.053114
      9          6           0       -0.996746    0.219584   -1.366812
     10          6           0       -2.527720    0.318796   -1.399543
     11          8           0       -3.022364    1.259601   -0.456653
     12          6           0       -2.637210    0.918448    0.866689
     13          6           0       -1.117660    0.988999    1.029748
     14          6           0       -0.672589   -1.406883    0.650951
     15          8           0       -0.224295   -1.748903    1.720619
     16          8           0       -1.515182   -2.171884   -0.071502
     17          1           0        3.755382   -0.610792   -1.335681
     18          1           0        3.834562   -1.059381    0.365118
     19          1           0        3.677056    1.717999   -0.703132
     20          1           0        3.720745    1.258239    0.995268
     21          1           0       -0.580027    1.168831   -1.721499
     22          1           0       -0.653752   -0.577902   -2.032406
     23          1           0       -2.852241    0.674424   -2.381544
     24          1           0       -2.978673   -0.665984   -1.222512
     25          1           0       -3.026575   -0.079019    1.131548
     26          1           0       -3.115018    1.649270    1.524450
     27          1           0       -0.817973    0.752965    2.055299
     28          1           0       -0.790634    2.000695    0.797834
     29          1           0       -1.594775   -3.012615    0.417885
 ---------------------------------------------------------------------

 SCF Done:  E(UB3LYP) =  -820.083554587     A.U. after   33 cycles
 SCF Done:  E(UB3LYP) =  -820.083554587     a.u. after    1 cycles

 The electronic state is 2-A.
 Alpha  occ. eigenvalues --  -19.07961 -19.03732 -19.02275 -19.01591 -19.01467
 Alpha  occ. eigenvalues --  -14.27608 -10.21936 -10.19454 -10.19161 -10.15684
 Alpha  occ. eigenvalues --  -10.13148 -10.12638 -10.09083 -10.09045 -10.08603
 Alpha  occ. eigenvalues --  -10.08297  -1.02307  -0.97638  -0.95733  -0.95298
 Alpha  occ. eigenvalues --   -0.93196  -0.86683  -0.74924  -0.68887  -0.68175
 Alpha  occ. eigenvalues --   -0.60115  -0.59338  -0.56340  -0.54785  -0.52260
 Alpha  occ. eigenvalues --   -0.49137  -0.45559  -0.41901  -0.40756  -0.40237
 Alpha  occ. eigenvalues --   -0.39213  -0.38784  -0.37841  -0.36876  -0.36812
 Alpha  occ. eigenvalues --   -0.34872  -0.34511  -0.32895  -0.32758  -0.32007
 Alpha  occ. eigenvalues --   -0.31785  -0.31399  -0.30677  -0.29987  -0.28462
 Alpha  occ. eigenvalues --   -0.27341  -0.25571  -0.25170  -0.23505  -0.22125
 Alpha  occ. eigenvalues --   -0.19714  -0.19427  -0.18557  -0.17149  -0.16711
 Alpha  occ. eigenvalues --    0.04409
 Alpha virt. eigenvalues --    0.05898   0.06824   0.07438   0.07652   0.08260
 Alpha virt. eigenvalues --    0.08341   0.09398   0.09944   0.10828   0.11099
 Alpha virt. eigenvalues --    0.11452   0.12134   0.12274   0.12498   0.13166

  Beta  occ. eigenvalues --  -19.07919 -19.03729 -19.02265 -19.01556 -19.01415
  Beta  occ. eigenvalues --  -14.27619 -10.21935 -10.19395 -10.19108 -10.15679
  Beta  occ. eigenvalues --  -10.13138 -10.12627 -10.09049 -10.09005 -10.08592
  Beta  occ. eigenvalues --  -10.08294  -1.02257  -0.97557  -0.95647  -0.95290
  Beta  occ. eigenvalues --   -0.93157  -0.86650  -0.74884  -0.68845  -0.68157
  Beta  occ. eigenvalues --   -0.60049  -0.59224  -0.56311  -0.54719  -0.52169
  Beta  occ. eigenvalues --   -0.49085  -0.45506  -0.41853  -0.40691  -0.40172
  Beta  occ. eigenvalues --   -0.39136  -0.38753  -0.37788  -0.36829  -0.36773
  Beta  occ. eigenvalues --   -0.34827  -0.34476  -0.32859  -0.32655  -0.31861
  Beta  occ. eigenvalues --   -0.31696  -0.31340  -0.30596  -0.29922  -0.28435
  Beta  occ. eigenvalues --   -0.27306  -0.25535  -0.25036  -0.23461  -0.22108
  Beta  occ. eigenvalues --   -0.19677  -0.19372  -0.18494  -0.17122  -0.16667
  Beta virt. eigenvalues --    0.06720   0.07378   0.07417   0.07858   0.08049
  Beta virt. eigenvalues --    0.08401   0.09133   0.09861   0.10173   0.10966
  Beta virt. eigenvalues --    0.11377   0.11727   0.12316   0.12651   0.13020

 Mulliken charges and spin densities:
               1          2
     1  C    1.062265  -1.543078
     2  C    1.112202  -1.622866
     3  C   -0.253144   0.562187
     4  O   -0.313534   0.031515
     5  N    0.575680   0.112218
     6  C   -0.234470   0.463160
     7  O   -0.254935   0.044669
     8  C   -1.221601   0.474794
     9  C    0.941744  -0.552659
    10  C   -0.043194  -0.574667
    11  O   -0.133917   0.025440
    12  C   -0.293066  -0.222142
    13  C   -0.646647   0.371042
    14  C    0.103424  -0.482142
    15  O   -0.216572   0.034748
    16  O   -0.125488   0.081403
    17  H   -0.569917   0.779061
    18  H   -0.126636   0.329708
    19  H   -0.155040   0.351707
    20  H   -0.535398   0.740898
    21  H    0.080497   0.124613
    22  H    0.010572   0.218891
    23  H    0.050343   0.129451
    24  H    0.071921   0.116661
    25  H   -0.064413   0.222085
    26  H    0.054155   0.150496
    27  H    0.172674   0.038460
    28  H    0.241224   0.003144
    29  H   -0.288728   0.591204
 Sum of Mulliken charges =  -1.00000   1.00000

 Dipole moment (field-independent basis, Debye):
    X=             -4.8666    Y=              1.8941    Z=              0.3229  Tot=              5.2322
 Quadrupole moment (field-independent basis, Debye-Ang):
   XX=           -163.2180   YY=           -141.1478   ZZ=           -124.7063
   XY=             -6.3951   XZ=              2.3292   YZ=              0.5957

 Summary of Natural Population Analysis:

                                       Natural Population
                Natural  -----------------------------------------------
    Atom  No    Charge         Core      Valence    Rydberg      Total
 -----------------------------------------------------------------------
      C    1   -0.23381      0.99960     2.22553    0.00867     3.23381
      C    2   -0.23276      0.99961     2.22428    0.00886     3.23276
      C    3    0.37180      0.99966     1.60585    0.02269     2.62820
      O    4   -0.29866      0.99987     3.29298    0.00581     4.29866
      N    5   -0.27079      0.99957     2.75834    0.01287     3.77079
      C    6    0.37265      0.99966     1.60489    0.02281     2.62735
      O    7   -0.29271      0.99987     3.28676    0.00608     4.29271
      C    8    0.03481      0.99949     1.94830    0.01739     2.96519
      C    9   -0.21301      0.99958     2.20342    0.01001     3.21301
      C   10   -0.01169      0.99958     1.99932    0.01279     3.01169
      O   11   -0.30040      0.99989     3.29171    0.00880     4.30040
      C   12   -0.01156      0.99958     1.99907    0.01291     3.01156
      C   13   -0.21264      0.99958     2.20455    0.00851     3.21264
      C   14    0.41478      0.99963     1.55628    0.02930     2.58522
      O   15   -0.30521      0.99986     3.29925    0.00609     4.30521
      O   16   -0.34159      0.99987     3.33410    0.00762     4.34159
      H   17    0.12067      0.00000     0.37513    0.00421     0.37933
      H   18    0.11777      0.00000     0.38104    0.00119     0.38223
      H   19    0.11615      0.00000     0.38251    0.00134     0.38385
      H   20    0.11935      0.00000     0.37773    0.00292     0.38065
      H   21    0.10652      0.00000     0.39226    0.00122     0.39348
      H   22    0.11678      0.00000     0.38205    0.00117     0.38322
      H   23    0.09093      0.00000     0.40800    0.00107     0.40907
      H   24    0.08821      0.00000     0.41024    0.00156     0.41179
      H   25    0.08002      0.00000     0.41855    0.00143     0.41998
      H   26    0.09267      0.00000     0.40636    0.00097     0.40733
      H   27    0.11212      0.00000     0.38680    0.00108     0.38788
      H   28    0.12414      0.00000     0.37440    0.00146     0.37586
      H   29    0.24546      0.00000     0.24462    0.00992     0.25454
 =======================================================================
   * Total *    0.00000     15.99491    43.77433    0.23076    60.00000

 Normal termination of Gaussian 16 at Thu Dec 10 21:58:16 2020.
