 Gaussian 16, Revision A.03,

 -----------------------------------------------------------
 # opt freq B3LYP/6-31G(d) empiricaldispersion=gd3bj scf=xqc
 -----------------------------------------------------------

 -------------------------------
 CID_117122129_JID_3463_neutraal
 -------------------------------
 Symbolic Z-matrix:
 Charge =  0 Multiplicity = 1

 SCF Done:  E(RB3LYP) =  -557.012188225     A.U. after   14 cycles
 SCF Done:  E(RB3LYP) =  -557.015963893     A.U. after   12 cycles
 SCF Done:  E(RB3LYP) =  -557.016245249     A.U. after   10 cycles
 SCF Done:  E(RB3LYP) =  -557.016291570     A.U. after   10 cycles
 SCF Done:  E(RB3LYP) =  -557.016324051     A.U. after   10 cycles
 SCF Done:  E(RB3LYP) =  -557.016345323     A.U. after   10 cycles
 SCF Done:  E(RB3LYP) =  -557.016362111     A.U. after   11 cycles
 SCF Done:  E(RB3LYP) =  -557.016406268     A.U. after   10 cycles
 SCF Done:  E(RB3LYP) =  -557.016554403     A.U. after   12 cycles
 SCF Done:  E(RB3LYP) =  -557.016721340     A.U. after   14 cycles
 SCF Done:  E(RB3LYP) =  -557.017338621     A.U. after    7 cycles
 SCF Done:  E(RB3LYP) =  -557.017338893     A.U. after    7 cycles
 SCF Done:  E(RB3LYP) =  -557.017339046     A.U. after    7 cycles
 SCF Done:  E(RB3LYP) =  -557.017339117     A.U. after    7 cycles
 SCF Done:  E(RB3LYP) =  -557.017339164     A.U. after    6 cycles
 Optimization completed.
    -- Stationary point found.
 Normal termination of Gaussian 16 at Wed Dec  9 23:29:52 2020.

 --------------------------------------------------------------------
 #N Geom=AllCheck Guess=TCheck SCRF=Check GenChk RB3LYP/6-31G(d) Freq
 --------------------------------------------------------------------

 Structure from the checkpoint file:  "JID_3463.chk"
 -------------------------------
 CID_117122129_JID_3463_neutraal
 -------------------------------
 Charge =  0 Multiplicity = 1

 SCF Done:  E(RB3LYP) =  -557.017339164     A.U. after    1 cycles

  Exact polarizability: 170.997  -9.445 139.953   2.534   2.187  62.650
 Approx polarizability: 252.921 -20.081 232.399   5.199   3.524  94.642

                      1                      2                      3
                      A                      A                      A
 Frequencies --     54.8117                59.7267                68.2599
 Red. masses --      2.9524                 1.1378                 1.2208
 Frc consts  --      0.0052                 0.0024                 0.0034
 IR Inten    --      1.4543                 0.9824                 0.4760

                      4                      5                      6
                      A                      A                      A
 Frequencies --    110.0755               131.1466               149.8074
 Red. masses --      3.0509                 2.2287                 3.8054
 Frc consts  --      0.0218                 0.0226                 0.0503
 IR Inten    --      1.9060                 1.7582                 3.2536

                      7                      8                      9
                      A                      A                      A
 Frequencies --    197.7682               221.4317               268.2598
 Red. masses --      2.8833                 2.9511                 3.6770
 Frc consts  --      0.0664                 0.0853                 0.1559
 IR Inten    --      1.4536                 1.6471                 0.8864

                     10                     11                     12
                      A                      A                      A
 Frequencies --    312.0964               338.8164               356.1683
 Red. masses --      3.0421                 2.9033                 4.6133
 Frc consts  --      0.1746                 0.1964                 0.3448
 IR Inten    --     15.4679                 2.1041                 2.1326

                     13                     14                     15
                      A                      A                      A
 Frequencies --    394.1427               439.8216               515.4201
 Red. masses --      1.3296                 2.9319                 4.4620
 Frc consts  --      0.1217                 0.3342                 0.6984
 IR Inten    --    149.7639                 4.1762                 4.9558

                     16                     17                     18
                      A                      A                      A
 Frequencies --    549.5869               582.1874               604.1207
 Red. masses --      4.4950                 4.7376                 3.8050
 Frc consts  --      0.7999                 0.9461                 0.8182
 IR Inten    --      0.4111                 5.6794                 2.8367

                     19                     20                     21
                      A                      A                      A
 Frequencies --    611.7807               652.7448               732.2171
 Red. masses --      3.5687                 4.5041                 4.3780
 Frc consts  --      0.7870                 1.1307                 1.3829
 IR Inten    --      2.5249                 1.9284                 5.0156

                     22                     23                     24
                      A                      A                      A
 Frequencies --    770.6185               795.1764               813.3042
 Red. masses --      3.8942                 1.4397                 2.1854
 Frc consts  --      1.3625                 0.5364                 0.8517
 IR Inten    --      2.6769                13.4473                19.5029

                     25                     26                     27
                      A                      A                      A
 Frequencies --    820.5040               861.0045               920.9988
 Red. masses --      1.9130                 1.4408                 3.3449
 Frc consts  --      0.7588                 0.6293                 1.6717
 IR Inten    --     15.0153                 2.6714                 0.4955

                     28                     29                     30
                      A                      A                      A
 Frequencies --    943.4343              1002.6025              1019.5876
 Red. masses --      1.2630                 1.6300                 2.2658
 Frc consts  --      0.6623                 0.9653                 1.3878
 IR Inten    --      0.0013                48.2345                 1.2523

                     31                     32                     33
                      A                      A                      A
 Frequencies --   1035.4343              1060.5286              1073.8745
 Red. masses --      2.2302                 2.5621                 1.4888
 Frc consts  --      1.4088                 1.6978                 1.0115
 IR Inten    --     53.8389                30.1520                 3.9582

                     34                     35                     36
                      A                      A                      A
 Frequencies --   1095.2213              1150.6015              1160.5726
 Red. masses --      2.5628                 1.9754                 1.2908
 Frc consts  --      1.8112                 1.5409                 1.0244
 IR Inten    --     40.0607                 6.2276                 0.5854

                     37                     38                     39
                      A                      A                      A
 Frequencies --   1178.8034              1207.5621              1215.7130
 Red. masses --      1.4190                 1.7770                 1.1135
 Frc consts  --      1.1617                 1.5267                 0.9696
 IR Inten    --      2.7281                21.8247                13.2055

                     40                     41                     42
                      A                      A                      A
 Frequencies --   1244.9619              1284.5173              1347.8105
 Red. masses --      2.2317                 1.8447                 1.6542
 Frc consts  --      2.0379                 1.7933                 1.7705
 IR Inten    --      0.7090                21.9430                 7.4745

                     43                     44                     45
                      A                      A                      A
 Frequencies --   1372.7758              1381.0593              1411.2412
 Red. masses --      2.2191                 5.0582                 1.8451
 Frc consts  --      2.4639                 5.6842                 2.1651
 IR Inten    --     26.2617                13.1730                33.8841

                     46                     47                     48
                      A                      A                      A
 Frequencies --   1431.7869              1442.6973              1449.9414
 Red. masses --      4.4132                 1.2589                 1.6852
 Frc consts  --      5.3304                 1.5439                 2.0874
 IR Inten    --     22.1000                 2.0350                86.9160

                     49                     50                     51
                      A                      A                      A
 Frequencies --   1473.6183              1508.8641              1511.9996
 Red. masses --      1.4515                 1.0749                 1.4822
 Frc consts  --      1.8571                 1.4419                 1.9965
 IR Inten    --     18.9301                 7.7845                 0.8573

                     52                     53                     54
                      A                      A                      A
 Frequencies --   1513.9481              1523.2086              1539.1853
 Red. masses --      1.0448                 2.0210                 1.1371
 Frc consts  --      1.4109                 2.7626                 1.5872
 IR Inten    --      3.7055                69.1447                 0.5243

                     55                     56                     57
                      A                      A                      A
 Frequencies --   1539.7979              1556.3354              1608.8310
 Red. masses --      1.2755                 1.6009                 5.2131
 Frc consts  --      1.7818                 2.2847                 7.9500
 IR Inten    --      6.1854                 2.8643                27.6618

                     58                     59                     60
                      A                      A                      A
 Frequencies --   1622.2971              1683.1207              2985.9030
 Red. masses --      6.2093                 6.4648                 1.0727
 Frc consts  --      9.6285                10.7904                 5.6347
 IR Inten    --      1.5246                12.3260                60.2865

                     61                     62                     63
                      A                      A                      A
 Frequencies --   3039.2940              3043.4441              3066.7061
 Red. masses --      1.0373                 1.0362                 1.0899
 Frc consts  --      5.6455                 5.6546                 6.0394
 IR Inten    --     47.3823                66.1887                40.0862

                     64                     65                     66
                      A                      A                      A
 Frequencies --   3089.3233              3096.5487              3121.1452
 Red. masses --      1.1009                 1.1050                 1.1007
 Frc consts  --      6.1904                 6.2424                 6.3174
 IR Inten    --     23.2797                26.7199                19.5861

                     67                     68                     69
                      A                      A                      A
 Frequencies --   3154.4597              3174.9979              3186.9634
 Red. masses --      1.1004                 1.0866                 1.0901
 Frc consts  --      6.4516                 6.4539                 6.5236
 IR Inten    --      9.9294                11.9289                21.2858

                     70                     71                     72
                      A                      A                      A
 Frequencies --   3195.4356              3271.4201              3726.3576
 Red. masses --      1.0942                 1.0960                 1.0657
 Frc consts  --      6.5825                 6.9110                 8.7189
 IR Inten    --     22.3268                 0.1138                 6.9511

 - Thermochemistry -
 -------------------
 Temperature   298.150 Kelvin.  Pressure   1.00000 Atm.
 Atom     1 has atomic number  6 and mass  12.00000

 Molecular mass:   175.09971 amu.
 Principal axes and moments of inertia in atomic units:
                           1         2         3
     Eigenvalues --  1290.283093262.925934485.84980
           X            1.00000  -0.00285   0.00070
           Y            0.00285   0.99999   0.00248
           Z           -0.00071  -0.00248   1.00000
 This molecule is an asymmetric top.
 Rotational symmetry number  1.
 Warning -- assumption of classical behavior for rotation
           may cause significant error
 Rotational temperatures (Kelvin)      0.06713     0.02654     0.01931
 Rotational constants (GHZ):           1.39872     0.55311     0.40232
 Zero-point vibrational energy     574661.7 (Joules/Mol)
                                  137.34744 (Kcal/Mol)
 Warning -- explicit consideration of  19 degrees of freedom as
           vibrations may cause significant error
 Vibrational temperatures:     78.86    85.93    98.21   158.37   188.69
          (Kelvin)            215.54   284.54   318.59   385.97   449.04
                              487.48   512.45   567.08   632.81   741.57
                              790.73   837.64   869.19   880.22   939.15
                             1053.50  1108.75  1144.08  1170.16  1180.52
                             1238.79  1325.11  1357.39  1442.52  1466.96
                             1489.76  1525.86  1545.07  1575.78  1655.46
                             1669.81  1696.04  1737.41  1749.14  1791.22
                             1848.13  1939.20  1975.12  1987.04  2030.46
                             2060.02  2075.72  2086.14  2120.21  2170.92
                             2175.43  2178.23  2191.56  2214.54  2215.43
                             2239.22  2314.75  2334.12  2421.64  4296.05
                             4372.87  4378.84  4412.31  4444.85  4455.24
                             4490.63  4538.56  4568.11  4585.33  4597.52
                             4706.84  5361.40

 Zero-point correction=                           0.218877 (Hartree/Particle)
 Thermal correction to Energy=                    0.231444
 Thermal correction to Enthalpy=                  0.232389
 Thermal correction to Gibbs Free Energy=         0.179418
 Sum of electronic and zero-point Energies=           -556.798462
 Sum of electronic and thermal Energies=              -556.785895
 Sum of electronic and thermal Enthalpies=            -556.784951
 Sum of electronic and thermal Free Energies=         -556.837921

                     E (Thermal)             CV                S
                      KCal/Mol        Cal/Mol-Kelvin    Cal/Mol-Kelvin
 Total                  145.234             46.753            111.486
 Electronic               0.000              0.000              0.000
 Translational            0.889              2.981             41.388
 Rotational               0.889              2.981             31.313
 Vibrational            143.456             40.792             38.785
 Vibration     1          0.596              1.976              4.636
 Vibration     2          0.597              1.974              4.466
 Vibration     3          0.598              1.969              4.203
 Vibration     4          0.606              1.941              3.268
 Vibration     5          0.612              1.922              2.929
 Vibration     6          0.618              1.903              2.675
 Vibration     7          0.637              1.843              2.154
 Vibration     8          0.648              1.808              1.947
 Vibration     9          0.673              1.731              1.607
 Vibration    10          0.700              1.651              1.351
 Vibration    11          0.719              1.598              1.218
 Vibration    12          0.732              1.563              1.139
 Vibration    13          0.761              1.483              0.984
 Vibration    14          0.800              1.383              0.827
 Vibration    15          0.870              1.216              0.621
 Vibration    16          0.905              1.141              0.545
 Vibration    17          0.939              1.070              0.481
 Vibration    18          0.963              1.023              0.443
 Vibration    19          0.971              1.007              0.430

 Optimization completed.
    -- Stationary point found.
 Normal termination of Gaussian 16 at Wed Dec  9 23:36:04 2020.

 ----------------------------------------------------------------------
 # B3LYP/6-311++G(d,p) empiricaldispersion=gd3bj scf=xqc pop=npa geom=c
 heck
 ----------------------------------------------------------------------

 ---------------------------------------
 CID_117122129_JID_3463_Energie_neutraal
 ---------------------------------------
 Structure from the checkpoint file:  "JID_3463.chk"
 Charge =  0 Multiplicity = 1

 SCF Done:  E(RB3LYP) =  -557.172909121     A.U. after   15 cycles
 Normal termination of Gaussian 16 at Wed Dec  9 23:38:49 2020.

 ----------------------------------------------------------------------
 # B3LYP/6-311++G(d,p) empiricaldispersion=gd3bj scf=xqc pop=npa geom=c
 heck
 ----------------------------------------------------------------------

 -------------------------------------
 CID_117122129_JID_3463_Energie_kation
 -------------------------------------
 Structure from the checkpoint file:  "JID_3463.chk"
 Charge =  1 Multiplicity = 2

 SCF Done:  E(UB3LYP) =  -556.904868977     A.U. after   22 cycles
 Normal termination of Gaussian 16 at Wed Dec  9 23:44:35 2020.
 Gaussian 16:  ES64L-G16RevA.03 25-Dec-2016

 ----------------------------------------------------------------------
 # B3LYP/6-311++G(d,p) empiricaldispersion=gd3bj scf=xqc pop=npa geom=c
 heck
 ----------------------------------------------------------------------

 ------------------------------------
 CID_117122129_JID_3463_Energie_anion
 ------------------------------------
 Structure from the checkpoint file:  "JID_3463.chk"
 Charge = -1 Multiplicity = 2

                         Standard orientation:
 ---------------------------------------------------------------------
 Center     Atomic      Atomic             Coordinates (Angstroms)
 Number     Number       Type             X           Y           Z
 ---------------------------------------------------------------------
      1          6           0        4.108743   -0.343663    0.113296
      2          6           0        2.601908   -0.413070    0.045833
      3          6           0        1.836160    0.750076    0.030029
      4          6           0        0.444164    0.629887   -0.036482
      5          6           0       -0.210101   -0.631347   -0.084066
      6          6           0        0.578308   -1.793806   -0.068306
      7          6           0        1.958653   -1.673189   -0.002767
      8          6           0       -1.625692   -0.369482   -0.136490
      9          6           0       -1.769699    0.996509   -0.121530
     10          7           0       -0.528872    1.610111   -0.061574
     11          6           0       -0.281326    3.033019    0.006304
     12          6           0       -2.741724   -1.368121   -0.205288
     13          8           0       -3.963496   -0.861668    0.328515
     14          1           0        4.494661   -0.865043    0.998283
     15          1           0        4.459868    0.692166    0.157158
     16          1           0        4.571096   -0.815841   -0.762729
     17          1           0        2.315736    1.724566    0.068059
     18          1           0        0.115942   -2.776526   -0.107978
     19          1           0        2.572231   -2.570830    0.010501
     20          1           0       -2.673219    1.588996   -0.150517
     21          1           0        0.193043    3.308242    0.956246
     22          1           0        0.370276    3.353650   -0.814721
     23          1           0       -1.231932    3.563621   -0.077096
     24          1           0       -2.977351   -1.638733   -1.241663
     25          1           0       -2.439141   -2.299346    0.302066
     26          1           0       -3.757498   -0.543239    1.222091
 ---------------------------------------------------------------------

 SCF Done:  E(UB3LYP) =  -557.159813787     A.U. after   33 cycles
 SCF Done:  E(UB3LYP) =  -557.159813787     a.u. after    1 cycles

 The electronic state is 2-A.
 Alpha  occ. eigenvalues --  -19.03101 -14.25931 -10.12903 -10.10236 -10.10181
 Alpha  occ. eigenvalues --  -10.10071 -10.08144 -10.07662 -10.07190 -10.07136
 Alpha  occ. eigenvalues --  -10.07044 -10.06818 -10.06772  -0.93166  -0.88745
 Alpha  occ. eigenvalues --   -0.75227  -0.71128  -0.65593  -0.65044  -0.61827
 Alpha  occ. eigenvalues --   -0.58254  -0.56256  -0.51472  -0.47994  -0.46309
 Alpha  occ. eigenvalues --   -0.42680  -0.40240  -0.38352  -0.37150  -0.36443
 Alpha  occ. eigenvalues --   -0.34481  -0.34379  -0.33532  -0.33033  -0.32311
 Alpha  occ. eigenvalues --   -0.29640  -0.29509  -0.28477  -0.28324  -0.26301
 Alpha  occ. eigenvalues --   -0.25377  -0.23573  -0.22469  -0.19406  -0.17239
 Alpha  occ. eigenvalues --   -0.12485  -0.10467   0.04402
 Alpha virt. eigenvalues --    0.06499   0.06771   0.07239   0.08153   0.08532
 Alpha virt. eigenvalues --    0.09301   0.09658   0.10571   0.10715   0.10956
 Alpha virt. eigenvalues --    0.11374   0.12217   0.12939   0.13538   0.13933

  Beta  occ. eigenvalues --  -19.03082 -14.25930 -10.12894 -10.10179 -10.10161
  Beta  occ. eigenvalues --  -10.10053 -10.08144 -10.07658 -10.07188 -10.07117
  Beta  occ. eigenvalues --  -10.07019 -10.06810 -10.06773  -0.93127  -0.88734
  Beta  occ. eigenvalues --   -0.75215  -0.71105  -0.65571  -0.65014  -0.61776
  Beta  occ. eigenvalues --   -0.58213  -0.56200  -0.51432  -0.47974  -0.46265
  Beta  occ. eigenvalues --   -0.42633  -0.40201  -0.38315  -0.37110  -0.36402
  Beta  occ. eigenvalues --   -0.34453  -0.34345  -0.33506  -0.33003  -0.32286
  Beta  occ. eigenvalues --   -0.29611  -0.29453  -0.28442  -0.28297  -0.26275
  Beta  occ. eigenvalues --   -0.25359  -0.23554  -0.22449  -0.19386  -0.17224
  Beta  occ. eigenvalues --   -0.12472  -0.10448
  Beta virt. eigenvalues --    0.06481   0.07153   0.07311   0.07671   0.08665
  Beta virt. eigenvalues --    0.09216   0.09419   0.09880   0.11057   0.11257
  Beta virt. eigenvalues --    0.11502   0.11920   0.12345   0.13210   0.13681

 Mulliken charges and spin densities:
               1          2
     1  C    2.219919  -2.637563
     2  C   -0.557416   1.106518
     3  C   -0.846239   0.034729
     4  C   -0.267968  -0.538690
     5  C    1.472178  -0.895439
     6  C   -0.431516   0.036224
     7  C   -1.626406   0.922063
     8  C    1.609632  -1.032142
     9  C   -1.371812   1.456953
    10  N   -0.211337   0.363754
    11  C    1.602269  -1.907220
    12  C    0.609972  -0.994757
    13  O   -0.262478   0.009455
    14  H   -0.017234   0.164679
    15  H   -0.510267   0.667808
    16  H    0.024362   0.122532
    17  H   -0.046281   0.195886
    18  H   -0.000280   0.125916
    19  H   -0.144801   0.278266
    20  H   -0.397270   0.601181
    21  H   -0.607978   0.794091
    22  H   -0.621630   0.793219
    23  H   -0.779040   0.928847
    24  H    0.145164   0.011574
    25  H   -0.032569   0.203224
    26  H    0.049026   0.188891
 Sum of Mulliken charges =  -1.00000   1.00000

 Dipole moment (field-independent basis, Debye):
    X=             -0.2213    Y=             -7.4507    Z=             -0.8429  Tot=              7.5015
 Quadrupole moment (field-independent basis, Debye-Ang):
   XX=           -146.5628   YY=           -138.4835   ZZ=           -104.9999
   XY=             -0.6940   XZ=             -0.0524   YZ=              0.0695

 Summary of Natural Population Analysis:

                                       Natural Population
                Natural  -----------------------------------------------
    Atom  No    Charge         Core      Valence    Rydberg      Total
 -----------------------------------------------------------------------
      C    1   -0.28946      0.99964     2.28474    0.00509     3.28946
      C    2   -0.02198      0.99954     2.01154    0.01091     3.02198
      C    3   -0.11581      0.99947     2.10727    0.00907     3.11581
      C    4    0.07699      0.99951     1.90793    0.01557     2.92301
      C    5    0.00179      0.99947     1.99308    0.00565     2.99821
      C    6   -0.10966      0.99957     2.09607    0.01402     3.10966
      C    7   -0.11454      0.99953     2.10567    0.00935     3.11454
      C    8   -0.09455      0.99951     2.07825    0.01679     3.09455
      C    9    0.01133      0.99948     1.97645    0.01273     2.98867
      N   10   -0.20493      0.99963     2.69479    0.01051     3.70493
      C   11   -0.17352      0.99964     2.16520    0.00867     3.17352
      C   12   -0.00962      0.99956     1.99841    0.01165     3.00962
      O   13   -0.36797      0.99990     3.36168    0.00639     4.36797
      H   14    0.10115      0.00000     0.39759    0.00127     0.39885
      H   15    0.10376      0.00000     0.39503    0.00121     0.39624
      H   16    0.10052      0.00000     0.39827    0.00122     0.39948
      H   17    0.10686      0.00000     0.39169    0.00146     0.39314
      H   18    0.09719      0.00000     0.40121    0.00160     0.40281
      H   19    0.09611      0.00000     0.40303    0.00086     0.40389
      H   20    0.10654      0.00000     0.39222    0.00124     0.39346
      H   21    0.10100      0.00000     0.39583    0.00317     0.39900
      H   22    0.10086      0.00000     0.39646    0.00268     0.39914
      H   23    0.10558      0.00000     0.39103    0.00339     0.39442
      H   24    0.08711      0.00000     0.41125    0.00164     0.41289
      H   25    0.07756      0.00000     0.42046    0.00198     0.42244
      H   26    0.22783      0.00000     0.26837    0.00380     0.27217
 =======================================================================
   * Total *    0.00013     12.99445    33.84352    0.16190    46.99987

 Normal termination of Gaussian 16 at Wed Dec  9 23:53:13 2020.
