 Gaussian 16, Revision A.03,

 -----------------------------------------------------------
 # opt freq B3LYP/6-31G(d) empiricaldispersion=gd3bj scf=xqc
 -----------------------------------------------------------

 -------------------------------
 CID_124514649_JID_1192_neutraal
 -------------------------------
 Symbolic Z-matrix:
 Charge =  0 Multiplicity = 1

 SCF Done:  E(RB3LYP) =  -585.860447761     A.U. after   15 cycles
 SCF Done:  E(RB3LYP) =  -585.864009858     A.U. after   14 cycles
 SCF Done:  E(RB3LYP) =  -585.862364704     A.U. after   14 cycles
 SCF Done:  E(RB3LYP) =  -585.865898959     A.U. after   13 cycles
 SCF Done:  E(RB3LYP) =  -585.866637854     A.U. after   13 cycles
 SCF Done:  E(RB3LYP) =  -585.867310521     A.U. after   13 cycles
 SCF Done:  E(RB3LYP) =  -585.867652787     A.U. after   11 cycles
 SCF Done:  E(RB3LYP) =  -585.867878173     A.U. after   12 cycles
 SCF Done:  E(RB3LYP) =  -585.867984167     A.U. after   12 cycles
 SCF Done:  E(RB3LYP) =  -585.868100424     A.U. after   11 cycles
 SCF Done:  E(RB3LYP) =  -585.869016796     A.U. after   11 cycles
 SCF Done:  E(RB3LYP) =  -585.869021233     A.U. after   10 cycles
 SCF Done:  E(RB3LYP) =  -585.869021471     A.U. after    9 cycles
 SCF Done:  E(RB3LYP) =  -585.869022139     A.U. after    8 cycles
 SCF Done:  E(RB3LYP) =  -585.869022245     A.U. after    7 cycles
 SCF Done:  E(RB3LYP) =  -585.869022250     A.U. after    6 cycles
 Optimization completed.
    -- Stationary point found.
 Normal termination of Gaussian 16 at Tue Dec  8 19:27:24 2020.

 --------------------------------------------------------------------
 #N Geom=AllCheck Guess=TCheck SCRF=Check GenChk RB3LYP/6-31G(d) Freq
 --------------------------------------------------------------------

 Structure from the checkpoint file:  "JID_1192.chk"
 -------------------------------
 CID_124514649_JID_1192_neutraal
 -------------------------------
 Charge =  0 Multiplicity = 1

 SCF Done:  E(RB3LYP) =  -585.869022250     A.U. after    1 cycles

  Exact polarizability: 106.957   8.064  75.648   3.311  -2.089  64.004
 Approx polarizability: 151.972   6.761 106.049  13.961  -6.693 104.179

                      1                      2                      3
                      A                      A                      A
 Frequencies --     48.8155                61.6370                75.3193
 Red. masses --      6.0404                 4.3413                 1.1421
 Frc consts  --      0.0085                 0.0097                 0.0038
 IR Inten    --      2.6903                 5.4988                 0.5260

                      4                      5                      6
                      A                      A                      A
 Frequencies --     82.1779               112.6486               140.6934
 Red. masses --      3.6353                 4.7487                 2.8732
 Frc consts  --      0.0145                 0.0355                 0.0335
 IR Inten    --      2.6337                 6.5614                 1.5930

                      7                      8                      9
                      A                      A                      A
 Frequencies --    197.0881               220.3598               243.1031
 Red. masses --      2.1636                 4.4439                 1.6688
 Frc consts  --      0.0495                 0.1271                 0.0581
 IR Inten    --      4.2224                 0.9098                 6.0993

                     10                     11                     12
                      A                      A                      A
 Frequencies --    313.9075               333.0976               368.7421
 Red. masses --      3.7930                 6.7086                 4.4689
 Frc consts  --      0.2202                 0.4386                 0.3580
 IR Inten    --      5.2846                 5.4058                 6.1898

                     13                     14                     15
                      A                      A                      A
 Frequencies --    395.7249               462.9307               514.1481
 Red. masses --      3.0725                 1.1403                 3.9694
 Frc consts  --      0.2835                 0.1440                 0.6182
 IR Inten    --     24.7437                51.4033                19.6941

                     16                     17                     18
                      A                      A                      A
 Frequencies --    563.7219               595.2514               615.4969
 Red. masses --      4.0737                 2.0727                 1.6136
 Frc consts  --      0.7627                 0.4327                 0.3602
 IR Inten    --     39.1309                 5.7016                 2.9905

                     19                     20                     21
                      A                      A                      A
 Frequencies --    642.9418               676.1749               712.4903
 Red. masses --      3.2094                 2.1042                 4.0248
 Frc consts  --      0.7816                 0.5668                 1.2038
 IR Inten    --     45.0503               219.4576               160.3602

                     22                     23                     24
                      A                      A                      A
 Frequencies --    746.4055               798.0665               923.4413
 Red. masses --      4.8953                 7.3394                 5.2860
 Frc consts  --      1.6069                 2.7542                 2.6558
 IR Inten    --      4.7821                 8.3641                 7.2582

                     25                     26                     27
                      A                      A                      A
 Frequencies --    955.0135              1027.8378              1060.6782
 Red. masses --      5.8868                 1.9663                 1.8873
 Frc consts  --      3.1633                 1.2239                 1.2510
 IR Inten    --     42.7814                79.5765                39.9002

                     28                     29                     30
                      A                      A                      A
 Frequencies --   1070.8821              1158.2545              1181.6699
 Red. masses --      1.7265                 1.2947                 1.6543
 Frc consts  --      1.1665                 1.0233                 1.3610
 IR Inten    --     12.4911                 1.8243                31.7036

                     31                     32                     33
                      A                      A                      A
 Frequencies --   1189.9653              1250.0339              1347.3348
 Red. masses --      2.1752                 3.9411                 2.8352
 Frc consts  --      1.8148                 3.6283                 3.0324
 IR Inten    --     13.1279               316.1325               139.1170

                     34                     35                     36
                      A                      A                      A
 Frequencies --   1420.4995              1443.7694              1493.9298
 Red. masses --      1.2973                 2.2205                 1.4565
 Frc consts  --      1.5424                 2.7270                 1.9152
 IR Inten    --     31.7115                36.5600                10.8877

                     37                     38                     39
                      A                      A                      A
 Frequencies --   1501.7503              1505.1480              1508.7360
 Red. masses --      1.0774                 1.0579                 1.5156
 Frc consts  --      1.4316                 1.4120                 2.0326
 IR Inten    --     13.2257                 4.8162                11.5309

                     40                     41                     42
                      A                      A                      A
 Frequencies --   1524.9466              1556.7443              1654.0786
 Red. masses --      1.0644                 1.2561                 1.2772
 Frc consts  --      1.4584                 1.7935                 2.0589
 IR Inten    --     18.7064                32.8598                79.2087

                     43                     44                     45
                      A                      A                      A
 Frequencies --   1703.6808              1780.3921              1857.2459
 Red. masses --      6.1582                 7.0386                11.7106
 Frc consts  --     10.5313                13.1451                23.7995
 IR Inten    --    248.7895               332.3437               241.6239

                     46                     47                     48
                      A                      A                      A
 Frequencies --   3057.4535              3071.0371              3111.0919
 Red. masses --      1.0375                 1.0381                 1.1057
 Frc consts  --      5.7144                 5.7682                 6.3054
 IR Inten    --     40.8462                 1.9958                29.3997

                     49                     50                     51
                      A                      A                      A
 Frequencies --   3138.0032              3178.8574              3185.3757
 Red. masses --      1.0981                 1.1045                 1.0992
 Frc consts  --      6.3708                 6.5757                 6.5710
 IR Inten    --      6.0759                 7.8962                 1.6740

                     52                     53                     54
                      A                      A                      A
 Frequencies --   3546.7202              3590.9652              3654.3727
 Red. masses --      1.0462                 1.0756                 1.1001
 Frc consts  --      7.7539                 8.1716                 8.6560
 IR Inten    --     45.3517                28.8698                39.6065

 - Thermochemistry -
 -------------------
 Temperature   298.150 Kelvin.  Pressure   1.00000 Atm.
 Atom     1 has atomic number  6 and mass  12.00000

 Molecular mass:   159.06439 amu.
 Principal axes and moments of inertia in atomic units:
                           1         2         3
     Eigenvalues --  1030.273572346.302502712.82791
           X            0.99902   0.03687  -0.02459
           Y           -0.03597   0.99869   0.03629
           Z            0.02589  -0.03537   0.99904
 This molecule is an asymmetric top.
 Rotational symmetry number  1.
 Warning -- assumption of classical behavior for rotation
           may cause significant error
 Rotational temperatures (Kelvin)      0.08407     0.03692     0.03193
 Rotational constants (GHZ):           1.75171     0.76919     0.66526
 Zero-point vibrational energy     410144.8 (Joules/Mol)
                                   98.02695 (Kcal/Mol)
 Warning -- explicit consideration of  18 degrees of freedom as
           vibrations may cause significant error
 Vibrational temperatures:     70.23    88.68   108.37   118.24   162.08
          (Kelvin)            202.43   283.57   317.05   349.77   451.64
                              479.25   530.54   569.36   666.05   739.74
                              811.07   856.43   885.56   925.05   972.86
                             1025.11  1073.91  1148.24  1328.63  1374.05
                             1478.83  1526.08  1540.76  1666.47  1700.16
                             1712.09  1798.52  1938.51  2043.78  2077.26
                             2149.43  2160.68  2165.57  2170.73  2194.06
                             2239.81  2379.85  2451.22  2561.59  2672.16
                             4398.99  4418.54  4476.17  4514.89  4573.67
                             4583.05  5102.94  5166.60  5257.83

 Zero-point correction=                           0.156216 (Hartree/Particle)
 Thermal correction to Energy=                    0.168462
 Thermal correction to Enthalpy=                  0.169407
 Thermal correction to Gibbs Free Energy=         0.117109
 Sum of electronic and zero-point Energies=           -585.712806
 Sum of electronic and thermal Energies=              -585.700560
 Sum of electronic and thermal Enthalpies=            -585.699616
 Sum of electronic and thermal Free Energies=         -585.751914

                     E (Thermal)             CV                S
                      KCal/Mol        Cal/Mol-Kelvin    Cal/Mol-Kelvin
 Total                  105.712             42.688            110.070
 Electronic               0.000              0.000              0.000
 Translational            0.889              2.981             41.102
 Rotational               0.889              2.981             30.262
 Vibrational            103.934             36.726             38.707
 Vibration     1          0.595              1.978              4.865
 Vibration     2          0.597              1.973              4.404
 Vibration     3          0.599              1.965              4.009
 Vibration     4          0.600              1.961              3.838
 Vibration     5          0.607              1.939              3.223
 Vibration     6          0.615              1.913              2.794
 Vibration     7          0.636              1.844              2.160
 Vibration     8          0.647              1.810              1.956
 Vibration     9          0.659              1.774              1.780
 Vibration    10          0.702              1.647              1.342
 Vibration    11          0.715              1.609              1.245
 Vibration    12          0.741              1.536              1.085
 Vibration    13          0.762              1.479              0.978
 Vibration    14          0.821              1.332              0.758
 Vibration    15          0.869              1.219              0.624
 Vibration    16          0.920              1.110              0.516
 Vibration    17          0.953              1.042              0.458
 Vibration    18          0.975              0.999              0.424

 Optimization completed.
    -- Stationary point found.
 Normal termination of Gaussian 16 at Tue Dec  8 19:31:14 2020.

 ----------------------------------------------------------------------
 # B3LYP/6-311++G(d,p) empiricaldispersion=gd3bj scf=xqc pop=npa geom=c
 heck
 ----------------------------------------------------------------------

 ---------------------------------------
 CID_124514649_JID_1192_Energie_neutraal
 ---------------------------------------
 Structure from the checkpoint file:  "JID_1192.chk"
 Charge =  0 Multiplicity = 1

 SCF Done:  E(RB3LYP) =  -586.055218680     A.U. after   14 cycles
 Normal termination of Gaussian 16 at Tue Dec  8 19:32:46 2020.

 ----------------------------------------------------------------------
 # B3LYP/6-311++G(d,p) empiricaldispersion=gd3bj scf=xqc pop=npa geom=c
 heck
 ----------------------------------------------------------------------

 -------------------------------------
 CID_124514649_JID_1192_Energie_kation
 -------------------------------------
 Structure from the checkpoint file:  "JID_1192.chk"
 Charge =  1 Multiplicity = 2

 SCF Done:  E(UB3LYP) =  -585.719843254     A.U. after   28 cycles
 Normal termination of Gaussian 16 at Tue Dec  8 19:36:58 2020.
 Gaussian 16:  ES64L-G16RevA.03 25-Dec-2016

 ----------------------------------------------------------------------
 # B3LYP/6-311++G(d,p) empiricaldispersion=gd3bj scf=xqc pop=npa geom=c
 heck
 ----------------------------------------------------------------------

 ------------------------------------
 CID_124514649_JID_1192_Energie_anion
 ------------------------------------
 Structure from the checkpoint file:  "JID_1192.chk"
 Charge = -1 Multiplicity = 2

                         Standard orientation:
 ---------------------------------------------------------------------
 Center     Atomic      Atomic             Coordinates (Angstroms)
 Number     Number       Type             X           Y           Z
 ---------------------------------------------------------------------
      1          6           0       -3.044595   -0.539546    0.932619
      2          6           0       -2.129360    0.302559    0.074108
      3          8           0       -2.424785    0.855156   -0.955023
      4          8           0       -0.891266    0.341740    0.650331
      5          7           0       -0.033956    1.336846    0.068791
      6          6           0        1.160401    0.864247   -0.039978
      7          6           0        1.669164   -0.518096    0.349458
      8          8           0        2.598663   -0.586350    1.148362
      9          7           0        1.118934   -1.598752   -0.249551
     10          6           0        0.122803   -1.644272   -1.307120
     11          7           0        2.165290    1.668935   -0.517615
     12          1           0       -3.882231   -0.889561    0.327696
     13          1           0       -3.432902    0.074327    1.753233
     14          1           0       -2.508963   -1.383932    1.374319
     15          1           0        1.533286   -2.472028    0.054412
     16          1           0        0.505051   -2.223130   -2.154559
     17          1           0       -0.806869   -2.105414   -0.956060
     18          1           0       -0.103958   -0.635622   -1.651456
     19          1           0        1.941177    2.657032   -0.544727
     20          1           0        3.072159    1.455406   -0.118115
 ---------------------------------------------------------------------

 SCF Done:  E(UB3LYP) =  -586.045516433     A.U. after   31 cycles

 The electronic state is 2-A.
 Alpha  occ. eigenvalues --  -19.07972 -19.00528 -18.98164 -14.23635 -14.23121
 Alpha  occ. eigenvalues --  -14.22437 -10.19598 -10.16890 -10.13903 -10.09199
 Alpha  occ. eigenvalues --  -10.07965  -1.01387  -0.93782  -0.92668  -0.84051
 Alpha  occ. eigenvalues --   -0.81686  -0.74356  -0.64429  -0.60313  -0.55599
 Alpha  occ. eigenvalues --   -0.50440  -0.45398  -0.41079  -0.40154  -0.38539
 Alpha  occ. eigenvalues --   -0.38283  -0.36914  -0.36699  -0.33872  -0.32342
 Alpha  occ. eigenvalues --   -0.31236  -0.30676  -0.30277  -0.28686  -0.27555
 Alpha  occ. eigenvalues --   -0.26543  -0.22922  -0.19428  -0.17596  -0.15035
 Alpha  occ. eigenvalues --   -0.14931  -0.13781   0.04756
 Alpha virt. eigenvalues --    0.06759   0.07531   0.07948   0.09540   0.09787
 Alpha virt. eigenvalues --    0.11221   0.11458   0.12004   0.12812   0.14224
 Alpha virt. eigenvalues --    0.14549   0.15310   0.16046   0.16534   0.17169

  Beta  occ. eigenvalues --  -19.07965 -19.00509 -18.98067 -14.23516 -14.23072
  Beta  occ. eigenvalues --  -14.22375 -10.19584 -10.16827 -10.13796 -10.09145
  Beta  occ. eigenvalues --  -10.07937  -1.01334  -0.93626  -0.92596  -0.83920
  Beta  occ. eigenvalues --   -0.81567  -0.74223  -0.64369  -0.60180  -0.55317
  Beta  occ. eigenvalues --   -0.50348  -0.45279  -0.40997  -0.39988  -0.38406
  Beta  occ. eigenvalues --   -0.38224  -0.36845  -0.36519  -0.33740  -0.32234
  Beta  occ. eigenvalues --   -0.31158  -0.30536  -0.30165  -0.28536  -0.27319
  Beta  occ. eigenvalues --   -0.26307  -0.22775  -0.19202  -0.17547  -0.14857
  Beta  occ. eigenvalues --   -0.14624  -0.13401
  Beta virt. eigenvalues --    0.07388   0.07663   0.08691   0.08888   0.10272
  Beta virt. eigenvalues --    0.10498   0.11516   0.11996   0.12524   0.13209
  Beta virt. eigenvalues --    0.14346   0.14989   0.15432   0.16073   0.16664

 Mulliken charges and spin densities:
               1          2
     1  C    0.543999  -1.034734
     2  C   -0.233109   0.299026
     3  O   -0.265904   0.017642
     4  O    0.184818   0.000708
     5  N   -0.397857   0.054976
     6  C    0.341963  -0.213076
     7  C    0.200303  -0.205912
     8  O   -0.382584   0.040217
     9  N   -0.326037   0.123209
    10  C    0.980773  -1.368073
    11  N   -0.243343   0.011233
    12  H   -0.029580   0.190853
    13  H   -0.108614   0.281918
    14  H   -0.139745   0.318363
    15  H   -0.260820   0.581586
    16  H   -0.770168   0.950170
    17  H   -0.395289   0.568259
    18  H    0.161301   0.011261
    19  H   -0.011339   0.263919
    20  H    0.151233   0.108455
 Sum of Mulliken charges =  -1.00000   1.00000

 Dipole moment (field-independent basis, Debye):
    X=             -0.5982    Y=              3.6441    Z=              1.3512  Tot=              3.9323
 Quadrupole moment (field-independent basis, Debye-Ang):
   XX=           -104.3539   YY=           -106.6239   ZZ=            -94.6106
   XY=              5.2951   XZ=             -3.6117   YZ=             -2.6296

 Summary of Natural Population Analysis:

                                       Natural Population
                Natural  -----------------------------------------------
    Atom  No    Charge         Core      Valence    Rydberg      Total
 -----------------------------------------------------------------------
      C    1   -0.33535      0.99962     2.33029    0.00545     3.33535
      C    2    0.40469      0.99973     1.56997    0.02561     2.59531
      O    3   -0.29455      0.99986     3.28896    0.00573     4.29455
      O    4   -0.22098      0.99986     3.21178    0.00934     4.22098
      N    5   -0.10473      0.99960     2.59248    0.01265     3.60473
      C    6    0.19144      0.99960     1.79086    0.01810     2.80856
      C    7    0.32774      0.99962     1.64945    0.02319     2.67226
      O    8   -0.31875      0.99988     3.31296    0.00591     4.31875
      N    9   -0.29835      0.99967     2.78710    0.01158     3.79835
      C   10   -0.18061      0.99963     2.17191    0.00907     3.18061
      N   11   -0.38968      0.99970     2.88087    0.00911     3.88968
      H   12    0.10888      0.00000     0.39025    0.00088     0.39112
      H   13    0.11239      0.00000     0.38649    0.00112     0.38761
      H   14    0.11476      0.00000     0.38393    0.00131     0.38524
      H   15    0.19567      0.00000     0.29841    0.00592     0.30433
      H   16    0.09942      0.00000     0.39700    0.00358     0.40058
      H   17    0.09467      0.00000     0.40345    0.00188     0.40533
      H   18    0.10706      0.00000     0.39129    0.00165     0.39294
      H   19    0.18944      0.00000     0.30766    0.00290     0.31056
      H   20    0.19686      0.00000     0.30118    0.00196     0.30314
 =======================================================================
   * Total *   -0.00000     10.99679    30.84628    0.15693    42.00000

 Normal termination of Gaussian 16 at Tue Dec  8 19:41:44 2020.
