 Gaussian 16, Revision A.03,

 -----------------------------------------------------------
 # opt freq B3LYP/6-31G(d) empiricaldispersion=gd3bj scf=xqc
 -----------------------------------------------------------

 ------------------------------
 CID_80479219_JID_1275_neutraal
 ------------------------------
 Symbolic Z-matrix:
 Charge =  0 Multiplicity = 1

 SCF Done:  E(RB3LYP) =  -833.429639315     A.U. after   15 cycles
 SCF Done:  E(RB3LYP) =  -833.431782576     A.U. after   12 cycles
 SCF Done:  E(RB3LYP) =  -833.432068626     A.U. after   12 cycles
 SCF Done:  E(RB3LYP) =  -833.432124821     A.U. after   11 cycles
 SCF Done:  E(RB3LYP) =  -833.432176932     A.U. after   10 cycles
 SCF Done:  E(RB3LYP) =  -833.432210483     A.U. after   10 cycles
 SCF Done:  E(RB3LYP) =  -833.432236882     A.U. after   11 cycles
 SCF Done:  E(RB3LYP) =  -833.432262396     A.U. after   11 cycles
 SCF Done:  E(RB3LYP) =  -833.432273707     A.U. after   11 cycles
 SCF Done:  E(RB3LYP) =  -833.432274960     A.U. after    8 cycles
 Optimization completed.
    -- Stationary point found.
 Normal termination of Gaussian 16 at Tue Dec  8 19:34:08 2020.

 --------------------------------------------------------------------
 #N Geom=AllCheck Guess=TCheck SCRF=Check GenChk RB3LYP/6-31G(d) Freq
 --------------------------------------------------------------------

 Structure from the checkpoint file:  "JID_1275.chk"
 ------------------------------
 CID_80479219_JID_1275_neutraal
 ------------------------------
 Charge =  0 Multiplicity = 1

 SCF Done:  E(RB3LYP) =  -833.432274960     A.U. after    1 cycles

  Exact polarizability: 178.385   0.766 107.232   0.048   0.010  47.708
 Approx polarizability: 274.192   8.779 204.577   0.148   0.056  74.891

                      1                      2                      3
                      A                      A                      A
 Frequencies --     29.5524               100.8233               112.7608
 Red. masses --      5.6209                 3.3827                 5.2308
 Frc consts  --      0.0029                 0.0203                 0.0392
 IR Inten    --      2.9358                 0.0527                 0.6126

                      4                      5                      6
                      A                      A                      A
 Frequencies --    128.9600               222.8872               288.0225
 Red. masses --      1.1386                 3.8137                 3.4696
 Frc consts  --      0.0112                 0.1116                 0.1696
 IR Inten    --      0.3938                 0.0437                 0.3057

                      7                      8                      9
                      A                      A                      A
 Frequencies --    325.6053               345.9805               441.4458
 Red. masses --      5.1862                 8.4483                 4.6890
 Frc consts  --      0.3240                 0.5958                 0.5384
 IR Inten    --      0.2854                 0.1960                 8.4581

                     10                     11                     12
                      A                      A                      A
 Frequencies --    489.8665               524.6144               609.2661
 Red. masses --      1.7855                 2.6752                 4.4430
 Frc consts  --      0.2524                 0.4338                 0.9717
 IR Inten    --     56.1265                18.6176                 9.5845

                     13                     14                     15
                      A                      A                      A
 Frequencies --    635.6770               644.4376               684.4459
 Red. masses --      9.9186                 3.1834                 4.8571
 Frc consts  --      2.3614                 0.7789                 1.3406
 IR Inten    --      2.1435                11.5700                 3.7168

                     16                     17                     18
                      A                      A                      A
 Frequencies --    724.5874               742.1023               765.6469
 Red. masses --      5.9885                 7.8703                 1.2049
 Frc consts  --      1.8525                 2.5537                 0.4162
 IR Inten    --      0.0173                 1.1582                26.1577

                     19                     20                     21
                      A                      A                      A
 Frequencies --    841.1670               867.3216               879.8453
 Red. masses --      1.2831                 4.7871                 1.4249
 Frc consts  --      0.5349                 2.1217                 0.6499
 IR Inten    --     17.8200                35.5150                11.0251

                     22                     23                     24
                      A                      A                      A
 Frequencies --    942.2637              1009.1039              1038.4687
 Red. masses --      9.1024                 1.4537                 3.6365
 Frc consts  --      4.7616                 0.8722                 2.3105
 IR Inten    --     16.9717                 2.9252                18.6956

                     25                     26                     27
                      A                      A                      A
 Frequencies --   1077.8982              1086.4267              1153.2858
 Red. masses --      1.4356                 4.5956                 2.0831
 Frc consts  --      0.9828                 3.1959                 1.6324
 IR Inten    --      1.8967                 1.1886                 8.9469

                     28                     29                     30
                      A                      A                      A
 Frequencies --   1204.6070              1237.5737              1256.9351
 Red. masses --      2.0405                 1.9389                 1.4261
 Frc consts  --      1.7445                 1.7497                 1.3274
 IR Inten    --      9.8690                30.4000                 3.3072

                     31                     32                     33
                      A                      A                      A
 Frequencies --   1301.8543              1343.1313              1404.2273
 Red. masses --      2.6413                 2.0869                 4.1444
 Frc consts  --      2.6375                 2.2181                 4.8149
 IR Inten    --      6.0439                 4.4082                21.5319

                     34                     35                     36
                      A                      A                      A
 Frequencies --   1436.9407              1450.4412              1470.6401
 Red. masses --      2.9166                 1.4036                 7.3375
 Frc consts  --      3.5481                 1.7398                 9.3500
 IR Inten    --     22.1520                25.0953                 0.5129

                     37                     38                     39
                      A                      A                      A
 Frequencies --   1510.2908              1514.1244              1535.1969
 Red. masses --      1.0422                 2.6782                 1.4778
 Frc consts  --      1.4007                 3.6175                 2.0520
 IR Inten    --      7.4916                21.3259                17.1963

                     40                     41                     42
                      A                      A                      A
 Frequencies --   1587.8446              1640.3208              3035.5190
 Red. masses --      6.8154                 4.6097                 1.0398
 Frc consts  --     10.1241                 7.3077                 5.6448
 IR Inten    --     27.7436                30.0422                53.4569

                     43                     44                     45
                      A                      A                      A
 Frequencies --   3081.4539              3139.0802              3253.6310
 Red. masses --      1.1017                 1.0972                 1.0934
 Frc consts  --      6.1636                 6.3699                 6.8198
 IR Inten    --     21.7802                 9.4685                 0.0778

                     46                     47                     48
                      A                      A                      A
 Frequencies --   3259.0902              3261.2891              3637.2071
 Red. masses --      1.0967                 1.0946                 1.0804
 Frc consts  --      6.8636                 6.8596                 8.4215
 IR Inten    --     14.9805                 0.9766                32.3857

 - Thermochemistry -
 -------------------
 Temperature   298.150 Kelvin.  Pressure   1.00000 Atm.
 Atom     1 has atomic number  6 and mass  12.00000

 Molecular mass:   165.03607 amu.
 Principal axes and moments of inertia in atomic units:
                           1         2         3
     Eigenvalues --   634.002553219.255693841.95163
           X            0.99991   0.01331  -0.00003
           Y           -0.01331   0.99991  -0.00014
           Z            0.00003   0.00014   1.00000
 This molecule is an asymmetric top.
 Rotational symmetry number  1.
 Warning -- assumption of classical behavior for rotation
           may cause significant error
 Rotational temperatures (Kelvin)      0.13661     0.02690     0.02254
 Rotational constants (GHZ):           2.84658     0.56061     0.46975
 Zero-point vibrational energy     354536.4 (Joules/Mol)
                                   84.73624 (Kcal/Mol)
 Warning -- explicit consideration of  12 degrees of freedom as
           vibrations may cause significant error
 Vibrational temperatures:     42.52   145.06   162.24   185.54   320.69
          (Kelvin)            414.40   468.47   497.79   635.14   704.81
                              754.80   876.60   914.60   927.20   984.76
                             1042.52  1067.72  1101.60  1210.25  1247.88
                             1265.90  1355.71  1451.88  1494.12  1550.86
                             1563.13  1659.32  1733.16  1780.59  1808.45
                             1873.08  1932.47  2020.37  2067.44  2086.86
                             2115.92  2172.97  2178.49  2208.81  2284.55
                             2360.06  4367.43  4433.52  4516.44  4681.25
                             4689.10  4692.27  5233.13

 Zero-point correction=                           0.135036 (Hartree/Particle)
 Thermal correction to Energy=                    0.144621
 Thermal correction to Enthalpy=                  0.145565
 Thermal correction to Gibbs Free Energy=         0.098691
 Sum of electronic and zero-point Energies=           -833.297239
 Sum of electronic and thermal Energies=              -833.287654
 Sum of electronic and thermal Enthalpies=            -833.286710
 Sum of electronic and thermal Free Energies=         -833.333584

                     E (Thermal)             CV                S
                      KCal/Mol        Cal/Mol-Kelvin    Cal/Mol-Kelvin
 Total                   90.751             35.472             98.655
 Electronic               0.000              0.000              0.000
 Translational            0.889              2.981             41.211
 Rotational               0.889              2.981             30.440
 Vibrational             88.974             29.511             27.004
 Vibration     1          0.593              1.984              5.859
 Vibration     2          0.604              1.948              3.438
 Vibration     3          0.607              1.939              3.221
 Vibration     4          0.611              1.924              2.961
 Vibration     5          0.649              1.806              1.936
 Vibration     6          0.685              1.696              1.486
 Vibration     7          0.710              1.624              1.282
 Vibration     8          0.724              1.583              1.184
 Vibration     9          0.801              1.380              0.822
 Vibration    10          0.846              1.273              0.684
 Vibration    11          0.880              1.196              0.599
 Vibration    12          0.968              1.012              0.434

                           ! Non-Optimized Parameters !
 Normal termination of Gaussian 16 at Tue Dec  8 19:37:08 2020.

 ----------------------------------------------------------------------
 # B3LYP/6-311++G(d,p) empiricaldispersion=gd3bj scf=xqc pop=npa geom=c
 heck
 ----------------------------------------------------------------------

 --------------------------------------
 CID_80479219_JID_1275_Energie_neutraal
 --------------------------------------
 Structure from the checkpoint file:  "JID_1275.chk"
 Charge =  0 Multiplicity = 1

 SCF Done:  E(RB3LYP) =  -833.574932445     A.U. after   15 cycles
 Normal termination of Gaussian 16 at Tue Dec  8 19:38:18 2020.

 ----------------------------------------------------------------------
 # B3LYP/6-311++G(d,p) empiricaldispersion=gd3bj scf=xqc pop=npa geom=c
 heck
 ----------------------------------------------------------------------

 ------------------------------------
 CID_80479219_JID_1275_Energie_kation
 ------------------------------------
 Structure from the checkpoint file:  "JID_1275.chk"
 Charge =  1 Multiplicity = 2

 SCF Done:  E(UB3LYP) =  -833.292421896     A.U. after   19 cycles
 Normal termination of Gaussian 16 at Tue Dec  8 19:40:42 2020.
 Gaussian 16:  ES64L-G16RevA.03 25-Dec-2016

 ----------------------------------------------------------------------
 # B3LYP/6-311++G(d,p) empiricaldispersion=gd3bj scf=xqc pop=npa geom=c
 heck
 ----------------------------------------------------------------------

 -----------------------------------
 CID_80479219_JID_1275_Energie_anion
 -----------------------------------
 Structure from the checkpoint file:  "JID_1275.chk"
 Charge = -1 Multiplicity = 2

                         Standard orientation:
 ---------------------------------------------------------------------
 Center     Atomic      Atomic             Coordinates (Angstroms)
 Number     Number       Type             X           Y           Z
 ---------------------------------------------------------------------
      1          6           0       -3.900954   -0.985164    0.003465
      2          6           0       -2.678226   -0.132396    0.000855
      3          6           0       -2.493944    1.233641   -0.003861
      4          7           0       -1.160875    1.559035   -0.004928
      5          6           0       -0.511721    0.404188   -0.000847
      6          7           0       -1.396398   -0.650118    0.002564
      7          6           0        0.927193    0.261648    0.000202
      8          6           0        1.860864    1.271380    0.004324
      9          7           0        3.176712    0.880638    0.004393
     10          6           0        3.281158   -0.413691    0.000665
     11         16           0        1.753364   -1.279971   -0.004078
     12          1           0       -3.954304   -1.633168   -0.881174
     13          1           0       -3.952396   -1.630549    0.890139
     14          1           0       -4.791613   -0.351181    0.003533
     15          1           0       -3.259925    1.997552   -0.006874
     16          1           0       -1.158739   -1.632069    0.009056
     17          1           0        1.603432    2.322571    0.007404
     18          1           0        4.217437   -0.958141    0.000143
 ---------------------------------------------------------------------

 SCF Done:  E(UB3LYP) =  -833.574216192     A.U. after   28 cycles

 The electronic state is 2-A.
 Alpha  occ. eigenvalues --  -88.71099 -14.21524 -14.14820 -14.13515 -10.07833
 Alpha  occ. eigenvalues --  -10.06976 -10.06282 -10.04796 -10.04403 -10.03017
 Alpha  occ. eigenvalues --  -10.02446  -7.79798  -5.76075  -5.75753  -5.75414
 Alpha  occ. eigenvalues --   -0.86961  -0.79301  -0.72713  -0.66074  -0.63053
 Alpha  occ. eigenvalues --   -0.58811  -0.54911  -0.47789  -0.45915  -0.43520
 Alpha  occ. eigenvalues --   -0.39790  -0.37095  -0.33154  -0.32615  -0.30257
 Alpha  occ. eigenvalues --   -0.28879  -0.28199  -0.27805  -0.26520  -0.24408
 Alpha  occ. eigenvalues --   -0.24370  -0.20136  -0.14717  -0.13917  -0.12868
 Alpha  occ. eigenvalues --   -0.11489  -0.11391  -0.06087   0.06052
 Alpha virt. eigenvalues --    0.07261   0.10025   0.10428   0.10603   0.11091
 Alpha virt. eigenvalues --    0.13045   0.13617   0.14781   0.15534   0.15537
 Alpha virt. eigenvalues --    0.16128   0.16352   0.16474   0.17876   0.18358

  Beta  occ. eigenvalues --  -88.71038 -14.21378 -14.14886 -14.13318 -10.07743
  Beta  occ. eigenvalues --  -10.06987 -10.06149 -10.04468 -10.04284 -10.02744
  Beta  occ. eigenvalues --  -10.02270  -7.79743  -5.76054  -5.75731  -5.75200
  Beta  occ. eigenvalues --   -0.86715  -0.78974  -0.72384  -0.65763  -0.62804
  Beta  occ. eigenvalues --   -0.58304  -0.54599  -0.47384  -0.45812  -0.43060
  Beta  occ. eigenvalues --   -0.39358  -0.36832  -0.32982  -0.32297  -0.30151
  Beta  occ. eigenvalues --   -0.28733  -0.27749  -0.27532  -0.26262  -0.24101
  Beta  occ. eigenvalues --   -0.23240  -0.19817  -0.13716  -0.12752  -0.12610
  Beta  occ. eigenvalues --   -0.11443  -0.10132  -0.04506
  Beta virt. eigenvalues --    0.07213   0.09951   0.10384   0.10424   0.11000
  Beta virt. eigenvalues --    0.12224   0.12980   0.13566   0.14733   0.15427
  Beta virt. eigenvalues --    0.15663   0.16298   0.16396   0.17342   0.17831

 Mulliken charges and spin densities:
               1          2
     1  C   -0.565420  -0.041817
     2  C    0.317420   0.066993
     3  C   -0.129216  -0.038642
     4  N   -0.164850   0.099659
     5  C   -0.163484   0.049852
     6  N   -0.144676   0.078472
     7  C    0.152780   0.095203
     8  C   -0.447013   0.183953
     9  N   -0.078679  -0.041197
    10  C   -0.309147   0.343528
    11  S   -0.426289   0.139350
    12  H    0.084320   0.053221
    13  H    0.086130   0.050958
    14  H    0.139512   0.000095
    15  H    0.104428   0.003138
    16  H    0.273347  -0.007157
    17  H    0.116875  -0.011335
    18  H    0.153961  -0.024274
 Sum of Mulliken charges =  -1.00000   1.00000

 Dipole moment (field-independent basis, Debye):
    X=             -4.8026    Y=             -3.7105    Z=              0.0123  Tot=              6.0690
 Quadrupole moment (field-independent basis, Debye-Ang):
   XX=           -106.6419   YY=            -86.4432   ZZ=            -82.5868
   XY=             -3.5180   XZ=             -0.0625   YZ=             -0.0122

 Summary of Natural Population Analysis:

                                       Natural Population
                Natural  -----------------------------------------------
    Atom  No    Charge         Core      Valence    Rydberg      Total
 -----------------------------------------------------------------------
      C    1   -0.29760      0.99964     2.29398    0.00397     3.29760
      C    2    0.05948      0.99956     1.93001    0.01095     2.94052
      C    3   -0.05542      0.99952     2.04187    0.01402     3.05542
      N    4   -0.23437      0.99970     2.72476    0.00991     3.73437
      C    5    0.18378      0.99957     1.79496    0.02169     2.81622
      N    6   -0.25931      0.99963     2.75117    0.00851     3.75931
      C    7   -0.09514      0.99945     2.08558    0.01010     3.09514
      C    8    0.02168      0.99950     1.96430    0.01452     2.97832
      N    9   -0.26548      0.99968     2.75237    0.01342     3.76548
      C   10    0.03265      0.99967     1.94965    0.01803     2.96735
      S   11    0.15428      4.99948     2.82415    0.02210     7.84572
      H   12    0.09666      0.00000     0.40171    0.00163     0.40334
      H   13    0.09661      0.00000     0.40176    0.00163     0.40339
      H   14    0.10213      0.00000     0.39708    0.00079     0.39787
      H   15    0.08653      0.00000     0.41239    0.00108     0.41347
      H   16    0.19748      0.00000     0.30115    0.00136     0.30252
      H   17    0.09629      0.00000     0.40256    0.00114     0.40371
      H   18    0.07973      0.00000     0.41876    0.00151     0.42027
 =======================================================================
   * Total *    0.00000     14.99542    27.84822    0.15636    43.00000

 Normal termination of Gaussian 16 at Tue Dec  8 19:44:12 2020.
