 Gaussian 16, Revision A.03,

 -----------------------------------------------------------
 # opt freq B3LYP/6-31G(d) empiricaldispersion=gd3bj scf=xqc
 -----------------------------------------------------------

 ----------------------------
 CID_54153705_JID_70_neutraal
 ----------------------------
 Symbolic Z-matrix:
 Charge =  0 Multiplicity = 1

 SCF Done:  E(RB3LYP) =  -471.135709468     A.U. after   14 cycles
 SCF Done:  E(RB3LYP) =  -471.139571858     A.U. after   12 cycles
 SCF Done:  E(RB3LYP) =  -471.139860219     A.U. after   11 cycles
 SCF Done:  E(RB3LYP) =  -471.139895482     A.U. after   10 cycles
 SCF Done:  E(RB3LYP) =  -471.139899643     A.U. after    9 cycles
 SCF Done:  E(RB3LYP) =  -471.139900121     A.U. after    7 cycles
 Optimization completed.
    -- Stationary point found.
 Normal termination of Gaussian 16 at Tue Dec  8 10:13:35 2020.

 --------------------------------------------------------------------
 #N Geom=AllCheck Guess=TCheck SCRF=Check GenChk RB3LYP/6-31G(d) Freq
 --------------------------------------------------------------------

 Structure from the checkpoint file:  "JID_70.chk"
 ----------------------------
 CID_54153705_JID_70_neutraal
 ----------------------------
 Charge =  0 Multiplicity = 1

 SCF Done:  E(RB3LYP) =  -471.139900121     A.U. after    1 cycles

  Exact polarizability: 126.737   3.353  85.503   0.000   0.000  30.931
 Approx polarizability: 229.577   1.899 153.747   0.000   0.000  48.398

                      1                      2                      3
                      A                      A                      A
 Frequencies --    147.1148               229.4150               301.0821
 Red. masses --      7.6275                 4.3242                 5.3087
 Frc consts  --      0.0973                 0.1341                 0.2835
 IR Inten    --      0.0000                 1.4408                 4.4524

                      4                      5                      6
                      A                      A                      A
 Frequencies --    351.5237               434.1990               440.3231
 Red. masses --      5.7088                 1.0939                 3.5802
 Frc consts  --      0.4156                 0.1215                 0.4090
 IR Inten    --      4.9540               127.0163                 2.3613

                      7                      8                      9
                      A                      A                      A
 Frequencies --    517.8344               529.0678               601.8709
 Red. masses --      3.9846                 9.5749                 2.5142
 Frc consts  --      0.6295                 1.5791                 0.5366
 IR Inten    --     15.9882                 7.0215                 2.2153

                     10                     11                     12
                      A                      A                      A
 Frequencies --    632.6609               634.6483               710.5588
 Red. masses --      1.3779                 7.7642                11.0136
 Frc consts  --      0.3250                 1.8425                 3.2763
 IR Inten    --     37.2738                 6.2948                12.9558

                     13                     14                     15
                      A                      A                      A
 Frequencies --    721.7684               762.1166               830.7772
 Red. masses --      7.2841                 7.6623                 1.4317
 Frc consts  --      2.2358                 2.6221                 0.5822
 IR Inten    --      4.7851                 4.6290                27.8951

                     16                     17                     18
                      A                      A                      A
 Frequencies --    851.8599               903.3026               927.8927
 Red. masses --      4.0661                 1.3442                 6.9680
 Frc consts  --      1.7385                 0.6462                 3.5347
 IR Inten    --      3.2461                 0.5047                20.4670

                     19                     20                     21
                      A                      A                      A
 Frequencies --    965.4620              1038.0433              1056.8792
 Red. masses --      1.3236                 4.5899                 2.2621
 Frc consts  --      0.7269                 2.9140                 1.4887
 IR Inten    --      0.0022                 6.2664                 0.2228

                     22                     23                     24
                      A                      A                      A
 Frequencies --   1174.2007              1207.2889              1252.1140
 Red. masses --      1.5469                 1.9087                 1.8488
 Frc consts  --      1.2566                 1.6391                 1.7077
 IR Inten    --     95.8619                12.3414                95.4511

                     25                     26                     27
                      A                      A                      A
 Frequencies --   1270.6830              1298.3796              1395.0458
 Red. masses --      3.1323                 2.4817                 1.7566
 Frc consts  --      2.9798                 2.4649                 2.0141
 IR Inten    --      4.6182                25.1883                14.1124

                     28                     29                     30
                      A                      A                      A
 Frequencies --   1411.5341              1432.0482              1478.6154
 Red. masses --      2.4937                 4.4252                 3.6671
 Frc consts  --      2.9274                 5.3468                 4.7238
 IR Inten    --     54.7165               239.1965               131.1627

                     31                     32                     33
                      A                      A                      A
 Frequencies --   1547.8092              1576.6005              1636.0559
 Red. masses --      5.1082                 3.9514                 6.4885
 Frc consts  --      7.2103                 5.7868                10.2328
 IR Inten    --     38.8183                 0.2614               162.2377

                     34                     35                     36
                      A                      A                      A
 Frequencies --   1689.6115              3207.5513              3211.1162
 Red. masses --      6.9463                 1.0887                 1.0932
 Frc consts  --     11.6836                 6.5994                 6.6417
 IR Inten    --    125.9657                17.7798                 2.9886

                     37                     38                     39
                      A                      A                      A
 Frequencies --   3243.2552              3316.9936              3722.9946
 Red. masses --      1.0949                 1.0980                 1.0647
 Frc consts  --      6.7858                 7.1178                 8.6948
 IR Inten    --      3.9223                 0.9498                85.2060

 - Thermochemistry -
 -------------------
 Temperature   298.150 Kelvin.  Pressure   1.00000 Atm.
 Atom     1 has atomic number  6 and mass  12.00000

 Molecular mass:   135.04326 amu.
 Principal axes and moments of inertia in atomic units:
                           1         2         3
     Eigenvalues --   440.699331729.506212170.20554
           X            0.99995   0.01032  -0.00000
           Y           -0.01032   0.99995   0.00000
           Z            0.00000  -0.00000   1.00000
 This molecule is an asymmetric top.
 Rotational symmetry number  1.
 Warning -- assumption of classical behavior for rotation
           may cause significant error
 Rotational temperatures (Kelvin)      0.19654     0.05008     0.03991
 Rotational constants (GHZ):           4.09518     1.04350     0.83160
 Zero-point vibrational energy     291053.2 (Joules/Mol)
                                   69.56339 (Kcal/Mol)
 Warning -- explicit consideration of   9 degrees of freedom as
           vibrations may cause significant error
 Vibrational temperatures:    211.67   330.08   433.19   505.76   624.72
          (Kelvin)            633.53   745.05   761.21   865.96   910.26
                              913.12  1022.34  1038.46  1096.52  1195.30
                             1225.64  1299.65  1335.03  1389.08  1493.51
                             1520.61  1689.41  1737.02  1801.51  1828.23
                             1868.08  2007.16  2030.88  2060.40  2127.40
                             2226.95  2268.38  2353.92  2430.97  4614.95
                             4620.08  4666.32  4772.41  5356.56

 Zero-point correction=                           0.110856 (Hartree/Particle)
 Thermal correction to Energy=                    0.117794
 Thermal correction to Enthalpy=                  0.118738
 Thermal correction to Gibbs Free Energy=         0.079422
 Sum of electronic and zero-point Energies=           -471.029044
 Sum of electronic and thermal Energies=              -471.022106
 Sum of electronic and thermal Enthalpies=            -471.021162
 Sum of electronic and thermal Free Energies=         -471.060478

                     E (Thermal)             CV                S
                      KCal/Mol        Cal/Mol-Kelvin    Cal/Mol-Kelvin
 Total                   73.917             28.044             82.747
 Electronic               0.000              0.000              0.000
 Translational            0.889              2.981             40.614
 Rotational               0.889              2.981             28.894
 Vibrational             72.139             22.082             13.240
 Vibration     1          0.617              1.906              2.709
 Vibration     2          0.652              1.796              1.884
 Vibration     3          0.693              1.672              1.411
 Vibration     4          0.728              1.572              1.159
 Vibration     5          0.795              1.396              0.845
 Vibration     6          0.800              1.382              0.826
 Vibration     7          0.873              1.210              0.615
 Vibration     8          0.884              1.186              0.589
 Vibration     9          0.960              1.028              0.446

 Optimization completed.
    -- Stationary point found.
 Normal termination of Gaussian 16 at Tue Dec  8 10:15:58 2020.

 ----------------------------------------------------------------------
 # B3LYP/6-311++G(d,p) empiricaldispersion=gd3bj scf=xqc pop=npa geom=c
 heck
 ----------------------------------------------------------------------

 ------------------------------------
 CID_54153705_JID_70_Energie_neutraal
 ------------------------------------
 Structure from the checkpoint file:  "JID_70.chk"
 Charge =  0 Multiplicity = 1

 SCF Done:  E(RB3LYP) =  -471.273039491     A.U. after   14 cycles
 Normal termination of Gaussian 16 at Tue Dec  8 10:16:40 2020.

 ----------------------------------------------------------------------
 # B3LYP/6-311++G(d,p) empiricaldispersion=gd3bj scf=xqc pop=npa geom=c
 heck
 ----------------------------------------------------------------------

 ----------------------------------
 CID_54153705_JID_70_Energie_kation
 ----------------------------------
 Structure from the checkpoint file:  "JID_70.chk"
 Charge =  1 Multiplicity = 2

 SCF Done:  E(UB3LYP) =  -470.970922696     A.U. after   21 cycles
 Normal termination of Gaussian 16 at Tue Dec  8 10:17:57 2020.
 Gaussian 16:  ES64L-G16RevA.03 25-Dec-2016

 ----------------------------------------------------------------------
 # B3LYP/6-311++G(d,p) empiricaldispersion=gd3bj scf=xqc pop=npa geom=c
 heck
 ----------------------------------------------------------------------

 ---------------------------------
 CID_54153705_JID_70_Energie_anion
 ---------------------------------
 Structure from the checkpoint file:  "JID_70.chk"
 Charge = -1 Multiplicity = 2

                         Standard orientation:
 ---------------------------------------------------------------------
 Center     Atomic      Atomic             Coordinates (Angstroms)
 Number     Number       Type             X           Y           Z
 ---------------------------------------------------------------------
      1          6           0       -1.331091   -1.410344    0.000003
      2          6           0       -2.494210   -0.675491    0.000000
      3          7           0       -2.526397    0.690162   -0.000003
      4          6           0       -1.390386    1.328585   -0.000007
      5          7           0       -0.179408    0.693711   -0.000002
      6          6           0       -0.106987   -0.716330    0.000004
      7          7           0        1.159609   -1.122563    0.000001
      8          6           0        1.897336    0.020780   -0.000001
      9          6           0        1.122972    1.166249    0.000013
     10          8           0        3.242330   -0.015386   -0.000006
     11          1           0       -1.328271   -2.493701    0.000004
     12          1           0       -3.462908   -1.165749   -0.000001
     13          1           0       -1.366678    2.414562   -0.000001
     14          1           0        1.368798    2.214696    0.000018
     15          1           0        3.487986   -0.956573   -0.000011
 ---------------------------------------------------------------------

 SCF Done:  E(UB3LYP) =  -471.264492642     A.U. after   33 cycles
 SCF Done:  E(UB3LYP) =  -471.264492642     a.u. after    1 cycles

 The electronic state is 2-A.
 Alpha  occ. eigenvalues --  -19.02594 -14.20575 -14.14171 -14.13688 -10.10202
 Alpha  occ. eigenvalues --  -10.07802 -10.04986 -10.04078 -10.02132  -9.99083
 Alpha  occ. eigenvalues --   -0.94483  -0.86927  -0.77582  -0.71704  -0.62131
 Alpha  occ. eigenvalues --   -0.58428  -0.49911  -0.47669  -0.46010  -0.40285
 Alpha  occ. eigenvalues --   -0.36580  -0.34184  -0.31551  -0.30581  -0.30128
 Alpha  occ. eigenvalues --   -0.28079  -0.26239  -0.24849  -0.21596  -0.19326
 Alpha  occ. eigenvalues --   -0.16558  -0.14303  -0.10489  -0.09069  -0.05930
 Alpha  occ. eigenvalues --    0.07390
 Alpha virt. eigenvalues --    0.09562   0.10601   0.11065   0.13103   0.13259
 Alpha virt. eigenvalues --    0.14867   0.15758   0.16744   0.17830   0.18877
 Alpha virt. eigenvalues --    0.19233   0.19406   0.20227   0.21399   0.21486

  Beta  occ. eigenvalues --  -19.02578 -14.20166 -14.14124 -14.13780 -10.10161
  Beta  occ. eigenvalues --  -10.07878 -10.04423 -10.04104 -10.01854  -9.98719
  Beta  occ. eigenvalues --   -0.94436  -0.86431  -0.77258  -0.71321  -0.61733
  Beta  occ. eigenvalues --   -0.57907  -0.49350  -0.47429  -0.45662  -0.40070
  Beta  occ. eigenvalues --   -0.36311  -0.33913  -0.30744  -0.30353  -0.29823
  Beta  occ. eigenvalues --   -0.27831  -0.25354  -0.24774  -0.21388  -0.18384
  Beta  occ. eigenvalues --   -0.15020  -0.14202  -0.10455  -0.07965  -0.04562
  Beta virt. eigenvalues --    0.09534   0.10567   0.10994   0.13050   0.13214
  Beta virt. eigenvalues --    0.13797   0.15310   0.16580   0.16672   0.17727
  Beta virt. eigenvalues --    0.18955   0.19156   0.19419   0.20420   0.21403

 Mulliken charges and spin densities:
               1          2
     1  C    0.352859   0.330152
     2  C   -0.511308   0.161455
     3  N   -0.155370  -0.072236
     4  C   -0.272460   0.575236
     5  N    0.120762   0.020605
     6  C   -0.508324  -0.065124
     7  N   -0.266920   0.021447
     8  C   -0.087431   0.012503
     9  C   -0.105222   0.096460
    10  O   -0.306829  -0.000269
    11  H    0.129075  -0.024351
    12  H    0.100473  -0.015862
    13  H    0.116966  -0.039247
    14  H    0.132561  -0.000589
    15  H    0.261167  -0.000179
 Sum of Mulliken charges =  -1.00000   1.00000

 Dipole moment (field-independent basis, Debye):
    X=              3.4178    Y=             -0.3641    Z=              0.0000  Tot=              3.4371
 Quadrupole moment (field-independent basis, Debye-Ang):
   XX=            -85.9593   YY=            -67.9160   ZZ=            -67.8612
   XY=              1.4710   XZ=             -0.0000   YZ=              0.0001

 Summary of Natural Population Analysis:

                                       Natural Population
                Natural  -----------------------------------------------
    Atom  No    Charge         Core      Valence    Rydberg      Total
 -----------------------------------------------------------------------
      C    1   -0.09638      0.99952     2.08522    0.01164     3.09638
      C    2    0.05740      0.99959     1.92930    0.01372     2.94260
      N    3   -0.27716      0.99971     2.76722    0.01022     3.77716
      C    4    0.23541      0.99965     1.74412    0.02081     2.76459
      N    5   -0.14703      0.99961     2.63736    0.01005     3.64703
      C    6    0.18410      0.99960     1.79996    0.01634     2.81590
      N    7   -0.30939      0.99966     2.79778    0.01196     3.80939
      C    8    0.22690      0.99947     1.75392    0.01972     2.77310
      C    9   -0.10143      0.99953     2.08892    0.01298     3.10143
      O   10   -0.34697      0.99987     3.34084    0.00626     4.34697
      H   11    0.09529      0.00000     0.40389    0.00082     0.40471
      H   12    0.07463      0.00000     0.42412    0.00125     0.42537
      H   13    0.07146      0.00000     0.42760    0.00094     0.42854
      H   14    0.09901      0.00000     0.40019    0.00080     0.40099
      H   15    0.23414      0.00000     0.26345    0.00241     0.26586
 =======================================================================
   * Total *   -0.00000      9.99621    24.86389    0.13990    35.00000

 Normal termination of Gaussian 16 at Tue Dec  8 10:19:57 2020.
