 Gaussian 16, Revision A.03,

 -----------------------------------------------------------
 # opt freq B3LYP/6-31G(d) empiricaldispersion=gd3bj scf=xqc
 -----------------------------------------------------------

 --------------------------------
 CID_104381793_JID_10713_neutraal
 --------------------------------
 Symbolic Z-matrix:
 Charge =  0 Multiplicity = 1

 SCF Done:  E(RB3LYP) =  -927.292926015     A.U. after   15 cycles
 SCF Done:  E(RB3LYP) =  -927.283673264     A.U. after   13 cycles
 SCF Done:  E(RB3LYP) =  -927.305145489     A.U. after   12 cycles
 SCF Done:  E(RB3LYP) =  -927.307746159     A.U. after   12 cycles
 SCF Done:  E(RB3LYP) =  -927.308754769     A.U. after   12 cycles
 SCF Done:  E(RB3LYP) =  -927.309321073     A.U. after   13 cycles
 SCF Done:  E(RB3LYP) =  -927.309595881     A.U. after   12 cycles
 SCF Done:  E(RB3LYP) =  -927.309693525     A.U. after   11 cycles
 SCF Done:  E(RB3LYP) =  -927.309734991     A.U. after   10 cycles
 SCF Done:  E(RB3LYP) =  -927.309752305     A.U. after   10 cycles
 SCF Done:  E(RB3LYP) =  -927.310077275     A.U. after    7 cycles
 SCF Done:  E(RB3LYP) =  -927.310077740     A.U. after    7 cycles
 SCF Done:  E(RB3LYP) =  -927.310078148     A.U. after    7 cycles
 SCF Done:  E(RB3LYP) =  -927.310078392     A.U. after    7 cycles
 SCF Done:  E(RB3LYP) =  -927.310078454     A.U. after    7 cycles
 Optimization completed.
    -- Stationary point found.
 Normal termination of Gaussian 16 at Sat Dec 12 16:31:44 2020.

 --------------------------------------------------------------------
 #N Geom=AllCheck Guess=TCheck SCRF=Check GenChk RB3LYP/6-31G(d) Freq
 --------------------------------------------------------------------

 Structure from the checkpoint file:  "JID_10713.chk"
 --------------------------------
 CID_104381793_JID_10713_neutraal
 --------------------------------
 Charge =  0 Multiplicity = 1

 SCF Done:  E(RB3LYP) =  -927.310078454     A.U. after    1 cycles

  Exact polarizability: 198.058   0.182 185.474  27.234  -8.545 136.998
 Approx polarizability: 290.299   9.394 303.555  59.283 -19.115 205.431

                      1                      2                      3
                      A                      A                      A
 Frequencies --     23.6954                38.4955                50.4347
 Red. masses --      5.1716                 4.9691                 5.3353
 Frc consts  --      0.0017                 0.0043                 0.0080
 IR Inten    --      0.7149                 0.3391                 0.6773

                      4                      5                      6
                      A                      A                      A
 Frequencies --     58.0828                74.5547                87.4815
 Red. masses --      4.2201                 2.9233                 1.9647
 Frc consts  --      0.0084                 0.0096                 0.0089
 IR Inten    --      0.3584                 1.2605                 5.8511

                      7                      8                      9
                      A                      A                      A
 Frequencies --     91.9374                99.0192               137.4908
 Red. masses --      2.8103                 2.1223                 3.2492
 Frc consts  --      0.0140                 0.0123                 0.0362
 IR Inten    --      0.7571                 2.4560                 2.5639

                     10                     11                     12
                      A                      A                      A
 Frequencies --    155.0725               180.5614               202.6424
 Red. masses --      3.1569                 5.3674                 3.5776
 Frc consts  --      0.0447                 0.1031                 0.0866
 IR Inten    --      2.8975                 2.8024                 0.7207

                     13                     14                     15
                      A                      A                      A
 Frequencies --    217.5422               229.6611               239.8335
 Red. masses --      1.0586                 1.9047                 7.7944
 Frc consts  --      0.0295                 0.0592                 0.2642
 IR Inten    --      0.1816                 0.0117                 2.5937

                     16                     17                     18
                      A                      A                      A
 Frequencies --    256.9187               265.0207               292.2484
 Red. masses --      4.0664                 2.0055                 2.3484
 Frc consts  --      0.1581                 0.0830                 0.1182
 IR Inten    --      1.9887                 2.3405                 0.5432

                     19                     20                     21
                      A                      A                      A
 Frequencies --    331.9209               333.3459               367.7439
 Red. masses --      2.9711                 6.1440                 3.1592
 Frc consts  --      0.1929                 0.4022                 0.2517
 IR Inten    --      1.7341                 0.2631                 3.8901

                     22                     23                     24
                      A                      A                      A
 Frequencies --    407.9217               432.9072               439.1851
 Red. masses --      2.9552                 1.8954                 2.0840
 Frc consts  --      0.2897                 0.2093                 0.2368
 IR Inten    --     29.7689                 2.1281                29.9077

                     25                     26                     27
                      A                      A                      A
 Frequencies --    442.7050               452.6910               481.2179
 Red. masses --      1.6715                 1.2281                 2.1530
 Frc consts  --      0.1930                 0.1483                 0.2937
 IR Inten    --     32.8677               155.1920                 9.5809

                     28                     29                     30
                      A                      A                      A
 Frequencies --    490.5566               521.4186               553.6185
 Red. masses --      1.3829                 5.2768                 3.1819
 Frc consts  --      0.1961                 0.8453                 0.5746
 IR Inten    --     36.4936                 6.9471                26.2998

                     31                     32                     33
                      A                      A                      A
 Frequencies --    595.2961               622.8360               628.0415
 Red. masses --      3.9141                 4.3998                 1.5084
 Frc consts  --      0.8172                 1.0056                 0.3505
 IR Inten    --     10.4676                20.8636                79.7326

                     34                     35                     36
                      A                      A                      A
 Frequencies --    665.4178               685.3218               729.8795
 Red. masses --      3.6370                 7.5016                 5.1648
 Frc consts  --      0.9488                 2.0758                 1.6211
 IR Inten    --     31.6125                 5.2137                18.0422

                     37                     38                     39
                      A                      A                      A
 Frequencies --    736.8988               760.6932               798.6173
 Red. masses --      8.7946                 5.4899                 5.9019
 Frc consts  --      2.8137                 1.8717                 2.2178
 IR Inten    --      2.6943                 2.0189                41.5885

                     40                     41                     42
                      A                      A                      A
 Frequencies --    826.1053               841.5284               849.4923
 Red. masses --      2.9244                 2.6777                 5.6891
 Frc consts  --      1.1759                 1.1172                 2.4189
 IR Inten    --      9.4912                 9.3950                 7.2693

                     43                     44                     45
                      A                      A                      A
 Frequencies --    851.5105               915.9320               942.6188
 Red. masses --      1.4636                 1.6687                 1.2156
 Frc consts  --      0.6253                 0.8248                 0.6364
 IR Inten    --      9.6290                 4.6251                 2.8832

                     46                     47                     48
                      A                      A                      A
 Frequencies --    956.9765               962.1583               979.9483
 Red. masses --      3.8377                 1.9851                 1.5123
 Frc consts  --      2.0707                 1.0827                 0.8557
 IR Inten    --     68.7101                 2.1254                 0.6140

                     49                     50                     51
                      A                      A                      A
 Frequencies --    986.4692              1040.2276              1063.5721
 Red. masses --      2.4047                 2.5579                 4.8671
 Frc consts  --      1.3787                 1.6308                 3.2438
 IR Inten    --      3.2314                 6.0009                 1.8783

                     52                     53                     54
                      A                      A                      A
 Frequencies --   1088.7500              1106.0618              1142.0996
 Red. masses --      4.1940                 2.3883                 2.3186
 Frc consts  --      2.9291                 1.7214                 1.7819
 IR Inten    --      7.1951                 9.5883                19.7433

                     55                     56                     57
                      A                      A                      A
 Frequencies --   1162.2148              1165.2691              1181.8385
 Red. masses --      2.1217                 1.3952                 2.2064
 Frc consts  --      1.6885                 1.1162                 1.8157
 IR Inten    --      0.7009                22.1401                19.9839

                     58                     59                     60
                      A                      A                      A
 Frequencies --   1192.9825              1209.9919              1226.1889
 Red. masses --      2.2277                 1.8272                 3.0710
 Frc consts  --      1.8680                 1.5762                 2.7205
 IR Inten    --      5.9663                 7.4200                46.6694

                     61                     62                     63
                      A                      A                      A
 Frequencies --   1246.5864              1256.5043              1302.7048
 Red. masses --      1.6597                 1.3195                 1.4101
 Frc consts  --      1.5196                 1.2274                 1.4099
 IR Inten    --     15.2160                43.7897                22.2757

                     64                     65                     66
                      A                      A                      A
 Frequencies --   1324.8012              1343.2546              1343.8514
 Red. masses --      2.6597                 1.3123                 2.3495
 Frc consts  --      2.7504                 1.3950                 2.4999
 IR Inten    --     49.4979                 5.9122                66.1380

                     67                     68                     69
                      A                      A                      A
 Frequencies --   1359.4850              1372.8991              1392.5230
 Red. masses --      1.4811                 2.5412                 1.7450
 Frc consts  --      1.6128                 2.8220                 1.9937
 IR Inten    --     14.7782                10.5141                57.0197

                     70                     71                     72
                      A                      A                      A
 Frequencies --   1396.3714              1424.8359              1426.5576
 Red. masses --      1.4140                 2.0275                 2.0389
 Frc consts  --      1.6244                 2.4252                 2.4447
 IR Inten    --      9.7850                13.9775                45.8501

                     73                     74                     75
                      A                      A                      A
 Frequencies --   1434.4461              1450.6848              1453.8611
 Red. masses --      1.4326                 1.5488                 1.7052
 Frc consts  --      1.7368                 1.9203                 2.1235
 IR Inten    --      7.4870                21.8443                31.7423

                     76                     77                     78
                      A                      A                      A
 Frequencies --   1476.6401              1489.5416              1506.5187
 Red. masses --      1.5005                 2.2632                 1.1522
 Frc consts  --      1.9277                 2.9586                 1.5408
 IR Inten    --     52.5535                68.5240                34.1774

                     79                     80                     81
                      A                      A                      A
 Frequencies --   1507.6146              1510.8915              1519.0536
 Red. masses --      1.4310                 1.2155                 1.0579
 Frc consts  --      1.9163                 1.6349                 1.4383
 IR Inten    --     44.8600                42.0364                 2.2632

                     82                     83                     84
                      A                      A                      A
 Frequencies --   1525.0206              1534.4157              1536.2968
 Red. masses --      1.0875                 1.0733                 1.0796
 Frc consts  --      1.4901                 1.4888                 1.5013
 IR Inten    --      1.9500                 2.8819                 0.8691

                     85                     86                     87
                      A                      A                      A
 Frequencies --   1541.6873              1545.5038              1550.4326
 Red. masses --      1.1711                 1.0549                 2.5290
 Frc consts  --      1.6400                 1.4846                 3.5819
 IR Inten    --      3.3363                10.2546                50.5748

                     88                     89                     90
                      A                      A                      A
 Frequencies --   1567.9608              1614.9560              1646.1402
 Red. masses --      3.2304                 3.5485                 5.4214
 Frc consts  --      4.6792                 5.4528                 8.6555
 IR Inten    --    335.1616               487.6454               403.9727

                     91                     92                     93
                      A                      A                      A
 Frequencies --   1670.5380              1785.9816              3034.3577
 Red. masses --      5.7459                 7.6823                 1.0683
 Frc consts  --      9.4476                14.4376                 5.7951
 IR Inten    --    418.4138               454.5104                17.5610

                     94                     95                     96
                      A                      A                      A
 Frequencies --   3037.1704              3037.3621              3044.5548
 Red. masses --      1.0419                 1.0453                 1.0448
 Frc consts  --      5.6628                 5.6820                 5.7059
 IR Inten    --     72.3075                29.0716                23.8055

                     97                     98                     99
                      A                      A                      A
 Frequencies --   3063.0789              3094.2806              3102.6773
 Red. masses --      1.0786                 1.0623                 1.0987
 Frc consts  --      5.9627                 5.9929                 6.2316
 IR Inten    --     30.4074                30.4237                16.3179

                    100                    101                    102
                      A                      A                      A
 Frequencies --   3110.7625              3114.3759              3116.5989
 Red. masses --      1.0986                 1.0879                 1.1011
 Frc consts  --      6.2635                 6.2169                 6.3014
 IR Inten    --     40.7037                31.8189                34.9197

                    103                    104                    105
                      A                      A                      A
 Frequencies --   3132.7336              3136.8211              3154.6290
 Red. masses --      1.0983                 1.0969                 1.1052
 Frc consts  --      6.3505                 6.3591                 6.4804
 IR Inten    --      7.5616                15.8408                16.8821

                    106                    107                    108
                      A                      A                      A
 Frequencies --   3156.9332              3245.2380              3595.7177
 Red. masses --      1.1022                 1.0954                 1.0754
 Frc consts  --      6.4719                 6.7972                 8.1921
 IR Inten    --      3.6835                 8.3485                17.4206

                    109                    110                    111
                      A                      A                      A
 Frequencies --   3638.2362              3651.7582              3674.1933
 Red. masses --      1.0770                 1.0770                 1.0811
 Frc consts  --      8.3996                 8.4619                 8.5990
 IR Inten    --     39.9837                50.2162                82.5151

 - Thermochemistry -
 -------------------
 Temperature   298.150 Kelvin.  Pressure   1.00000 Atm.
 Atom     1 has atomic number  6 and mass  12.00000

 Molecular mass:   277.16511 amu.
 Principal axes and moments of inertia in atomic units:
                           1         2         3
     Eigenvalues --  4120.701957340.761358032.94382
           X            0.99920  -0.03808  -0.01195
           Y            0.03838   0.99892   0.02619
           Z            0.01094  -0.02663   0.99959
 This molecule is an asymmetric top.
 Rotational symmetry number  1.
 Warning -- assumption of classical behavior for rotation
           may cause significant error
 Rotational temperatures (Kelvin)      0.02102     0.01180     0.01078
 Rotational constants (GHZ):           0.43797     0.24585     0.22467
 Zero-point vibrational energy     861735.4 (Joules/Mol)
                                  205.95970 (Kcal/Mol)
 Warning -- explicit consideration of  31 degrees of freedom as
           vibrations may cause significant error
 Vibrational temperatures:     34.09    55.39    72.56    83.57   107.27
          (Kelvin)            125.87   132.28   142.47   197.82   223.11
                              259.79   291.56   312.99   330.43   345.07
                              369.65   381.31   420.48   477.56   479.61
                              529.10   586.91   622.86   631.89   636.95
                              651.32   692.37   705.80   750.21   796.53
                              856.50   896.12   903.61   957.39   986.03
                             1050.13  1060.23  1094.47  1149.03  1188.58
                             1210.77  1222.23  1225.13  1317.82  1356.22
                             1376.88  1384.33  1409.93  1419.31  1496.66
                             1530.24  1566.47  1591.38  1643.23  1672.17
                             1676.56  1700.40  1716.44  1740.91  1764.21
                             1793.56  1807.83  1874.30  1906.09  1932.64
                             1933.50  1956.00  1975.30  2003.53  2009.07
                             2050.02  2052.50  2063.85  2087.21  2091.78
                             2124.56  2143.12  2167.54  2169.12  2173.84
                             2185.58  2194.16  2207.68  2210.39  2218.14
                             2223.64  2230.73  2255.95  2323.56  2368.43
                             2403.53  2569.63  4365.76  4369.81  4370.09
                             4380.44  4407.09  4451.98  4464.06  4475.69
                             4480.89  4484.09  4507.30  4513.19  4538.81
                             4542.12  4669.17  5173.44  5234.61  5254.07
                             5286.34

 Zero-point correction=                           0.328218 (Hartree/Particle)
 Thermal correction to Energy=                    0.348245
 Thermal correction to Enthalpy=                  0.349190
 Thermal correction to Gibbs Free Energy=         0.278667
 Sum of electronic and zero-point Energies=           -926.981861
 Sum of electronic and thermal Energies=              -926.961833
 Sum of electronic and thermal Enthalpies=            -926.960889
 Sum of electronic and thermal Free Energies=         -927.031412

                     E (Thermal)             CV                S
                      KCal/Mol        Cal/Mol-Kelvin    Cal/Mol-Kelvin
 Total                  218.527             74.567            148.428
 Electronic               0.000              0.000              0.000
 Translational            0.889              2.981             42.757
 Rotational               0.889              2.981             33.851
 Vibrational            216.750             68.605             71.820
 Vibration     1          0.593              1.985              6.298
 Vibration     2          0.594              1.981              5.335
 Vibration     3          0.595              1.977              4.800
 Vibration     4          0.596              1.974              4.521
 Vibration     5          0.599              1.966              4.029
 Vibration     6          0.601              1.958              3.716
 Vibration     7          0.602              1.955              3.618
 Vibration     8          0.604              1.950              3.474
 Vibration     9          0.614              1.916              2.839
 Vibration    10          0.620              1.897              2.609
 Vibration    11          0.630              1.866              2.323
 Vibration    12          0.639              1.836              2.109
 Vibration    13          0.646              1.814              1.979
 Vibration    14          0.652              1.796              1.882
 Vibration    15          0.657              1.779              1.804
 Vibration    16          0.667              1.751              1.683
 Vibration    17          0.671              1.737              1.628
 Vibration    18          0.688              1.688              1.461
 Vibration    19          0.714              1.612              1.251
 Vibration    20          0.715              1.609              1.244
 Vibration    21          0.740              1.539              1.089
 Vibration    22          0.772              1.453              0.934
 Vibration    23          0.794              1.399              0.849
 Vibration    24          0.799              1.385              0.829
 Vibration    25          0.802              1.377              0.818
 Vibration    26          0.811              1.355              0.788
 Vibration    27          0.838              1.292              0.707
 Vibration    28          0.846              1.271              0.682
 Vibration    29          0.876              1.203              0.607
 Vibration    30          0.909              1.132              0.537
 Vibration    31          0.953              1.042              0.458

                           ! Non-Optimized Parameters !
 Normal termination of Gaussian 16 at Sat Dec 12 16:54:13 2020.

 ----------------------------------------------------------------------
 # B3LYP/6-311++G(d,p) empiricaldispersion=gd3bj scf=xqc pop=npa geom=c
 heck
 ----------------------------------------------------------------------

 ----------------------------------------
 CID_104381793_JID_10713_Energie_neutraal
 ----------------------------------------
 Structure from the checkpoint file:  "JID_10713.chk"
 Charge =  0 Multiplicity = 1

 SCF Done:  E(RB3LYP) =  -927.574958030     A.U. after   16 cycles
 Normal termination of Gaussian 16 at Sat Dec 12 17:04:28 2020.

 ----------------------------------------------------------------------
 # B3LYP/6-311++G(d,p) empiricaldispersion=gd3bj scf=xqc pop=npa geom=c
 heck
 ----------------------------------------------------------------------

 --------------------------------------
 CID_104381793_JID_10713_Energie_kation
 --------------------------------------
 Structure from the checkpoint file:  "JID_10713.chk"
 Charge =  1 Multiplicity = 2

 SCF Done:  E(UB3LYP) =  -927.294790147     A.U. after   25 cycles
 Normal termination of Gaussian 16 at Sat Dec 12 17:27:44 2020.
 Gaussian 16:  ES64L-G16RevA.03 25-Dec-2016

 ----------------------------------------------------------------------
 # B3LYP/6-311++G(d,p) empiricaldispersion=gd3bj scf=xqc pop=npa geom=c
 heck
 ----------------------------------------------------------------------

 -------------------------------------
 CID_104381793_JID_10713_Energie_anion
 -------------------------------------
 Structure from the checkpoint file:  "JID_10713.chk"
 Charge = -1 Multiplicity = 2

                         Standard orientation:
 ---------------------------------------------------------------------
 Center     Atomic      Atomic             Coordinates (Angstroms)
 Number     Number       Type             X           Y           Z
 ---------------------------------------------------------------------
      1          6           0       -2.598713    1.421795    2.511448
      2          6           0       -1.524276    0.656675    1.731729
      3          6           0       -0.265579    0.442850    2.579238
      4          6           0       -2.049213   -0.699803    1.225839
      5          7           0       -3.192389   -0.601046    0.327379
      6          6           0       -3.239098   -0.683424   -1.034100
      7          8           0       -4.289353   -0.549774   -1.652818
      8          6           0       -1.926566   -0.949564   -1.787553
      9          7           0       -0.969979    0.134014   -1.651314
     10          6           0        0.266989    0.017012   -1.099683
     11          7           0        0.685233   -1.186426   -0.708029
     12          6           0        1.913862   -1.289457   -0.124918
     13          7           0        2.791953   -0.307348    0.120696
     14          6           0        2.333859    0.886825   -0.284437
     15          6           0        1.096960    1.154014   -0.906955
     16          6           0        1.089276    2.562888   -1.117151
     17          7           0        2.204210    3.123268   -0.677197
     18          7           0        2.952544    2.090077   -0.173515
     19          7           0        2.249713   -2.548871    0.266716
     20          6           0        3.570041   -2.891165    0.754449
     21          1           0       -2.918672    0.855450    3.396370
     22          1           0       -3.483134    1.618931    1.895063
     23          1           0       -2.216593    2.388487    2.857164
     24          1           0       -1.250194    1.250588    0.851277
     25          1           0       -0.490901   -0.156889    3.470834
     26          1           0        0.517945   -0.072696    2.015333
     27          1           0        0.141963    1.401368    2.917940
     28          1           0       -1.246973   -1.242086    0.721332
     29          1           0       -2.350735   -1.311223    2.087495
     30          1           0       -4.095283   -0.389933    0.734194
     31          1           0       -1.432692   -1.857409   -1.436658
     32          1           0       -2.208837   -1.083856   -2.835196
     33          1           0       -1.266881    1.057307   -1.930486
     34          1           0        0.327857    3.187245   -1.567425
     35          1           0        3.859112    2.278950    0.225474
     36          1           0        1.638770   -3.275950   -0.072875
     37          1           0        3.553868   -3.925849    1.105258
     38          1           0        4.342254   -2.785677   -0.019720
     39          1           0        3.839710   -2.236112    1.586588
 ---------------------------------------------------------------------

 SCF Done:  E(UB3LYP) =  -927.565382915     A.U. after   33 cycles
 SCF Done:  E(UB3LYP) =  -927.565382915     a.u. after    1 cycles

 The electronic state is 2-A.
 Alpha  occ. eigenvalues --  -19.00279 -14.28688 -14.25701 -14.24950 -14.24023
 Alpha  occ. eigenvalues --  -14.23094 -14.20187 -14.19893 -10.18719 -10.17245
 Alpha  occ. eigenvalues --  -10.16264 -10.14894 -10.12793 -10.11305 -10.10775
 Alpha  occ. eigenvalues --  -10.09869 -10.08635 -10.07981 -10.07265 -10.06544
 Alpha  occ. eigenvalues --   -0.95511  -0.95368  -0.90615  -0.87036  -0.83570
 Alpha  occ. eigenvalues --   -0.81208  -0.78192  -0.72757  -0.71361  -0.69350
 Alpha  occ. eigenvalues --   -0.64672  -0.61322  -0.60592  -0.59589  -0.55489
 Alpha  occ. eigenvalues --   -0.53826  -0.52176  -0.50721  -0.50171  -0.48064
 Alpha  occ. eigenvalues --   -0.43888  -0.43345  -0.41585  -0.41284  -0.38289
 Alpha  occ. eigenvalues --   -0.38098  -0.37898  -0.36338  -0.36153  -0.35514
 Alpha  occ. eigenvalues --   -0.35173  -0.34537  -0.34345  -0.33868  -0.32406
 Alpha  occ. eigenvalues --   -0.31377  -0.30632  -0.30202  -0.29587  -0.29524
 Alpha  occ. eigenvalues --   -0.28578  -0.26356  -0.26017  -0.24824  -0.24072
 Alpha  occ. eigenvalues --   -0.22918  -0.20500  -0.20077  -0.18320  -0.16971
 Alpha  occ. eigenvalues --   -0.16829  -0.16537  -0.14846  -0.11686   0.04120
 Alpha virt. eigenvalues --    0.05793   0.05989   0.06646   0.07337   0.08097
 Alpha virt. eigenvalues --    0.08419   0.08667   0.09235   0.09495   0.09776
 Alpha virt. eigenvalues --    0.10133   0.10388   0.10919   0.11464   0.11627

  Beta  occ. eigenvalues --  -19.00274 -14.28679 -14.25675 -14.24935 -14.23891
  Beta  occ. eigenvalues --  -14.23068 -14.20196 -14.19846 -10.18709 -10.17199
  Beta  occ. eigenvalues --  -10.16091 -10.14899 -10.12788 -10.11291 -10.10725
  Beta  occ. eigenvalues --  -10.09831 -10.08634 -10.08008 -10.07241 -10.06530
  Beta  occ. eigenvalues --   -0.95425  -0.95341  -0.90501  -0.86936  -0.83540
  Beta  occ. eigenvalues --   -0.81140  -0.78117  -0.72670  -0.71343  -0.69249
  Beta  occ. eigenvalues --   -0.64621  -0.61230  -0.60553  -0.59554  -0.55395
  Beta  occ. eigenvalues --   -0.53725  -0.52080  -0.50672  -0.50124  -0.48024
  Beta  occ. eigenvalues --   -0.43816  -0.43280  -0.41549  -0.41226  -0.38237
  Beta  occ. eigenvalues --   -0.38011  -0.37779  -0.36283  -0.36101  -0.35454
  Beta  occ. eigenvalues --   -0.35101  -0.34453  -0.34222  -0.33824  -0.32378
  Beta  occ. eigenvalues --   -0.31332  -0.30595  -0.29973  -0.29559  -0.29466
  Beta  occ. eigenvalues --   -0.28543  -0.26166  -0.25917  -0.24794  -0.23993
  Beta  occ. eigenvalues --   -0.22822  -0.20219  -0.19944  -0.18243  -0.16907
  Beta  occ. eigenvalues --   -0.16738  -0.16505  -0.14722  -0.11392
  Beta virt. eigenvalues --    0.06103   0.06817   0.06961   0.07121   0.07504
  Beta virt. eigenvalues --    0.08373   0.08794   0.09070   0.09372   0.09639
  Beta virt. eigenvalues --    0.09936   0.10417   0.10736   0.11022   0.11621

 Mulliken charges and spin densities:
               1          2
     1  C    0.269686  -0.727828
     2  C   -0.266721   0.617348
     3  C   -0.051382  -0.527716
     4  C    0.024140  -0.632911
     5  N   -0.147082   0.001232
     6  C   -0.250964   0.287409
     7  O   -0.348339   0.010562
     8  C    0.146830  -0.373394
     9  N   -0.090474   0.065985
    10  C    0.134856  -0.225112
    11  N   -0.174344   0.040030
    12  C   -0.435129  -0.022154
    13  N   -0.066338   0.040663
    14  C    0.043814  -0.122333
    15  C    0.227381  -0.309397
    16  C   -0.334243   0.033252
    17  N   -0.127499   0.022874
    18  N   -0.122851   0.015950
    19  N   -0.315114   0.225552
    20  C    0.819713  -1.105571
    21  H   -0.147940   0.305429
    22  H    0.023706   0.110617
    23  H   -0.021294   0.162997
    24  H    0.318009  -0.129484
    25  H   -0.005993   0.145569
    26  H   -0.174221   0.363952
    27  H    0.115841   0.009464
    28  H    0.351762  -0.132610
    29  H   -0.507659   0.697620
    30  H    0.076017   0.240924
    31  H    0.123865   0.084325
    32  H    0.154586   0.040722
    33  H    0.286982   0.016337
    34  H    0.065047   0.082211
    35  H    0.268004   0.043193
    36  H   -0.047268   0.351870
    37  H   -0.663357   0.811478
    38  H   -0.153398   0.316214
    39  H    0.001371   0.164729
 Sum of Mulliken charges =  -1.00000   1.00000

 Dipole moment (field-independent basis, Debye):
    X=              0.0786    Y=              5.0820    Z=             -2.5784  Tot=              5.6992
 Quadrupole moment (field-independent basis, Debye-Ang):
   XX=           -196.9311   YY=           -179.8300   ZZ=           -160.7777
   XY=             10.4503   XZ=              0.5913   YZ=              7.9770

 Summary of Natural Population Analysis:

                                       Natural Population
                Natural  -----------------------------------------------
    Atom  No    Charge         Core      Valence    Rydberg      Total
 -----------------------------------------------------------------------
      C    1   -0.28648      0.99965     2.28094    0.00590     3.28648
      C    2   -0.12192      0.99960     2.11401    0.00830     3.12192
      C    3   -0.28492      0.99964     2.27932    0.00596     3.28492
      C    4   -0.09602      0.99958     2.08414    0.01231     3.09602
      N    5   -0.31191      0.99966     2.80271    0.00954     3.81191
      C    6    0.33594      0.99967     1.64237    0.02202     2.66406
      O    7   -0.32755      0.99988     3.32176    0.00591     4.32755
      C    8   -0.13240      0.99957     2.12322    0.00961     3.13240
      N    9   -0.29546      0.99966     2.78696    0.00884     3.79546
      C   10    0.25908      0.99951     1.72686    0.01454     2.74092
      N   11   -0.31586      0.99963     2.80692    0.00931     3.81586
      C   12    0.31615      0.99960     1.66575    0.01850     2.68385
      N   13   -0.29937      0.99964     2.79065    0.00909     3.79937
      C   14    0.19885      0.99950     1.78496    0.01670     2.80115
      C   15   -0.13898      0.99943     2.13147    0.00808     3.13898
      C   16    0.00533      0.99962     1.98094    0.01411     2.99467
      N   17   -0.13720      0.99974     2.62388    0.01358     3.63720
      N   18   -0.18406      0.99965     2.67422    0.01019     3.68406
      N   19   -0.29980      0.99966     2.78916    0.01098     3.79980
      C   20   -0.17778      0.99965     2.16941    0.00871     3.17778
      H   21    0.09794      0.00000     0.40096    0.00110     0.40206
      H   22    0.09769      0.00000     0.40134    0.00097     0.40231
      H   23    0.09972      0.00000     0.39957    0.00071     0.40028
      H   24    0.09585      0.00000     0.40121    0.00294     0.40415
      H   25    0.09719      0.00000     0.40190    0.00092     0.40281
      H   26    0.10564      0.00000     0.39302    0.00134     0.39436
      H   27    0.09913      0.00000     0.39993    0.00094     0.40087
      H   28    0.11281      0.00000     0.38481    0.00238     0.38719
      H   29    0.09650      0.00000     0.40177    0.00173     0.40350
      H   30    0.19446      0.00000     0.30302    0.00252     0.30554
      H   31    0.12302      0.00000     0.37542    0.00156     0.37698
      H   32    0.10403      0.00000     0.39495    0.00103     0.39597
      H   33    0.19173      0.00000     0.30652    0.00176     0.30827
      H   34    0.09465      0.00000     0.40410    0.00125     0.40535
      H   35    0.19701      0.00000     0.30044    0.00255     0.30299
      H   36    0.19683      0.00000     0.30003    0.00314     0.30317
      H   37    0.09870      0.00000     0.39932    0.00197     0.40130
      H   38    0.09101      0.00000     0.40732    0.00167     0.40899
      H   39    0.10045      0.00000     0.39780    0.00175     0.39955
 =======================================================================
   * Total *   -0.00000     19.99254    53.75307    0.25439    74.00000

 Normal termination of Gaussian 16 at Sat Dec 12 17:57:39 2020.
