 Gaussian 16, Revision A.03,

 -----------------------------------------------------------
 # opt freq B3LYP/6-31G(d) empiricaldispersion=gd3bj scf=xqc
 -----------------------------------------------------------

 ------------------------------
 CID_62324212_JID_6452_neutraal
 ------------------------------
 Symbolic Z-matrix:
 Charge =  0 Multiplicity = 1

 SCF Done:  E(RB3LYP) =  -729.319198951     A.U. after   15 cycles
 SCF Done:  E(RB3LYP) =  -729.323925323     A.U. after   13 cycles
 SCF Done:  E(RB3LYP) =  -729.324591831     A.U. after   13 cycles
 SCF Done:  E(RB3LYP) =  -729.325744748     A.U. after   12 cycles
 SCF Done:  E(RB3LYP) =  -729.326176523     A.U. after   12 cycles
 SCF Done:  E(RB3LYP) =  -729.326519266     A.U. after   12 cycles
 SCF Done:  E(RB3LYP) =  -729.326829607     A.U. after   12 cycles
 SCF Done:  E(RB3LYP) =  -729.327003278     A.U. after   12 cycles
 SCF Done:  E(RB3LYP) =  -729.327062100     A.U. after   11 cycles
 SCF Done:  E(RB3LYP) =  -729.327092359     A.U. after   11 cycles
 SCF Done:  E(RB3LYP) =  -729.328439376     A.U. after    7 cycles
 SCF Done:  E(RB3LYP) =  -729.328439510     A.U. after    7 cycles
 SCF Done:  E(RB3LYP) =  -729.328439578     A.U. after    7 cycles
 SCF Done:  E(RB3LYP) =  -729.328439618     A.U. after    6 cycles
 SCF Done:  E(RB3LYP) =  -729.328439635     A.U. after    6 cycles
 Optimization completed.
    -- Stationary point found.
 Normal termination of Gaussian 16 at Thu Dec 10 23:15:18 2020.

 --------------------------------------------------------------------
 #N Geom=AllCheck Guess=TCheck SCRF=Check GenChk RB3LYP/6-31G(d) Freq
 --------------------------------------------------------------------

 Structure from the checkpoint file:  "JID_6452.chk"
 ------------------------------
 CID_62324212_JID_6452_neutraal
 ------------------------------
 Charge =  0 Multiplicity = 1

 SCF Done:  E(RB3LYP) =  -729.328439636     A.U. after    1 cycles

  Exact polarizability: 152.787  -2.154 152.574 -13.555   0.800 113.476
 Approx polarizability: 215.217  -6.645 218.600 -29.540   7.318 169.884

                      1                      2                      3
                      A                      A                      A
 Frequencies --     22.7774                29.8262                50.9054
 Red. masses --      3.4828                 3.7388                 3.9867
 Frc consts  --      0.0011                 0.0020                 0.0061
 IR Inten    --      0.3870                 1.2474                 0.9853

                      4                      5                      6
                      A                      A                      A
 Frequencies --     69.1717                89.7673               100.1509
 Red. masses --      4.7609                 3.9601                 4.1441
 Frc consts  --      0.0134                 0.0188                 0.0245
 IR Inten    --      1.6708                 4.6135                 0.3031

                      7                      8                      9
                      A                      A                      A
 Frequencies --    121.8652               145.3684               162.5167
 Red. masses --      2.4956                 3.2140                 2.6607
 Frc consts  --      0.0218                 0.0400                 0.0414
 IR Inten    --      1.0659                 1.6453                 1.1512

                     10                     11                     12
                      A                      A                      A
 Frequencies --    181.7000               186.7081               227.7608
 Red. masses --      1.6661                 1.7424                 2.6468
 Frc consts  --      0.0324                 0.0358                 0.0809
 IR Inten    --      1.8168                 0.8089                 3.0473

                     13                     14                     15
                      A                      A                      A
 Frequencies --    239.2532               252.0303               279.9144
 Red. masses --      2.1829                 1.1650                 1.4217
 Frc consts  --      0.0736                 0.0436                 0.0656
 IR Inten    --      5.1669                 0.3833                 1.5035

                     16                     17                     18
                      A                      A                      A
 Frequencies --    287.2199               308.3439               345.3428
 Red. masses --      2.5583                 2.8198                 3.1039
 Frc consts  --      0.1243                 0.1580                 0.2181
 IR Inten    --      0.6195                 0.6706                 0.0780

                     19                     20                     21
                      A                      A                      A
 Frequencies --    372.2541               394.2469               490.3702
 Red. masses --      3.1154                 2.7445                 3.2723
 Frc consts  --      0.2544                 0.2513                 0.4636
 IR Inten    --      8.2977                 1.8039                 8.9697

                     22                     23                     24
                      A                      A                      A
 Frequencies --    510.3302               547.3944               556.1140
 Red. masses --      2.2600                 4.4502                 2.7197
 Frc consts  --      0.3468                 0.7857                 0.4956
 IR Inten    --     12.5624                19.9390                 7.5886

                     25                     26                     27
                      A                      A                      A
 Frequencies --    604.9613               620.2175               634.5518
 Red. masses --      1.4761                 3.8002                 4.1550
 Frc consts  --      0.3183                 0.8613                 0.9857
 IR Inten    --     66.3637                 1.1852                 0.3352

                     28                     29                     30
                      A                      A                      A
 Frequencies --    679.2013               727.5143               752.0957
 Red. masses --      4.3852                 3.6485                 3.1554
 Frc consts  --      1.1919                 1.1378                 1.0516
 IR Inten    --      1.9292                 8.2213                17.7457

                     31                     32                     33
                      A                      A                      A
 Frequencies --    786.9613               797.7352               827.5373
 Red. masses --      2.3896                 1.2032                 1.6857
 Frc consts  --      0.8719                 0.4511                 0.6801
 IR Inten    --      7.8531                34.2480                38.3136

                     34                     35                     36
                      A                      A                      A
 Frequencies --    835.8666               844.1007               900.0362
 Red. masses --      1.3170                 1.4532                 1.4826
 Frc consts  --      0.5421                 0.6101                 0.7076
 IR Inten    --     10.1087                 7.1374                27.7826

                     37                     38                     39
                      A                      A                      A
 Frequencies --    931.1722               961.1447               967.1348
 Red. masses --      2.6135                 1.9714                 2.5282
 Frc consts  --      1.3352                 1.0730                 1.3933
 IR Inten    --      0.4291                 5.8888                22.3061

                     40                     41                     42
                      A                      A                      A
 Frequencies --    993.2812              1011.3913              1030.2844
 Red. masses --      3.8932                 2.1090                 1.7575
 Frc consts  --      2.2631                 1.2711                 1.0992
 IR Inten    --     10.7129                 2.9247                 4.3165

                     43                     44                     45
                      A                      A                      A
 Frequencies --   1045.2653              1051.9383              1069.1815
 Red. masses --      1.6310                 1.5659                 1.9858
 Frc consts  --      1.0499                 1.0209                 1.3375
 IR Inten    --     26.8679                 9.2300                 6.3883

                     46                     47                     48
                      A                      A                      A
 Frequencies --   1082.1321              1091.5602              1101.6112
 Red. masses --      1.9804                 1.4515                 2.0416
 Frc consts  --      1.3663                 1.0190                 1.4598
 IR Inten    --     12.2129                 6.1318                 3.3299

                     49                     50                     51
                      A                      A                      A
 Frequencies --   1161.1566              1169.5066              1176.1351
 Red. masses --      1.9854                 1.7369                 3.0162
 Frc consts  --      1.5772                 1.3997                 2.4582
 IR Inten    --     24.6169                16.2548                30.2577

                     52                     53                     54
                      A                      A                      A
 Frequencies --   1202.8971              1223.8627              1226.4558
 Red. masses --      2.4818                 1.3116                 3.9429
 Frc consts  --      2.1158                 1.1575                 3.4944
 IR Inten    --     25.1695                27.0979                11.9288

                     55                     56                     57
                      A                      A                      A
 Frequencies --   1247.0052              1257.2349              1273.1921
 Red. masses --      1.5768                 3.7759                 1.2834
 Frc consts  --      1.4446                 3.5164                 1.2257
 IR Inten    --      3.0839                13.8989                11.0196

                     58                     59                     60
                      A                      A                      A
 Frequencies --   1324.8544              1338.5110              1353.8487
 Red. masses --      1.1999                 1.3839                 1.7065
 Frc consts  --      1.2409                 1.4609                 1.8429
 IR Inten    --     49.7627                30.8459                20.2571

                     61                     62                     63
                      A                      A                      A
 Frequencies --   1379.6710              1388.0020              1403.2402
 Red. masses --      1.2965                 1.3076                 2.1400
 Frc consts  --      1.4540                 1.4843                 2.4827
 IR Inten    --     10.8104                23.1035                 8.2758

                     64                     65                     66
                      A                      A                      A
 Frequencies --   1405.9831              1424.9415              1435.1347
 Red. masses --      1.4383                 1.9327                 1.3423
 Frc consts  --      1.6752                 2.3122                 1.6289
 IR Inten    --     11.6792                82.9801                11.5701

                     67                     68                     69
                      A                      A                      A
 Frequencies --   1444.1355              1445.2273              1488.0252
 Red. masses --      1.2825                 1.3016                 1.5926
 Frc consts  --      1.5759                 1.6017                 2.0777
 IR Inten    --      6.1059                 5.9537                49.9933

                     70                     71                     72
                      A                      A                      A
 Frequencies --   1504.8721              1517.7864              1522.6950
 Red. masses --      1.0459                 1.1443                 1.0457
 Frc consts  --      1.3955                 1.5531                 1.4285
 IR Inten    --      6.6235                22.1371                 6.0561

                     73                     74                     75
                      A                      A                      A
 Frequencies --   1524.3521              1530.1061              1532.2016
 Red. masses --      1.0449                 1.1028                 1.0593
 Frc consts  --      1.4306                 1.5212                 1.4653
 IR Inten    --      4.7235                 4.8371                 2.7775

                     76                     77                     78
                      A                      A                      A
 Frequencies --   1533.1634              1550.5048              1558.3356
 Red. masses --      1.0566                 1.1095                 1.0909
 Frc consts  --      1.4633                 1.5715                 1.5608
 IR Inten    --      2.1720                 2.5664                 4.0714

                     79                     80                     81
                      A                      A                      A
 Frequencies --   1563.2929              1611.2288              1669.4670
 Red. masses --      1.1609                 7.0244                 6.0719
 Frc consts  --      1.6715                10.7442                 9.9707
 IR Inten    --     16.7909                16.1161                10.0445

                     82                     83                     84
                      A                      A                      A
 Frequencies --   1777.5051              3014.0879              3016.6294
 Red. masses --      7.6436                 1.0670                 1.0720
 Frc consts  --     14.2289                 5.7114                 5.7477
 IR Inten    --    325.6270                32.7926                53.2877

                     85                     86                     87
                      A                      A                      A
 Frequencies --   3021.6339              3040.5221              3052.1953
 Red. masses --      1.0834                 1.0394                 1.0374
 Frc consts  --      5.8282                 5.6613                 5.6941
 IR Inten    --     25.3680                33.9420                20.7686

                     88                     89                     90
                      A                      A                      A
 Frequencies --   3063.1709              3074.5895              3090.7531
 Red. masses --      1.0378                 1.0861                 1.0678
 Frc consts  --      5.7370                 6.0489                 6.0101
 IR Inten    --      8.2999                34.1025                31.7351

                     91                     92                     93
                      A                      A                      A
 Frequencies --   3098.6332              3107.1486              3126.2898
 Red. masses --      1.0994                 1.0924                 1.0996
 Frc consts  --      6.2192                 6.2140                 6.3318
 IR Inten    --      9.2240                 5.8062                25.1645

                     94                     95                     96
                      A                      A                      A
 Frequencies --   3131.2031              3136.5505              3138.1943
 Red. masses --      1.1022                 1.1028                 1.1044
 Frc consts  --      6.3670                 6.3924                 6.4084
 IR Inten    --     28.7071                26.6145                21.6309

                     97                     98                     99
                      A                      A                      A
 Frequencies --   3142.0914              3143.5830              3260.1768
 Red. masses --      1.1004                 1.1033                 1.0930
 Frc consts  --      6.4007                 6.4240                 6.8446
 IR Inten    --     10.4158                21.8618                 9.4630

                    100                    101                    102
                      A                      A                      A
 Frequencies --   3273.6481              3490.0546              3578.3499
 Red. masses --      1.1003                 1.0730                 1.0756
 Frc consts  --      6.9474                 7.7002                 8.1145
 IR Inten    --      3.1801                 7.0548                14.5215

 - Thermochemistry -
 -------------------
 Temperature   298.150 Kelvin.  Pressure   1.00000 Atm.
 Atom     1 has atomic number  6 and mass  12.00000

 Molecular mass:   224.15248 amu.
 Principal axes and moments of inertia in atomic units:
                           1         2         3
     Eigenvalues --  2734.077344558.194825649.68748
           X            0.99972   0.00262  -0.02351
           Y           -0.00324   0.99965  -0.02615
           Z            0.02344   0.02622   0.99938
 This molecule is an asymmetric top.
 Rotational symmetry number  1.
 Warning -- assumption of classical behavior for rotation
           may cause significant error
 Rotational temperatures (Kelvin)      0.03168     0.01900     0.01533
 Rotational constants (GHZ):           0.66009     0.39593     0.31944
 Zero-point vibrational energy     828307.8 (Joules/Mol)
                                  197.97031 (Kcal/Mol)
 Warning -- explicit consideration of  26 degrees of freedom as
           vibrations may cause significant error
 Vibrational temperatures:     32.77    42.91    73.24    99.52   129.16
          (Kelvin)            144.09   175.34   209.15   233.83   261.43
                              268.63   327.70   344.23   362.62   402.73
                              413.25   443.64   496.87   535.59   567.23
                              705.53   734.25   787.58   800.12   870.40
                              892.35   912.98   977.22  1046.73  1082.10
                             1132.26  1147.76  1190.64  1202.63  1214.47
                             1294.95  1339.75  1382.87  1391.49  1429.11
                             1455.17  1482.35  1503.90  1513.50  1538.31
                             1556.95  1570.51  1584.97  1670.65  1682.66
                             1692.20  1730.70  1760.87  1764.60  1794.16
                             1808.88  1831.84  1906.17  1925.82  1947.89
                             1985.04  1997.03  2018.95  2022.90  2050.17
                             2064.84  2077.79  2079.36  2140.94  2165.18
                             2183.76  2190.82  2193.20  2201.48  2204.50
                             2205.88  2230.83  2242.10  2249.23  2318.20
                             2401.99  2557.43  4336.60  4340.26  4347.46
                             4374.63  4391.43  4407.22  4423.65  4446.90
                             4458.24  4470.49  4498.03  4505.10  4512.80
                             4515.16  4520.77  4522.91  4690.67  4710.05
                             5021.41  5148.45

 Zero-point correction=                           0.315486 (Hartree/Particle)
 Thermal correction to Energy=                    0.332859
 Thermal correction to Enthalpy=                  0.333804
 Thermal correction to Gibbs Free Energy=         0.269035
 Sum of electronic and zero-point Energies=           -729.012954
 Sum of electronic and thermal Energies=              -728.995580
 Sum of electronic and thermal Enthalpies=            -728.994636
 Sum of electronic and thermal Free Energies=         -729.059405

                     E (Thermal)             CV                S
                      KCal/Mol        Cal/Mol-Kelvin    Cal/Mol-Kelvin
 Total                  208.872             64.002            136.317
 Electronic               0.000              0.000              0.000
 Translational            0.889              2.981             42.124
 Rotational               0.889              2.981             32.621
 Vibrational            207.095             58.040             61.572
 Vibration     1          0.593              1.985              6.376
 Vibration     2          0.594              1.984              5.841
 Vibration     3          0.595              1.977              4.782
 Vibration     4          0.598              1.969              4.177
 Vibration     5          0.602              1.956              3.665
 Vibration     6          0.604              1.949              3.451
 Vibration     7          0.609              1.931              3.071
 Vibration     8          0.617              1.908              2.732
 Vibration     9          0.623              1.888              2.520
 Vibration    10          0.630              1.865              2.311
 Vibration    11          0.632              1.858              2.260
 Vibration    12          0.651              1.799              1.897
 Vibration    13          0.657              1.780              1.808
 Vibration    14          0.664              1.759              1.716
 Vibration    15          0.680              1.711              1.534
 Vibration    16          0.684              1.697              1.490
 Vibration    17          0.698              1.658              1.371
 Vibration    18          0.724              1.585              1.187
 Vibration    19          0.744              1.529              1.070
 Vibration    20          0.761              1.482              0.984
 Vibration    21          0.846              1.271              0.683
 Vibration    22          0.865              1.227              0.633
 Vibration    23          0.903              1.145              0.550
 Vibration    24          0.912              1.126              0.532
 Vibration    25          0.964              1.021              0.441
 Vibration    26          0.980              0.989              0.416

                           ! Non-Optimized Parameters !
 Normal termination of Gaussian 16 at Thu Dec 10 23:28:19 2020.

 ----------------------------------------------------------------------
 # B3LYP/6-311++G(d,p) empiricaldispersion=gd3bj scf=xqc pop=npa geom=c
 heck
 ----------------------------------------------------------------------

 --------------------------------------
 CID_62324212_JID_6452_Energie_neutraal
 --------------------------------------
 Structure from the checkpoint file:  "JID_6452.chk"
 Charge =  0 Multiplicity = 1

 SCF Done:  E(RB3LYP) =  -729.539705014     A.U. after   15 cycles
 Normal termination of Gaussian 16 at Thu Dec 10 23:34:09 2020.

 ----------------------------------------------------------------------
 # B3LYP/6-311++G(d,p) empiricaldispersion=gd3bj scf=xqc pop=npa geom=c
 heck
 ----------------------------------------------------------------------

 ------------------------------------
 CID_62324212_JID_6452_Energie_kation
 ------------------------------------
 Structure from the checkpoint file:  "JID_6452.chk"
 Charge =  1 Multiplicity = 2

 SCF Done:  E(UB3LYP) =  -729.259056749     A.U. after   27 cycles
 Normal termination of Gaussian 16 at Thu Dec 10 23:48:30 2020.
 Gaussian 16:  ES64L-G16RevA.03 25-Dec-2016

 ----------------------------------------------------------------------
 # B3LYP/6-311++G(d,p) empiricaldispersion=gd3bj scf=xqc pop=npa geom=c
 heck
 ----------------------------------------------------------------------

 -----------------------------------
 CID_62324212_JID_6452_Energie_anion
 -----------------------------------
 Structure from the checkpoint file:  "JID_6452.chk"
 Charge = -1 Multiplicity = 2

                         Standard orientation:
 ---------------------------------------------------------------------
 Center     Atomic      Atomic             Coordinates (Angstroms)
 Number     Number       Type             X           Y           Z
 ---------------------------------------------------------------------
      1          6           0        3.729874    0.171975   -1.949808
      2          6           0        3.377186   -0.232954   -0.521379
      3          7           0        2.467524    0.749495    0.065638
      4          6           0        1.676786    0.632404    1.178338
      5          8           0        1.060613    1.597527    1.620794
      6          6           0        1.519775   -0.755668    1.789368
      7          6           0        0.214002   -1.402721    1.302736
      8          7           0        0.251967   -1.634386   -0.149427
      9          6           0       -1.087159   -1.745940   -0.769799
     10          6           0       -1.824961   -3.000141   -0.304128
     11          6           0       -1.898931   -0.501306   -0.531833
     12          6           0       -3.147006   -0.212023   -0.068911
     13          6           0       -3.222969    1.219748    0.048072
     14          6           0       -2.012696    1.711454   -0.340106
     15          8           0       -1.202202    0.670481   -0.712240
     16          6           0       -1.397394    3.063606   -0.382817
     17          1           0        2.829935    0.223184   -2.571787
     18          1           0        4.415837   -0.556357   -2.393109
     19          1           0        4.221029    1.152267   -1.975069
     20          1           0        2.886448   -1.209516   -0.531735
     21          1           0        4.294171   -0.327282    0.079025
     22          1           0        2.539750    1.704051   -0.268365
     23          1           0        2.369679   -1.408956    1.573330
     24          1           0        1.460718   -0.616024    2.872011
     25          1           0        0.081326   -2.362941    1.813846
     26          1           0       -0.618120   -0.748556    1.604500
     27          1           0        0.671065   -0.808179   -0.573631
     28          1           0       -0.893289   -1.846074   -1.847212
     29          1           0       -2.754939   -3.130809   -0.866615
     30          1           0       -1.191420   -3.877470   -0.461536
     31          1           0       -2.080459   -2.940619    0.758607
     32          1           0       -3.919774   -0.926945    0.176043
     33          1           0       -4.063018    1.802651    0.399551
     34          1           0       -0.498825    3.082638    0.245628
     35          1           0       -1.106890    3.345950   -1.403003
     36          1           0       -2.105984    3.808554   -0.010783
 ---------------------------------------------------------------------

 SCF Done:  E(UB3LYP) =  -729.526244370     A.U. after   33 cycles
 SCF Done:  E(UB3LYP) =  -729.526244370     a.u. after    1 cycles

 The electronic state is 2-A.
 Alpha  occ. eigenvalues --  -19.08704 -18.99237 -14.24165 -14.20524 -10.17857
 Alpha  occ. eigenvalues --  -10.13349 -10.12580 -10.11906 -10.11349 -10.10374
 Alpha  occ. eigenvalues --  -10.08688 -10.08074 -10.07649 -10.07490 -10.07335
 Alpha  occ. eigenvalues --  -10.06899  -1.01318  -0.94276  -0.82981  -0.81944
 Alpha  occ. eigenvalues --   -0.70840  -0.70375  -0.67700  -0.66219  -0.64156
 Alpha  occ. eigenvalues --   -0.59404  -0.55965  -0.54105  -0.52067  -0.49432
 Alpha  occ. eigenvalues --   -0.47544  -0.45671  -0.42282  -0.40883  -0.40161
 Alpha  occ. eigenvalues --   -0.39145  -0.37660  -0.36501  -0.36288  -0.35005
 Alpha  occ. eigenvalues --   -0.33152  -0.32814  -0.32046  -0.31665  -0.31033
 Alpha  occ. eigenvalues --   -0.29791  -0.29637  -0.29331  -0.28961  -0.28441
 Alpha  occ. eigenvalues --   -0.28203  -0.27898  -0.26996  -0.26911  -0.25158
 Alpha  occ. eigenvalues --   -0.24908  -0.18896  -0.16558  -0.16250  -0.14420
 Alpha  occ. eigenvalues --   -0.12537   0.04205
 Alpha virt. eigenvalues --    0.05847   0.06498   0.07052   0.07787   0.08176
 Alpha virt. eigenvalues --    0.08772   0.08979   0.09602   0.09703   0.10274
 Alpha virt. eigenvalues --    0.10410   0.11276   0.11365   0.11829   0.12186

  Beta  occ. eigenvalues --  -19.08698 -18.99236 -14.24150 -14.20516 -10.17857
  Beta  occ. eigenvalues --  -10.13344 -10.12575 -10.11896 -10.11324 -10.10366
  Beta  occ. eigenvalues --  -10.08678 -10.08063 -10.07639 -10.07486 -10.07314
  Beta  occ. eigenvalues --  -10.06842  -1.01307  -0.94271  -0.82958  -0.81926
  Beta  occ. eigenvalues --   -0.70824  -0.70359  -0.67680  -0.66168  -0.64128
  Beta  occ. eigenvalues --   -0.59379  -0.55935  -0.53991  -0.52039  -0.49407
  Beta  occ. eigenvalues --   -0.47509  -0.45651  -0.42261  -0.40862  -0.40128
  Beta  occ. eigenvalues --   -0.39105  -0.37638  -0.36469  -0.36258  -0.34984
  Beta  occ. eigenvalues --   -0.33133  -0.32798  -0.32024  -0.31647  -0.31015
  Beta  occ. eigenvalues --   -0.29744  -0.29617  -0.29306  -0.28925  -0.28415
  Beta  occ. eigenvalues --   -0.28172  -0.27864  -0.26954  -0.26872  -0.25130
  Beta  occ. eigenvalues --   -0.24885  -0.18878  -0.16539  -0.16239  -0.14401
  Beta  occ. eigenvalues --   -0.12509
  Beta virt. eigenvalues --    0.06095   0.06770   0.06997   0.07483   0.08235
  Beta virt. eigenvalues --    0.08744   0.09175   0.09292   0.09795   0.10086
  Beta virt. eigenvalues --    0.10529   0.10643   0.11557   0.11647   0.12046

 Mulliken charges and spin densities:
               1          2
     1  C    2.378570  -2.978587
     2  C   -0.993447   0.854985
     3  N   -0.104884  -0.030062
     4  C   -0.131796  -0.070871
     5  O   -0.306310   0.000905
     6  C   -0.018826  -0.234824
     7  C   -0.221756  -0.132225
     8  N    0.193730  -0.017431
     9  C   -1.116997   0.640529
    10  C    0.034717  -0.727721
    11  C    1.000072  -0.735744
    12  C   -0.529881   0.286699
    13  C   -0.153940  -0.091515
    14  C   -0.177993   0.426634
    15  O    0.031521   0.022930
    16  C    0.444090  -1.100060
    17  H   -0.384184   0.539864
    18  H   -0.465073   0.621036
    19  H   -0.522352   0.667151
    20  H    0.141284   0.029431
    21  H   -0.640977   0.825760
    22  H    0.305808  -0.001945
    23  H   -0.078626   0.244871
    24  H   -0.027570   0.241807
    25  H   -0.023945   0.174086
    26  H    0.258189  -0.101938
    27  H    0.797246  -0.548962
    28  H   -0.274822   0.490118
    29  H   -0.163678   0.311247
    30  H   -0.088353   0.254599
    31  H   -0.000257   0.159203
    32  H   -0.277730   0.432808
    33  H   -0.073292   0.229290
    34  H    0.148503   0.059021
    35  H   -0.018277   0.173722
    36  H    0.061237   0.085189
 Sum of Mulliken charges =  -1.00000   1.00000

 Dipole moment (field-independent basis, Debye):
    X=             -5.7329    Y=              0.9091    Z=              3.3927  Tot=              6.7233
 Quadrupole moment (field-independent basis, Debye-Ang):
   XX=           -183.3009   YY=           -143.8014   ZZ=           -141.6403
   XY=             -5.9319   XZ=             10.1142   YZ=             -4.3690

 Summary of Natural Population Analysis:

                                       Natural Population
                Natural  -----------------------------------------------
    Atom  No    Charge         Core      Valence    Rydberg      Total
 -----------------------------------------------------------------------
      C    1   -0.28777      0.99967     2.28262    0.00548     3.28777
      C    2   -0.09273      0.99962     2.08281    0.01030     3.09273
      N    3   -0.32039      0.99967     2.81030    0.01042     3.82039
      C    4    0.34247      0.99967     1.63345    0.02442     2.65753
      O    5   -0.32932      0.99987     3.32364    0.00580     4.32932
      C    6   -0.23455      0.99958     2.22707    0.00790     3.23455
      C    7   -0.08810      0.99961     2.07857    0.00991     3.08810
      N    8   -0.34089      0.99975     2.82993    0.01121     3.84089
      C    9   -0.03029      0.99956     2.01765    0.01308     3.03029
      C   10   -0.28795      0.99965     2.28233    0.00597     3.28795
      C   11    0.14383      0.99945     1.84155    0.01516     2.85617
      C   12   -0.14928      0.99948     2.14163    0.00817     3.14928
      C   13   -0.15566      0.99949     2.14825    0.00792     3.15566
      C   14    0.15859      0.99948     1.82728    0.01466     2.84141
      O   15   -0.24665      0.99985     3.23770    0.00911     4.24665
      C   16   -0.31028      0.99962     2.30599    0.00467     3.31028
      H   17    0.10069      0.00000     0.39751    0.00180     0.39931
      H   18    0.10672      0.00000     0.39126    0.00202     0.39328
      H   19    0.09931      0.00000     0.39822    0.00247     0.40069
      H   20    0.10204      0.00000     0.39570    0.00225     0.39796
      H   21    0.09076      0.00000     0.40723    0.00201     0.40924
      H   22    0.19388      0.00000     0.30353    0.00259     0.30612
      H   23    0.10467      0.00000     0.39384    0.00149     0.39533
      H   24    0.11275      0.00000     0.38640    0.00086     0.38725
      H   25    0.09241      0.00000     0.40642    0.00117     0.40759
      H   26    0.09081      0.00000     0.40716    0.00203     0.40919
      H   27    0.17758      0.00000     0.31679    0.00563     0.32242
      H   28    0.10332      0.00000     0.39490    0.00179     0.39668
      H   29    0.10286      0.00000     0.39607    0.00107     0.39714
      H   30    0.10615      0.00000     0.39278    0.00107     0.39385
      H   31    0.09868      0.00000     0.40023    0.00110     0.40132
      H   32    0.10913      0.00000     0.39000    0.00087     0.39087
      H   33    0.10555      0.00000     0.39370    0.00075     0.39445
      H   34    0.12308      0.00000     0.37542    0.00150     0.37692
      H   35    0.10507      0.00000     0.39351    0.00141     0.39493
      H   36    0.10351      0.00000     0.39584    0.00065     0.39649
 =======================================================================
   * Total *    0.00000     15.99402    44.80726    0.19872    61.00000

 Normal termination of Gaussian 16 at Fri Dec 11 00:05:12 2020.
