 Gaussian 16, Revision A.03,

 -----------------------------------------------------------
 # opt freq B3LYP/6-31G(d) empiricaldispersion=gd3bj scf=xqc
 -----------------------------------------------------------

 ------------------------------
 CID_141771788_JID_882_neutraal
 ------------------------------
 Symbolic Z-matrix:
 Charge =  0 Multiplicity = 1

 SCF Done:  E(RB3LYP) =  -403.053067099     A.U. after   15 cycles
 SCF Done:  E(RB3LYP) =  -403.057684550     A.U. after   13 cycles
 SCF Done:  E(RB3LYP) =  -403.057890458     A.U. after   12 cycles
 SCF Done:  E(RB3LYP) =  -403.057922368     A.U. after   11 cycles
 SCF Done:  E(RB3LYP) =  -403.057927136     A.U. after    9 cycles
 SCF Done:  E(RB3LYP) =  -403.057928560     A.U. after    9 cycles
 SCF Done:  E(RB3LYP) =  -403.057928779     A.U. after    8 cycles
 SCF Done:  E(RB3LYP) =  -403.057928864     A.U. after    8 cycles
 SCF Done:  E(RB3LYP) =  -403.057928943     A.U. after    8 cycles
 SCF Done:  E(RB3LYP) =  -403.057928985     A.U. after    8 cycles
 SCF Done:  E(RB3LYP) =  -403.057929004     A.U. after    7 cycles
 Optimization completed.
    -- Stationary point found.
 Normal termination of Gaussian 16 at Tue Dec  8 13:23:29 2020.

 --------------------------------------------------------------------
 #N Geom=AllCheck Guess=TCheck SCRF=Check GenChk RB3LYP/6-31G(d) Freq
 --------------------------------------------------------------------

 Structure from the checkpoint file:  "JID_882.chk"
 ------------------------------
 CID_141771788_JID_882_neutraal
 ------------------------------
 Charge =  0 Multiplicity = 1

 SCF Done:  E(RB3LYP) =  -403.057929004     A.U. after    1 cycles

  Exact polarizability: 137.691 -16.727 125.293  -2.170  -4.237  50.520
 Approx polarizability: 198.015 -34.214 207.843  -2.214  -2.691  79.257

                      1                      2                      3
                      A                      A                      A
 Frequencies --     48.6683                80.1464               129.8044
 Red. masses --      3.3512                 5.4608                 3.7848
 Frc consts  --      0.0047                 0.0207                 0.0376
 IR Inten    --      3.2009                 1.9864                 0.3361

                      4                      5                      6
                      A                      A                      A
 Frequencies --    132.4717               180.0988               254.3859
 Red. masses --      2.3426                 3.0988                 2.8645
 Frc consts  --      0.0242                 0.0592                 0.1092
 IR Inten    --      2.3716                 2.1885                 1.5303

                      7                      8                      9
                      A                      A                      A
 Frequencies --    304.7660               311.2591               398.9170
 Red. masses --      3.8531                 2.7955                 5.1422
 Frc consts  --      0.2109                 0.1596                 0.4821
 IR Inten    --      5.1994                 0.9526                 1.6947

                     10                     11                     12
                      A                      A                      A
 Frequencies --    419.4443               484.1460               539.3258
 Red. masses --      2.9252                 4.3256                 2.2568
 Frc consts  --      0.3032                 0.5974                 0.3868
 IR Inten    --      3.4681                 0.2009                 1.8635

                     13                     14                     15
                      A                      A                      A
 Frequencies --    600.2064               640.6603               705.9030
 Red. masses --      3.7002                 1.4155                 2.0678
 Frc consts  --      0.7854                 0.3423                 0.6071
 IR Inten    --      0.5283                 5.0457                 2.0147

                     16                     17                     18
                      A                      A                      A
 Frequencies --    764.4824               792.8134               840.1575
 Red. masses --      1.7636                 3.1383                 2.6543
 Frc consts  --      0.6073                 1.1622                 1.1039
 IR Inten    --      1.3665                 0.1987                 2.4328

                     19                     20                     21
                      A                      A                      A
 Frequencies --    898.3380               911.8290               927.9344
 Red. masses --      1.3403                 1.4554                 1.8988
 Frc consts  --      0.6373                 0.7129                 0.9633
 IR Inten    --     34.4435                 0.0265                 2.3540

                     22                     23                     24
                      A                      A                      A
 Frequencies --    939.4831               987.3968              1000.9453
 Red. masses --      1.4910                 1.5276                 3.9150
 Frc consts  --      0.7754                 0.8775                 2.3110
 IR Inten    --     38.7233                 2.4684                 0.0953

                     25                     26                     27
                      A                      A                      A
 Frequencies --   1027.7247              1032.0396              1096.6340
 Red. masses --      1.6341                 1.5004                 2.7853
 Frc consts  --      1.0169                 0.9416                 1.9735
 IR Inten    --     17.5048                 5.2895                 1.3717

                     28                     29                     30
                      A                      A                      A
 Frequencies --   1129.4299              1202.0467              1215.9479
 Red. masses --      1.2805                 1.4229                 2.1398
 Frc consts  --      0.9624                 1.2113                 1.8640
 IR Inten    --      0.7319                 0.7736                 1.3333

                     31                     32                     33
                      A                      A                      A
 Frequencies --   1239.9085              1257.3490              1331.4126
 Red. masses --      1.9510                 1.3905                 1.3211
 Frc consts  --      1.7672                 1.2952                 1.3798
 IR Inten    --      7.8851                 1.7309                 4.1358

                     34                     35                     36
                      A                      A                      A
 Frequencies --   1341.0551              1364.4788              1467.0773
 Red. masses --      1.4496                 1.6309                 1.1996
 Frc consts  --      1.5360                 1.7890                 1.5212
 IR Inten    --      4.6402                 2.1897                 4.5216

                     37                     38                     39
                      A                      A                      A
 Frequencies --   1482.1001              1500.5263              1683.1971
 Red. masses --      1.2706                 1.1159                 4.4458
 Frc consts  --      1.6444                 1.4804                 7.4212
 IR Inten    --      2.9199                 2.5893                 5.2377

                     40                     41                     42
                      A                      A                      A
 Frequencies --   1720.8468              1734.9797              2363.6432
 Red. masses --      6.8573                 5.9388                12.6400
 Frc consts  --     11.9643                10.5326                41.6063
 IR Inten    --      6.9159                 3.1815                14.7587

                     43                     44                     45
                      A                      A                      A
 Frequencies --   3068.4430              3087.3345              3140.3483
 Red. masses --      1.0837                 1.0581                 1.1091
 Frc consts  --      6.0117                 5.9422                 6.4444
 IR Inten    --      4.9547                19.7313                13.5015

                     46                     47                     48
                      A                      A                      A
 Frequencies --   3158.1346              3167.3436              3172.9575
 Red. masses --      1.0872                 1.0603                 1.0606
 Frc consts  --      6.3890                 6.2670                 6.2911
 IR Inten    --      2.5422                 6.9812                 3.5537

                     49                     50                     51
                      A                      A                      A
 Frequencies --   3191.9139              3253.1616              3254.7944
 Red. masses --      1.0896                 1.1162                 1.1153
 Frc consts  --      6.5405                 6.9598                 6.9611
 IR Inten    --      8.6501                 8.8762                12.6657

 - Thermochemistry -
 -------------------
 Temperature   298.150 Kelvin.  Pressure   1.00000 Atm.
 Atom     1 has atomic number  6 and mass  12.00000

 Molecular mass:   131.07350 amu.
 Principal axes and moments of inertia in atomic units:
                           1         2         3
     Eigenvalues --  1051.912071826.430462747.05054
           X            0.99789  -0.06439  -0.00818
           Y            0.06426   0.99780  -0.01616
           Z            0.00920   0.01560   0.99984
 This molecule is an asymmetric top.
 Rotational symmetry number  1.
 Warning -- assumption of classical behavior for rotation
           may cause significant error
 Rotational temperatures (Kelvin)      0.08234     0.04742     0.03153
 Rotational constants (GHZ):           1.71568     0.98812     0.65697
 Zero-point vibrational energy     400619.9 (Joules/Mol)
                                   95.75045 (Kcal/Mol)
 Warning -- explicit consideration of  13 degrees of freedom as
           vibrations may cause significant error
 Vibrational temperatures:     70.02   115.31   186.76   190.60   259.12
          (Kelvin)            366.00   438.49   447.83   573.95   603.49
                              696.58   775.97   863.56   921.77  1015.64
                             1099.92  1140.68  1208.80  1292.51  1311.92
                             1335.09  1351.71  1420.64  1440.14  1478.67
                             1484.87  1577.81  1625.00  1729.48  1749.48
                             1783.95  1809.04  1915.61  1929.48  1963.18
                             2110.80  2132.41  2158.92  2421.75  2475.91
                             2496.25  3400.76  4414.81  4441.99  4518.26
                             4543.85  4557.10  4565.18  4592.45  4680.57
                             4682.92

 Zero-point correction=                           0.152588 (Hartree/Particle)
 Thermal correction to Energy=                    0.162458
 Thermal correction to Enthalpy=                  0.163402
 Thermal correction to Gibbs Free Energy=         0.116787
 Sum of electronic and zero-point Energies=           -402.905341
 Sum of electronic and thermal Energies=              -402.895471
 Sum of electronic and thermal Enthalpies=            -402.894527
 Sum of electronic and thermal Free Energies=         -402.941142

                     E (Thermal)             CV                S
                      KCal/Mol        Cal/Mol-Kelvin    Cal/Mol-Kelvin
 Total                  101.944             36.164             98.111
 Electronic               0.000              0.000              0.000
 Translational            0.889              2.981             40.525
 Rotational               0.889              2.981             30.046
 Vibrational            100.167             30.203             27.540
 Vibration     1          0.595              1.978              4.871
 Vibration     2          0.600              1.963              3.887
 Vibration     3          0.612              1.923              2.949
 Vibration     4          0.613              1.921              2.910
 Vibration     5          0.629              1.867              2.327
 Vibration     6          0.665              1.755              1.700
 Vibration     7          0.696              1.665              1.391
 Vibration     8          0.700              1.652              1.356
 Vibration     9          0.765              1.472              0.967
 Vibration    10          0.782              1.428              0.894
 Vibration    11          0.840              1.285              0.699
 Vibration    12          0.894              1.163              0.567
 Vibration    13          0.958              1.031              0.449

 Optimization completed.
    -- Stationary point found.
 Normal termination of Gaussian 16 at Tue Dec  8 13:28:58 2020.

 ----------------------------------------------------------------------
 # B3LYP/6-311++G(d,p) empiricaldispersion=gd3bj scf=xqc pop=npa geom=c
 heck
 ----------------------------------------------------------------------

 --------------------------------------
 CID_141771788_JID_882_Energie_neutraal
 --------------------------------------
 Structure from the checkpoint file:  "JID_882.chk"
 Charge =  0 Multiplicity = 1

 SCF Done:  E(RB3LYP) =  -403.167416625     A.U. after   15 cycles
 Normal termination of Gaussian 16 at Tue Dec  8 13:30:42 2020.

 ----------------------------------------------------------------------
 # B3LYP/6-311++G(d,p) empiricaldispersion=gd3bj scf=xqc pop=npa geom=c
 heck
 ----------------------------------------------------------------------

 ------------------------------------
 CID_141771788_JID_882_Energie_kation
 ------------------------------------
 Structure from the checkpoint file:  "JID_882.chk"
 Charge =  1 Multiplicity = 2

 SCF Done:  E(UB3LYP) =  -402.863029240     A.U. after   19 cycles
 Normal termination of Gaussian 16 at Tue Dec  8 13:34:11 2020.
 Gaussian 16:  ES64L-G16RevA.03 25-Dec-2016

 ----------------------------------------------------------------------
 # B3LYP/6-311++G(d,p) empiricaldispersion=gd3bj scf=xqc pop=npa geom=c
 heck
 ----------------------------------------------------------------------

 -----------------------------------
 CID_141771788_JID_882_Energie_anion
 -----------------------------------
 Structure from the checkpoint file:  "JID_882.chk"
 Charge = -1 Multiplicity = 2

                         Standard orientation:
 ---------------------------------------------------------------------
 Center     Atomic      Atomic             Coordinates (Angstroms)
 Number     Number       Type             X           Y           Z
 ---------------------------------------------------------------------
      1          6           0        3.480308   -1.164936   -0.071312
      2          6           0        2.432471   -0.326612   -0.112129
      3          6           0        1.090972   -0.706266    0.282132
      4          6           0        0.022019    0.110991    0.293266
      5          6           0       -1.455272   -0.179534    0.605261
      6          6           0       -1.789592    1.250564    0.038043
      7          6           0       -0.286482    1.507756   -0.058077
      8          6           0        0.420873    2.615647   -0.299090
      9          6           0       -2.056787   -1.323266   -0.068109
     10          7           0       -2.519906   -2.235119   -0.618378
     11          1           0        3.373080   -2.190139    0.275106
     12          1           0        4.472883   -0.853923   -0.381224
     13          1           0        2.577444    0.690555   -0.467761
     14          1           0        0.940019   -1.746652    0.569566
     15          1           0       -1.654405   -0.249840    1.681098
     16          1           0       -2.357601    1.893938    0.715358
     17          1           0       -2.295085    1.210849   -0.931002
     18          1           0       -0.073731    3.558688   -0.514259
     19          1           0        1.505686    2.626290   -0.278152
 ---------------------------------------------------------------------

 SCF Done:  E(UB3LYP) =  -403.189178419     A.U. after   22 cycles

 The electronic state is 2-A.
 Alpha  occ. eigenvalues --  -14.18427 -10.08425 -10.08319 -10.05540 -10.02788
 Alpha  occ. eigenvalues --  -10.02204 -10.02084 -10.00641 -10.00465 -10.00041
 Alpha  occ. eigenvalues --   -0.78367  -0.72838  -0.64303  -0.60214  -0.56946
 Alpha  occ. eigenvalues --   -0.52629  -0.47800  -0.41721  -0.38227  -0.36055
 Alpha  occ. eigenvalues --   -0.34667  -0.31271  -0.28015  -0.27727  -0.27095
 Alpha  occ. eigenvalues --   -0.25266  -0.24956  -0.23373  -0.21329  -0.19420
 Alpha  occ. eigenvalues --   -0.18687  -0.18322  -0.17497  -0.13730  -0.07487
 Alpha  occ. eigenvalues --    0.03738
 Alpha virt. eigenvalues --    0.08964   0.10076   0.10434   0.11743   0.11829
 Alpha virt. eigenvalues --    0.12271   0.13729   0.14323   0.14666   0.14760
 Alpha virt. eigenvalues --    0.15079   0.15805   0.16504   0.17126   0.18073

  Beta  occ. eigenvalues --  -14.18425 -10.08394 -10.08338 -10.05549 -10.02735
  Beta  occ. eigenvalues --  -10.02255 -10.01890 -10.00338 -10.00077  -9.99716
  Beta  occ. eigenvalues --   -0.78332  -0.72442  -0.63799  -0.59865  -0.56474
  Beta  occ. eigenvalues --   -0.52242  -0.47104  -0.41339  -0.37950  -0.35780
  Beta  occ. eigenvalues --   -0.34367  -0.31095  -0.27782  -0.27557  -0.26868
  Beta  occ. eigenvalues --   -0.25168  -0.24865  -0.23251  -0.21174  -0.19206
  Beta  occ. eigenvalues --   -0.18383  -0.17480  -0.16898  -0.12169  -0.05309
  Beta virt. eigenvalues --    0.08677   0.09577   0.10068   0.10485   0.11724
  Beta virt. eigenvalues --    0.11910   0.12368   0.13697   0.14319   0.14708
  Beta virt. eigenvalues --    0.15036   0.15249   0.15827   0.16783   0.17164

 Mulliken charges and spin densities:
               1          2
     1  C   -0.732853   0.365580
     2  C    0.160936  -0.091545
     3  C   -0.448221   0.297094
     4  C    0.671149   0.045730
     5  C    0.947440   0.020804
     6  C   -0.779449  -0.093600
     7  C    0.228682  -0.019313
     8  C   -1.003451   0.356587
     9  C   -0.457735   0.001144
    10  N   -0.380833   0.000379
    11  H    0.056888  -0.017655
    12  H    0.098370  -0.016777
    13  H    0.067165  -0.003089
    14  H    0.107733  -0.012926
    15  H    0.107288   0.090777
    16  H    0.029848   0.099952
    17  H    0.152511   0.010131
    18  H    0.091115  -0.019825
    19  H    0.083418  -0.013446
 Sum of Mulliken charges =  -1.00000   1.00000

 Dipole moment (field-independent basis, Debye):
    X=             -1.5399    Y=              1.5351    Z=              1.3198  Tot=              2.5436
 Quadrupole moment (field-independent basis, Debye-Ang):
   XX=            -92.7495   YY=            -86.9501   ZZ=            -71.6240
   XY=             -5.8798   XZ=             -3.5578   YZ=             -4.7738

 Summary of Natural Population Analysis:

                                       Natural Population
                Natural  -----------------------------------------------
    Atom  No    Charge         Core      Valence    Rydberg      Total
 -----------------------------------------------------------------------
      C    1   -0.11533      0.99960     2.10749    0.00824     3.11533
      C    2   -0.12000      0.99957     2.11130    0.00914     3.12000
      C    3   -0.04757      0.99945     2.03958    0.00854     3.04757
      C    4    0.01306      0.99948     1.97498    0.01248     2.98694
      C    5   -0.17111      0.99950     2.16213    0.00949     3.17111
      C    6   -0.17634      0.99961     2.16872    0.00801     3.17634
      C    7   -0.01935      0.99952     2.00922    0.01061     3.01935
      C    8   -0.14356      0.99951     2.13538    0.00866     3.14356
      C    9    0.17576      0.99965     1.80557    0.01902     2.82424
      N   10   -0.21043      0.99979     2.69952    0.01113     3.71043
      H   11    0.07728      0.00000     0.42153    0.00118     0.42272
      H   12    0.07867      0.00000     0.42030    0.00103     0.42133
      H   13    0.09115      0.00000     0.40733    0.00152     0.40885
      H   14    0.08620      0.00000     0.41224    0.00156     0.41380
      H   15    0.11599      0.00000     0.38179    0.00222     0.38401
      H   16    0.09504      0.00000     0.40308    0.00188     0.40496
      H   17    0.10002      0.00000     0.39915    0.00084     0.39998
      H   18    0.08205      0.00000     0.41703    0.00092     0.41795
      H   19    0.08848      0.00000     0.41065    0.00087     0.41152
 =======================================================================
   * Total *   -0.00000      9.99568    24.88698    0.11734    35.00000

 Normal termination of Gaussian 16 at Tue Dec  8 13:37:10 2020.
