 Gaussian 16, Revision A.03,

 -----------------------------------------------------------
 # opt freq B3LYP/6-31G(d) empiricaldispersion=gd3bj scf=xqc
 -----------------------------------------------------------

 ------------------------------
 CID_130344262_JID_719_neutraal
 ------------------------------
 Symbolic Z-matrix:
 Charge =  0 Multiplicity = 1

 SCF Done:  E(RB3LYP) =  -421.557122083     A.U. after   14 cycles
 SCF Done:  E(RB3LYP) =  -421.559710240     A.U. after   12 cycles
 SCF Done:  E(RB3LYP) =  -421.560074509     A.U. after   12 cycles
 SCF Done:  E(RB3LYP) =  -421.560943637     A.U. after   13 cycles
 SCF Done:  E(RB3LYP) =  -421.561353455     A.U. after   15 cycles
 SCF Done:  E(RB3LYP) =  -421.562464204     A.U. after   12 cycles
 SCF Done:  E(RB3LYP) =  -421.563170398     A.U. after   12 cycles
 SCF Done:  E(RB3LYP) =  -421.563408142     A.U. after   12 cycles
 SCF Done:  E(RB3LYP) =  -421.563497897     A.U. after   11 cycles
 SCF Done:  E(RB3LYP) =  -421.563519290     A.U. after   10 cycles
 SCF Done:  E(RB3LYP) =  -421.563531061     A.U. after    9 cycles
 SCF Done:  E(RB3LYP) =  -421.563531554     A.U. after    8 cycles
 SCF Done:  E(RB3LYP) =  -421.563532299     A.U. after    9 cycles
 SCF Done:  E(RB3LYP) =  -421.563532586     A.U. after    8 cycles
 SCF Done:  E(RB3LYP) =  -421.563532641     A.U. after    7 cycles
 SCF Done:  E(RB3LYP) =  -421.563532662     A.U. after    7 cycles
 Optimization completed.
    -- Stationary point found.

 1\1\GINC-NODE203\FOpt\RB3LYP\6-31G(d)\C8H12N2\VSC10255\08-Dec-2020\0\\
 # opt freq B3LYP/6-31G(d) empiricaldispersion=gd3bj scf=xqc\\CID_13034
 4262_JID_719_neutraal\\0,1\C,0.9441449531,-0.2211598081,-0.3838005869\
 C,0.5646919432,1.2372489471,-0.3765207305\C,-0.3492839204,1.7548547656
 ,-1.2136531766\C,-0.6841855992,3.2203790067,-1.1609013541\C,-0.5085645
 457,3.7222385486,0.2730211857\N,0.7612134151,3.3329547208,0.8880970819
 \C,1.226248063,2.1723915721,0.580950844\C,2.5216840898,1.7363986508,1.
 1885840881\N,3.0390050037,2.0274925561,2.3155943093\C,2.3615501966,2.8

 Normal termination of Gaussian 16 at Tue Dec  8 12:32:36 2020.

 --------------------------------------------------------------------
 #N Geom=AllCheck Guess=TCheck SCRF=Check GenChk RB3LYP/6-31G(d) Freq
 --------------------------------------------------------------------

 Structure from the checkpoint file:  "JID_719.chk"
 ------------------------------
 CID_130344262_JID_719_neutraal
 ------------------------------
 Charge =  0 Multiplicity = 1

 SCF Done:  E(RB3LYP) =  -421.563532662     A.U. after    1 cycles

  Exact polarizability: 123.047  -2.725 101.232  -2.258  -2.555  61.007
 Approx polarizability: 177.632  -6.130 150.661  -2.475  -5.574  92.141

                      1                      2                      3
                      A                      A                      A
 Frequencies --     36.3233                99.1123               139.0866
 Red. masses --      2.8310                 2.9408                 1.4465
 Frc consts  --      0.0022                 0.0170                 0.0165
 IR Inten    --      1.3509                 0.6934                 1.6559

                      4                      5                      6
                      A                      A                      A
 Frequencies --    179.6669               203.3968               221.1240
 Red. masses --      1.3260                 1.5750                 2.7561
 Frc consts  --      0.0252                 0.0384                 0.0794
 IR Inten    --      0.8216                 0.2754                 0.3669

                      7                      8                      9
                      A                      A                      A
 Frequencies --    277.0280               307.5911               320.7589
 Red. masses --      2.1157                 2.3918                 3.3830
 Frc consts  --      0.0957                 0.1333                 0.2051
 IR Inten    --      2.3852                 1.2165                 5.7542

                     10                     11                     12
                      A                      A                      A
 Frequencies --    381.5904               434.8212               512.9920
 Red. masses --      2.9891                 4.0173                 3.1814
 Frc consts  --      0.2564                 0.4475                 0.4933
 IR Inten    --      3.5799                 0.4176                 6.7604

                     13                     14                     15
                      A                      A                      A
 Frequencies --    522.9168               611.0835               664.4996
 Red. masses --      4.7459                 3.2961                 2.5182
 Frc consts  --      0.7646                 0.7252                 0.6551
 IR Inten    --      3.3508                 1.8840                 8.3856

                     16                     17                     18
                      A                      A                      A
 Frequencies --    698.4586               800.9170               846.2910
 Red. masses --      3.2804                 3.1675                 1.3458
 Frc consts  --      0.9429                 1.1971                 0.5679
 IR Inten    --      0.8368                 9.1334                10.4218

                     19                     20                     21
                      A                      A                      A
 Frequencies --    893.6527               926.7074               935.0131
 Red. masses --      2.2969                 1.9599                 2.1527
 Frc consts  --      1.0807                 0.9917                 1.1088
 IR Inten    --      1.5438                 3.7239                 5.4704

                     22                     23                     24
                      A                      A                      A
 Frequencies --    970.0048               985.7008              1061.1015
 Red. masses --      3.1374                 2.6260                 1.7315
 Frc consts  --      1.7393                 1.5033                 1.1487
 IR Inten    --      5.6960                24.6464                26.2026

                     25                     26                     27
                      A                      A                      A
 Frequencies --   1078.2367              1082.0987              1102.5205
 Red. masses --      1.8451                 1.5615                 2.5927
 Frc consts  --      1.2638                 1.0773                 1.8569
 IR Inten    --     15.2742                 2.0267                 3.2302

                     28                     29                     30
                      A                      A                      A
 Frequencies --   1136.5182              1165.7341              1181.0450
 Red. masses --      1.3828                 1.8262                 2.3175
 Frc consts  --      1.0523                 1.4621                 1.9046
 IR Inten    --      3.2155                 3.8322                20.1710

                     31                     32                     33
                      A                      A                      A
 Frequencies --   1204.3248              1227.5547              1288.7940
 Red. masses --      1.3808                 1.9400                 1.2951
 Frc consts  --      1.1800                 1.7224                 1.2674
 IR Inten    --     13.2981                 8.0972                 7.2859

                     34                     35                     36
                      A                      A                      A
 Frequencies --   1364.6424              1378.1554              1401.4839
 Red. masses --      1.7175                 1.5016                 1.5046
 Frc consts  --      1.8844                 1.6803                 1.7412
 IR Inten    --     21.2640                 2.3110                 2.3717

                     37                     38                     39
                      A                      A                      A
 Frequencies --   1442.9009              1453.8652              1455.2877
 Red. masses --      1.2672                 1.1581                 1.2531
 Frc consts  --      1.5544                 1.4423                 1.5636
 IR Inten    --      2.3409                10.5873                 2.0208

                     40                     41                     42
                      A                      A                      A
 Frequencies --   1497.3993              1500.3885              1510.4986
 Red. masses --      1.0551                 1.0876                 1.1013
 Frc consts  --      1.3939                 1.4425                 1.4804
 IR Inten    --      2.3170                 3.2324                 1.6415

                     43                     44                     45
                      A                      A                      A
 Frequencies --   1512.7797              1520.5412              1523.2525
 Red. masses --      1.0480                 1.0640                 1.0605
 Frc consts  --      1.4131                 1.4494                 1.4498
 IR Inten    --      6.5851                13.5887                 4.4082

                     46                     47                     48
                      A                      A                      A
 Frequencies --   1649.4505              1719.2254              1747.5367
 Red. masses --      7.7889                 7.9987                 8.3685
 Frc consts  --     12.4855                13.9294                15.0574
 IR Inten    --     33.7531                 1.2327                12.9114

                     49                     50                     51
                      A                      A                      A
 Frequencies --   2998.3512              3009.4890              3041.6504
 Red. masses --      1.0736                 1.0686                 1.0318
 Frc consts  --      5.6867                 5.7025                 5.6240
 IR Inten    --     14.4631                46.5336                33.9642

                     52                     53                     54
                      A                      A                      A
 Frequencies --   3043.1194              3085.2290              3093.2006
 Red. masses --      1.0370                 1.0909                 1.0961
 Frc consts  --      5.6578                 6.1181                 6.1788
 IR Inten    --     24.0484                28.6210                12.8633

                     55                     56                     57
                      A                      A                      A
 Frequencies --   3097.2459              3102.1769              3105.7895
 Red. masses --      1.0918                 1.0894                 1.1010
 Frc consts  --      6.1710                 6.1768                 6.2574
 IR Inten    --     44.0672                45.5578                22.0403

                     58                     59                     60
                      A                      A                      A
 Frequencies --   3116.1394              3126.0444              3170.5336
 Red. masses --      1.1061                 1.1015                 1.0910
 Frc consts  --      6.3283                 6.3420                 6.4617
 IR Inten    --     43.0903                20.0542                23.2228

 - Thermochemistry -
 -------------------
 Temperature   298.150 Kelvin.  Pressure   1.00000 Atm.
 Atom     1 has atomic number  6 and mass  12.00000

 Molecular mass:   136.10005 amu.
 Principal axes and moments of inertia in atomic units:
                           1         2         3
     Eigenvalues --   865.176141710.467952432.98265
           X            0.99981   0.01801  -0.00803
           Y           -0.01802   0.99984  -0.00178
           Z            0.00800   0.00192   0.99997
 This molecule is an asymmetric top.
 Rotational symmetry number  1.
 Warning -- assumption of classical behavior for rotation
           may cause significant error
 Rotational temperatures (Kelvin)      0.10011     0.05064     0.03560
 Rotational constants (GHZ):           2.08598     1.05512     0.74178
 Zero-point vibrational energy     497425.5 (Joules/Mol)
                                  118.88754 (Kcal/Mol)
 Warning -- explicit consideration of  14 degrees of freedom as
           vibrations may cause significant error
 Vibrational temperatures:     52.26   142.60   200.11   258.50   292.64
          (Kelvin)            318.15   398.58   442.56   461.50   549.02
                              625.61   738.08   752.36   879.21   956.07
                             1004.93  1152.34  1217.62  1285.77  1333.33
                             1345.28  1395.62  1418.20  1526.69  1551.34
                             1556.90  1586.28  1635.20  1677.23  1699.26
                             1732.75  1766.18  1854.29  1963.42  1982.86
                             2016.42  2076.01  2091.79  2093.83  2154.42
                             2158.72  2173.27  2176.55  2187.72  2191.62
                             2373.19  2473.58  2514.32  4313.96  4329.98
                             4376.26  4378.37  4438.96  4450.43  4456.25
                             4463.34  4468.54  4483.43  4497.68  4561.69

 Zero-point correction=                           0.189459 (Hartree/Particle)
 Thermal correction to Energy=                    0.199571
 Thermal correction to Enthalpy=                  0.200516
 Thermal correction to Gibbs Free Energy=         0.153698
 Sum of electronic and zero-point Energies=           -421.374073
 Sum of electronic and thermal Energies=              -421.363961
 Sum of electronic and thermal Enthalpies=            -421.363017
 Sum of electronic and thermal Free Energies=         -421.409834

                     E (Thermal)             CV                S
                      KCal/Mol        Cal/Mol-Kelvin    Cal/Mol-Kelvin
 Total                  125.233             37.426             98.535
 Electronic               0.000              0.000              0.000
 Translational            0.889              2.981             40.637
 Rotational               0.889              2.981             29.666
 Vibrational            123.455             31.464             28.232
 Vibration     1          0.594              1.982              5.450
 Vibration     2          0.604              1.950              3.472
 Vibration     3          0.615              1.914              2.816
 Vibration     4          0.629              1.867              2.332
 Vibration     5          0.639              1.835              2.102
 Vibration     6          0.648              1.809              1.950
 Vibration     7          0.678              1.716              1.552
 Vibration     8          0.697              1.659              1.375
 Vibration     9          0.706              1.634              1.306
 Vibration    10          0.751              1.509              1.033
 Vibration    11          0.795              1.394              0.843
 Vibration    12          0.868              1.221              0.626
 Vibration    13          0.878              1.199              0.603
 Vibration    14          0.970              1.008              0.431

 Optimization completed.
    -- Stationary point found.

 1\1\GINC-NODE203\Freq\RB3LYP\6-31G(d)\C8H12N2\VSC10255\08-Dec-2020\0\\
 #N Geom=AllCheck Guess=TCheck SCRF=Check GenChk RB3LYP/6-31G(d) Freq\\
 CID_130344262_JID_719_neutraal\\0,1\C,0.9441449531,-0.2211598081,-0.38
 38005869\C,0.5646919432,1.2372489471,-0.3765207305\C,-0.3492839204,1.7
 548547656,-1.2136531766\C,-0.6841855992,3.2203790067,-1.1609013541\C,-
 0.5085645457,3.7222385486,0.2730211857\N,0.7612134151,3.3329547208,0.8
 880970819\C,1.226248063,2.1723915721,0.580950844\C,2.5216840898,1.7363
 986508,1.1885840881\N,3.0390050037,2.0274925561,2.3155943093\C,2.36155

 Normal termination of Gaussian 16 at Tue Dec  8 12:43:03 2020.

 ----------------------------------------------------------------------
 # B3LYP/6-311++G(d,p) empiricaldispersion=gd3bj scf=xqc pop=npa geom=c
 heck
 ----------------------------------------------------------------------

 --------------------------------------
 CID_130344262_JID_719_Energie_neutraal
 --------------------------------------
 Structure from the checkpoint file:  "JID_719.chk"
 Charge =  0 Multiplicity = 1

 SCF Done:  E(RB3LYP) =  -421.675853707     A.U. after   14 cycles
 Normal termination of Gaussian 16 at Tue Dec  8 12:50:06 2020.

 ----------------------------------------------------------------------
 # B3LYP/6-311++G(d,p) empiricaldispersion=gd3bj scf=xqc pop=npa geom=c
 heck
 ----------------------------------------------------------------------

 ------------------------------------
 CID_130344262_JID_719_Energie_kation
 ------------------------------------
 Structure from the checkpoint file:  "JID_719.chk"
 Charge =  1 Multiplicity = 2

 SCF Done:  E(UB3LYP) =  -421.370509406     A.U. after   26 cycles
 Normal termination of Gaussian 16 at Tue Dec  8 13:04:43 2020.
 Gaussian 16:  ES64L-G16RevA.03 25-Dec-2016

 -----------------------------------
 CID_130344262_JID_719_Energie_anion
 -----------------------------------
 Structure from the checkpoint file:  "JID_719.chk"
 Charge = -1 Multiplicity = 2

                         Standard orientation:
 ---------------------------------------------------------------------
 Center     Atomic      Atomic             Coordinates (Angstroms)
 Number     Number       Type             X           Y           Z
 ---------------------------------------------------------------------
      1          6           0        0.842999    2.414451    0.369137
      2          6           0        1.016243    0.946442    0.076000
      3          6           0        2.220784    0.356421    0.005172
      4          6           0        2.330304   -1.113654   -0.294140
      5          6           0        1.097838   -1.829987    0.259696
      6          7           0       -0.170942   -1.195775   -0.101091
      7          6           0       -0.182898    0.090073   -0.163986
      8          6           0       -1.460382    0.777205   -0.529152
      9          7           0       -2.668015    0.431461   -0.317988
     10          6           0       -3.004563   -0.784061    0.404289
     11          1           0        1.793964    2.858370    0.679335
     12          1           0        0.111301    2.580790    1.168886
     13          1           0        0.486021    2.970948   -0.506364
     14          1           0        3.128049    0.944467    0.131727
     15          1           0        3.240193   -1.540295    0.142653
     16          1           0        2.405364   -1.268702   -1.382679
     17          1           0        1.063925   -2.871054   -0.075748
     18          1           0        1.150144   -1.849678    1.360589
     19          1           0       -1.328356    1.723439   -1.063103
     20          1           0       -3.101361   -1.608411   -0.312253
     21          1           0       -2.259965   -1.094173    1.145550
     22          1           0       -3.978525   -0.636852    0.882868
 ---------------------------------------------------------------------

 SCF Done:  E(UB3LYP) =  -421.683067454     A.U. after   27 cycles

 The electronic state is 2-A.
 Alpha  occ. eigenvalues --  -14.12133 -14.09695 -10.03464 -10.02986 -10.02726
 Alpha  occ. eigenvalues --  -10.02540 -10.02424 -10.01538 -10.01463 -10.00141
 Alpha  occ. eigenvalues --   -0.75727  -0.72843  -0.64325  -0.61332  -0.55052
 Alpha  occ. eigenvalues --   -0.53723  -0.47368  -0.45175  -0.38844  -0.34101
 Alpha  occ. eigenvalues --   -0.32425  -0.30810  -0.29743  -0.28502  -0.27505
 Alpha  occ. eigenvalues --   -0.26950  -0.25241  -0.23906  -0.22832  -0.22778
 Alpha  occ. eigenvalues --   -0.21207  -0.19063  -0.16854  -0.12376  -0.09297
 Alpha  occ. eigenvalues --   -0.07988  -0.05576   0.05554
 Alpha virt. eigenvalues --    0.09180   0.10010   0.10662   0.11605   0.11833
 Alpha virt. eigenvalues --    0.12893   0.13146   0.13436   0.14476   0.14816
 Alpha virt. eigenvalues --    0.15276   0.15623   0.16836   0.17975   0.18840

  Beta  occ. eigenvalues --  -14.11760 -14.08942 -10.03494 -10.02973 -10.02692
  Beta  occ. eigenvalues --  -10.02558 -10.02428 -10.01468 -10.01370  -9.99844
  Beta  occ. eigenvalues --   -0.74922  -0.72105  -0.63835  -0.61052  -0.54829
  Beta  occ. eigenvalues --   -0.53547  -0.46984  -0.44629  -0.38397  -0.33804
  Beta  occ. eigenvalues --   -0.32138  -0.30524  -0.29400  -0.28303  -0.27409
  Beta  occ. eigenvalues --   -0.26544  -0.25028  -0.23670  -0.22606  -0.22306
  Beta  occ. eigenvalues --   -0.20984  -0.18775  -0.15357  -0.10977  -0.08690
  Beta  occ. eigenvalues --   -0.05743  -0.04947
  Beta virt. eigenvalues --    0.09034   0.09960   0.10609   0.11593   0.11746
  Beta virt. eigenvalues --    0.12206   0.13026   0.13308   0.13428   0.14475
  Beta virt. eigenvalues --    0.14904   0.15361   0.16530   0.16831   0.17918

 Mulliken charges and spin densities:
               1          2
     1  C   -0.422078  -0.121687
     2  C    1.563044   0.010864
     3  C   -0.999057   0.340443
     4  C   -0.158419  -0.065725
     5  C   -0.260035  -0.017165
     6  N   -0.011466   0.365329
     7  C   -0.816527   0.162457
     8  C   -0.542892  -0.041686
     9  N   -0.114298   0.156680
    10  C   -0.399879  -0.008558
    11  H    0.084477   0.028034
    12  H    0.125383   0.014215
    13  H    0.094054   0.020757
    14  H    0.044083   0.018073
    15  H    0.075374   0.032974
    16  H    0.089934   0.008460
    17  H    0.134970   0.000380
    18  H    0.031095   0.060023
    19  H    0.125145   0.009882
    20  H    0.141502   0.009331
    21  H    0.138010   0.011517
    22  H    0.077580   0.005403
 Sum of Mulliken charges =  -1.00000   1.00000

 Dipole moment (field-independent basis, Debye):
    X=              2.9830    Y=              0.1244    Z=              1.0080  Tot=              3.1512
 Quadrupole moment (field-independent basis, Debye-Ang):
   XX=            -92.8450   YY=            -76.2204   ZZ=            -70.3007
   XY=              1.8382   XZ=             -2.6301   YZ=              0.5496

 Summary of Natural Population Analysis:

                                       Natural Population
                Natural  -----------------------------------------------
    Atom  No    Charge         Core      Valence    Rydberg      Total
 -----------------------------------------------------------------------
      C    1   -0.28998      0.99964     2.28505    0.00529     3.28998
      C    2   -0.04101      0.99946     2.03264    0.00892     3.04101
      C    3   -0.03967      0.99948     2.02940    0.01079     3.03967
      C    4   -0.21021      0.99963     2.20272    0.00786     3.21021
      C    5   -0.09733      0.99963     2.08759    0.01011     3.09733
      N    6   -0.12790      0.99966     2.61313    0.01510     3.62790
      C    7    0.09131      0.99951     1.89343    0.01574     2.90869
      C    8    0.05362      0.99959     1.93056    0.01623     2.94638
      N    9   -0.19331      0.99968     2.67680    0.01683     3.69331
      C   10   -0.19596      0.99964     2.18823    0.00809     3.19596
      H   11    0.09171      0.00000     0.40656    0.00173     0.40829
      H   12    0.09932      0.00000     0.39918    0.00150     0.40068
      H   13    0.09497      0.00000     0.40300    0.00204     0.40503
      H   14    0.07931      0.00000     0.41917    0.00152     0.42069
      H   15    0.08980      0.00000     0.40764    0.00256     0.41020
      H   16    0.09323      0.00000     0.40532    0.00144     0.40677
      H   17    0.08354      0.00000     0.41500    0.00147     0.41646
      H   18    0.08612      0.00000     0.41133    0.00255     0.41388
      H   19    0.06884      0.00000     0.42846    0.00270     0.43116
      H   20    0.09489      0.00000     0.40384    0.00128     0.40511
      H   21    0.09375      0.00000     0.40411    0.00214     0.40625
      H   22    0.07497      0.00000     0.42360    0.00142     0.42503
 =======================================================================
   * Total *   -0.00000      9.99593    26.86675    0.13732    37.00000

 Normal termination of Gaussian 16 at Tue Dec  8 13:12:12 2020.
