 Gaussian 16, Revision A.03,

 -----------------------------------------------------------
 # opt freq B3LYP/6-31G(d) empiricaldispersion=gd3bj scf=xqc
 -----------------------------------------------------------

 -------------------------------
 CID_116922507_JID_7425_neutraal
 -------------------------------
 Symbolic Z-matrix:
 Charge =  0 Multiplicity = 1

 SCF Done:  E(RB3LYP) =  -804.715397956     A.U. after   14 cycles
 SCF Done:  E(RB3LYP) =  -804.724749068     A.U. after   13 cycles
 SCF Done:  E(RB3LYP) =  -804.726689240     A.U. after   13 cycles
 SCF Done:  E(RB3LYP) =  -804.728101470     A.U. after   14 cycles
 SCF Done:  E(RB3LYP) =  -804.729614385     A.U. after   13 cycles
 SCF Done:  E(RB3LYP) =  -804.730222250     A.U. after   13 cycles
 SCF Done:  E(RB3LYP) =  -804.730091203     A.U. after   13 cycles
 SCF Done:  E(RB3LYP) =  -804.731647204     A.U. after   13 cycles
 SCF Done:  E(RB3LYP) =  -804.731260852     A.U. after   13 cycles
 SCF Done:  E(RB3LYP) =  -804.732615443     A.U. after   13 cycles
 SCF Done:  E(RB3LYP) =  -804.732944746     A.U. after    7 cycles
 SCF Done:  E(RB3LYP) =  -804.732944846     A.U. after    7 cycles
 SCF Done:  E(RB3LYP) =  -804.732944882     A.U. after    6 cycles
 SCF Done:  E(RB3LYP) =  -804.732944896     A.U. after    6 cycles
 SCF Done:  E(RB3LYP) =  -804.732944901     A.U. after    6 cycles
 Optimization completed on the basis of negligible forces.
    -- Stationary point found.
 Normal termination of Gaussian 16 at Mon Dec 14 16:53:14 2020.

 --------------------------------------------------------------------
 #N Geom=AllCheck Guess=TCheck SCRF=Check GenChk RB3LYP/6-31G(d) Freq
 --------------------------------------------------------------------

 Structure from the checkpoint file:  "JID_7425.chk"
 -------------------------------
 CID_116922507_JID_7425_neutraal
 -------------------------------
 Charge =  0 Multiplicity = 1

 SCF Done:  E(RB3LYP) =  -804.732944901     A.U. after    1 cycles

  Exact polarizability: 191.206   3.287 142.312  -4.948  -2.553  92.723
 Approx polarizability: 255.762  13.436 238.859 -16.479 -11.186 149.549

                      1                      2                      3
                      A                      A                      A
 Frequencies --     23.8370                31.2552                62.4379
 Red. masses --      4.1536                 1.1215                 4.0791
 Frc consts  --      0.0014                 0.0006                 0.0094
 IR Inten    --      1.3206                 0.0904                 0.1113

                      4                      5                      6
                      A                      A                      A
 Frequencies --     71.6587                85.6779               133.6572
 Red. masses --      3.9858                 4.1228                 1.4826
 Frc consts  --      0.0121                 0.0178                 0.0156
 IR Inten    --      2.5234                 0.3337                 0.0610

                      7                      8                      9
                      A                      A                      A
 Frequencies --    138.5563               150.7900               166.1744
 Red. masses --      3.2400                 5.0197                 4.6122
 Frc consts  --      0.0366                 0.0672                 0.0750
 IR Inten    --      0.5510                 3.9350                 7.4066

                     10                     11                     12
                      A                      A                      A
 Frequencies --    175.7576               215.0381               225.2111
 Red. masses --      4.4743                 2.9108                 5.5524
 Frc consts  --      0.0814                 0.0793                 0.1659
 IR Inten    --      5.9070                 1.5682                 2.7815

                     13                     14                     15
                      A                      A                      A
 Frequencies --    237.3791               282.8382               324.5335
 Red. masses --      3.6656                 2.9536                 3.6616
 Frc consts  --      0.1217                 0.1392                 0.2272
 IR Inten    --      0.3890                 1.0752                17.4928

                     16                     17                     18
                      A                      A                      A
 Frequencies --    336.5265               383.4539               414.6967
 Red. masses --      3.1018                 3.4352                 8.5629
 Frc consts  --      0.2070                 0.2976                 0.8676
 IR Inten    --      9.5086                 1.0497                 5.0983

                     19                     20                     21
                      A                      A                      A
 Frequencies --    432.8317               475.5457               512.8673
 Red. masses --      3.4544                 4.5653                 5.2575
 Frc consts  --      0.3813                 0.6083                 0.8148
 IR Inten    --      0.3730                 8.9520                 3.0169

                     22                     23                     24
                      A                      A                      A
 Frequencies --    523.0757               553.7188               616.5065
 Red. masses --      4.5180                 6.0898                 5.0102
 Frc consts  --      0.7283                 1.1001                 1.1220
 IR Inten    --      0.6493                 1.1780                40.2255

                     25                     26                     27
                      A                      A                      A
 Frequencies --    697.5989               701.5508               756.8089
 Red. masses --      3.8696                 6.3920                 2.8139
 Frc consts  --      1.1095                 1.8536                 0.9496
 IR Inten    --      2.4438                 0.3459                 9.9218

                     28                     29                     30
                      A                      A                      A
 Frequencies --    765.4986               827.2022               832.7895
 Red. masses --      5.3333                 1.5580                 4.7202
 Frc consts  --      1.8413                 0.6281                 1.9288
 IR Inten    --      3.3348                18.0949                 9.8822

                     31                     32                     33
                      A                      A                      A
 Frequencies --    845.6143               877.6835               939.8869
 Red. masses --      4.2080                 3.1573                 1.3086
 Frc consts  --      1.7729                 1.4330                 0.6811
 IR Inten    --     19.4976                22.8656                 1.5341

                     34                     35                     36
                      A                      A                      A
 Frequencies --    964.9858               971.6226               992.9921
 Red. masses --      4.1588                 1.3461                 1.9413
 Frc consts  --      2.2817                 0.7487                 1.1278
 IR Inten    --     30.8454                 1.9274                 2.2002

                     37                     38                     39
                      A                      A                      A
 Frequencies --   1006.5235              1017.5600              1023.4910
 Red. masses --      1.8532                 2.5128                 5.0710
 Frc consts  --      1.1062                 1.5330                 3.1298
 IR Inten    --     39.6766                 2.6127                 2.2410

                     40                     41                     42
                      A                      A                      A
 Frequencies --   1029.8177              1036.7366              1055.0402
 Red. masses --      1.3439                 9.9643                 2.0038
 Frc consts  --      0.8397                 6.3101                 1.3141
 IR Inten    --      2.8346                63.3822                24.9196

                     43                     44                     45
                      A                      A                      A
 Frequencies --   1080.1189              1089.7253              1143.1041
 Red. masses --      1.5277                 7.9732                 1.7764
 Frc consts  --      1.0501                 5.5785                 1.3676
 IR Inten    --      4.5878                 5.9576                 2.1502

                     46                     47                     48
                      A                      A                      A
 Frequencies --   1158.7993              1167.6829              1170.8011
 Red. masses --      1.9267                 1.8785                 1.2577
 Frc consts  --      1.5243                 1.5091                 1.0158
 IR Inten    --     94.4077                86.3319                14.7570

                     49                     50                     51
                      A                      A                      A
 Frequencies --   1183.7893              1186.0462              1223.2950
 Red. masses --      1.6011                 1.3034                 1.6159
 Frc consts  --      1.3220                 1.0802                 1.4247
 IR Inten    --     65.8337                 1.3641                14.3117

                     52                     53                     54
                      A                      A                      A
 Frequencies --   1226.4761              1243.3810              1296.5010
 Red. masses --      1.1886                 2.8056                 4.7732
 Frc consts  --      1.0534                 2.5555                 4.7272
 IR Inten    --      5.9166                68.5083               106.0396

                     55                     56                     57
                      A                      A                      A
 Frequencies --   1315.7398              1333.2953              1349.4468
 Red. masses --      1.2819                 3.0850                 2.2367
 Frc consts  --      1.3075                 3.2312                 2.3998
 IR Inten    --      9.7277               224.0367                67.9112

                     58                     59                     60
                      A                      A                      A
 Frequencies --   1377.7165              1387.6728              1443.9863
 Red. masses --      2.5591                 1.5597                 1.2487
 Frc consts  --      2.8619                 1.7695                 1.5341
 IR Inten    --      7.1894                13.6736                 0.3055

                     61                     62                     63
                      A                      A                      A
 Frequencies --   1477.4290              1492.5218              1513.1824
 Red. masses --      2.3927                 1.2186                 1.0477
 Frc consts  --      3.0771                 1.5994                 1.4134
 IR Inten    --     18.7669                 8.8286                 5.9931

                     64                     65                     66
                      A                      A                      A
 Frequencies --   1515.9469              1523.1796              1523.4658
 Red. masses --      1.0442                 1.3492                 1.0485
 Frc consts  --      1.4138                 1.8443                 1.4338
 IR Inten    --      5.9748                11.4435                 8.3800

                     67                     68                     69
                      A                      A                      A
 Frequencies --   1542.6392              1543.3683              1565.1388
 Red. masses --      1.0813                 1.7809                 1.1067
 Frc consts  --      1.5160                 2.4994                 1.5972
 IR Inten    --      0.7714                 6.1055                 9.0985

                     70                     71                     72
                      A                      A                      A
 Frequencies --   1644.4614              1662.3499              1747.8076
 Red. masses --      4.6376                 5.7333                12.4483
 Frc consts  --      7.3891                 9.3347                22.4052
 IR Inten    --      2.6741                35.2753               150.4693

                     73                     74                     75
                      A                      A                      A
 Frequencies --   1835.2450              3047.3149              3068.2090
 Red. masses --     11.7769                 1.0378                 1.0536
 Frc consts  --     23.3705                 5.6780                 5.8440
 IR Inten    --    218.3576                29.1322                64.4976

                     76                     77                     78
                      A                      A                      A
 Frequencies --   3079.2311              3079.8622              3099.8320
 Red. masses --      1.0309                 1.0557                 1.1009
 Frc consts  --      5.7588                 5.8999                 6.2328
 IR Inten    --     34.5495                 9.3377                18.3595

                     79                     80                     81
                      A                      A                      A
 Frequencies --   3120.1741              3132.9290              3134.2964
 Red. masses --      1.1130                 1.1131                 1.1008
 Frc consts  --      6.3843                 6.4370                 6.3716
 IR Inten    --     33.5726                26.1056                13.7343

                     82                     83                     84
                      A                      A                      A
 Frequencies --   3156.8059              3179.7036              3187.1076
 Red. masses --      1.1078                 1.0879                 1.1075
 Frc consts  --      6.5043                 6.4808                 6.6278
 IR Inten    --     16.9000                12.2122                15.7581

                     85                     86                     87
                      A                      A                      A
 Frequencies --   3202.1490              3220.2157              3224.4045
 Red. masses --      1.0927                 1.0899                 1.0941
 Frc consts  --      6.6015                 6.6588                 6.7022
 IR Inten    --     18.8841                 3.1780                18.6384

 - Thermochemistry -
 -------------------
 Temperature   298.150 Kelvin.  Pressure   1.00000 Atm.
 Atom     1 has atomic number  6 and mass  12.00000

 Molecular mass:   234.08921 amu.
 Principal axes and moments of inertia in atomic units:
                           1         2         3
     Eigenvalues --  1961.660396353.451937626.94371
           X            0.99998  -0.00323   0.00530
           Y            0.00317   0.99995   0.00976
           Z           -0.00534  -0.00974   0.99994
 This molecule is an asymmetric top.
 Rotational symmetry number  1.
 Warning -- assumption of classical behavior for rotation
           may cause significant error
 Rotational temperatures (Kelvin)      0.04415     0.01363     0.01136
 Rotational constants (GHZ):           0.92001     0.28406     0.23663
 Zero-point vibrational energy     656833.4 (Joules/Mol)
                                  156.98696 (Kcal/Mol)
 Warning -- explicit consideration of  24 degrees of freedom as
           vibrations may cause significant error
 Vibrational temperatures:     34.30    44.97    89.83   103.10   123.27
          (Kelvin)            192.30   199.35   216.95   239.09   252.88
                              309.39   324.03   341.54   406.94   466.93
                              484.19   551.70   596.66   622.75   684.20
                              737.90   752.59   796.68   887.02  1003.69
                             1009.38  1088.88  1101.38  1190.16  1198.20
                             1216.65  1262.79  1352.29  1388.40  1397.95
                             1428.69  1448.16  1464.04  1472.58  1481.68
                             1491.63  1517.97  1554.05  1567.87  1644.67
                             1667.25  1680.04  1684.52  1703.21  1706.46
                             1760.05  1764.63  1788.95  1865.38  1893.06
                             1918.31  1941.55  1982.23  1996.55  2077.57
                             2125.69  2147.41  2177.13  2181.11  2191.52
                             2191.93  2219.51  2220.56  2251.89  2366.01
                             2391.75  2514.71  2640.51  4384.41  4414.47
                             4430.33  4431.23  4459.97  4489.23  4507.59
                             4509.55  4541.94  4574.88  4585.54  4607.18
                             4633.17  4639.20

 Zero-point correction=                           0.250175 (Hartree/Particle)
 Thermal correction to Energy=                    0.266365
 Thermal correction to Enthalpy=                  0.267310
 Thermal correction to Gibbs Free Energy=         0.204754
 Sum of electronic and zero-point Energies=           -804.482770
 Sum of electronic and thermal Energies=              -804.466580
 Sum of electronic and thermal Enthalpies=            -804.465635
 Sum of electronic and thermal Free Energies=         -804.528191

                     E (Thermal)             CV                S
                      KCal/Mol        Cal/Mol-Kelvin    Cal/Mol-Kelvin
 Total                  167.147             59.144            131.660
 Electronic               0.000              0.000              0.000
 Translational            0.889              2.981             42.253
 Rotational               0.889              2.981             32.919
 Vibrational            165.369             53.183             56.488
 Vibration     1          0.593              1.985              6.286
 Vibration     2          0.594              1.983              5.748
 Vibration     3          0.597              1.972              4.379
 Vibration     4          0.598              1.968              4.107
 Vibration     5          0.601              1.959              3.756
 Vibration     6          0.613              1.920              2.893
 Vibration     7          0.614              1.915              2.824
 Vibration     8          0.618              1.902              2.662
 Vibration     9          0.624              1.884              2.478
 Vibration    10          0.628              1.872              2.373
 Vibration    11          0.645              1.818              2.000
 Vibration    12          0.650              1.803              1.917
 Vibration    13          0.656              1.783              1.822
 Vibration    14          0.682              1.705              1.516
 Vibration    15          0.709              1.626              1.287
 Vibration    16          0.717              1.603              1.229
 Vibration    17          0.753              1.505              1.026
 Vibration    18          0.778              1.438              0.910
 Vibration    19          0.794              1.399              0.849
 Vibration    20          0.832              1.304              0.722
 Vibration    21          0.868              1.221              0.627
 Vibration    22          0.878              1.199              0.603
 Vibration    23          0.909              1.132              0.537
 Vibration    24          0.976              0.997              0.422

 Optimization completed on the basis of negligible forces.
    -- Stationary point found.
 Normal termination of Gaussian 16 at Mon Dec 14 17:04:13 2020.

 ----------------------------------------------------------------------
 # B3LYP/6-311++G(d,p) empiricaldispersion=gd3bj scf=xqc pop=npa geom=c
 heck
 ----------------------------------------------------------------------

 ---------------------------------------
 CID_116922507_JID_7425_Energie_neutraal
 ---------------------------------------
 Structure from the checkpoint file:  "JID_7425.chk"
 Charge =  0 Multiplicity = 1

 SCF Done:  E(RB3LYP) =  -804.957119592     A.U. after   15 cycles
 Normal termination of Gaussian 16 at Mon Dec 14 17:09:31 2020.

 ----------------------------------------------------------------------
 # B3LYP/6-311++G(d,p) empiricaldispersion=gd3bj scf=xqc pop=npa geom=c
 heck
 ----------------------------------------------------------------------

 -------------------------------------
 CID_116922507_JID_7425_Energie_kation
 -------------------------------------
 Structure from the checkpoint file:  "JID_7425.chk"
 Charge =  1 Multiplicity = 2

 SCF Done:  E(UB3LYP) =  -804.629905472     A.U. after   33 cycles
 SCF Done:  E(UB3LYP) =  -804.629905472     a.u. after    1 cycles
 Normal termination of Gaussian 16 at Mon Dec 14 17:25:18 2020.
 Gaussian 16:  ES64L-G16RevA.03 25-Dec-2016

 ----------------------------------------------------------------------
 # B3LYP/6-311++G(d,p) empiricaldispersion=gd3bj scf=xqc pop=npa geom=c
 heck
 ----------------------------------------------------------------------

 ------------------------------------
 CID_116922507_JID_7425_Energie_anion
 ------------------------------------
 Structure from the checkpoint file:  "JID_7425.chk"
 Charge = -1 Multiplicity = 2

                         Standard orientation:
 ---------------------------------------------------------------------
 Center     Atomic      Atomic             Coordinates (Angstroms)
 Number     Number       Type             X           Y           Z
 ---------------------------------------------------------------------
      1          6           0        4.605406   -1.871005    0.029395
      2          6           0        3.569479   -0.774532   -0.020461
      3          6           0        2.213832   -1.055607    0.125687
      4          6           0        1.238080   -0.044100    0.075237
      5          6           0        1.643240    1.285275   -0.122568
      6          6           0        3.000187    1.576391   -0.265612
      7          6           0        3.951638    0.561671   -0.217206
      8          6           0       -0.180100   -0.487994    0.253676
      9          8           0       -0.433716   -1.655840    0.514797
     10          6           0       -1.357804    0.491536    0.130754
     11          6           0       -1.304650    1.766948    1.007590
     12          8           0       -1.184675    2.623235   -0.155241
     13          6           0       -1.356654    1.500474   -1.049010
     14          6           0       -2.639533   -0.308529    0.287431
     15          8           0       -3.309603   -0.352830    1.293441
     16          8           0       -2.941160   -0.942424   -0.859661
     17          6           0       -4.085423   -1.809710   -0.795200
     18          1           0        4.144337   -2.844116    0.220722
     19          1           0        5.156674   -1.940038   -0.916349
     20          1           0        5.342682   -1.685783    0.819715
     21          1           0        1.878515   -2.074958    0.284857
     22          1           0        0.925353    2.096330   -0.162449
     23          1           0        3.312860    2.605731   -0.415414
     24          1           0        5.005689    0.804242   -0.331948
     25          1           0       -2.231275    1.940650    1.561993
     26          1           0       -0.444042    1.859217    1.676809
     27          1           0       -0.533194    1.406157   -1.763325
     28          1           0       -2.308347    1.545446   -1.588357
     29          1           0       -3.913046   -2.600128   -0.060732
     30          1           0       -4.978407   -1.245461   -0.514968
     31          1           0       -4.190751   -2.229319   -1.795522
 ---------------------------------------------------------------------

 SCF Done:  E(UB3LYP) =  -804.976527400     A.U. after   22 cycles

 The electronic state is 2-A.
 Alpha  occ. eigenvalues --  -19.06176 -19.00886 -19.00126 -18.91664 -10.18805
 Alpha  occ. eigenvalues --  -10.12955 -10.10585 -10.10088 -10.07033 -10.06598
 Alpha  occ. eigenvalues --  -10.04768 -10.03538 -10.02621 -10.01542 -10.01471
 Alpha  occ. eigenvalues --  -10.01469 -10.01039  -1.00157  -0.93272  -0.91296
 Alpha  occ. eigenvalues --   -0.86358  -0.70860  -0.67081  -0.63534  -0.61782
 Alpha  occ. eigenvalues --   -0.59836  -0.58110  -0.55199  -0.49252  -0.48827
 Alpha  occ. eigenvalues --   -0.44783  -0.44649  -0.42215  -0.40054  -0.38196
 Alpha  occ. eigenvalues --   -0.37281  -0.36255  -0.35652  -0.33675  -0.33076
 Alpha  occ. eigenvalues --   -0.31955  -0.30158  -0.29888  -0.29639  -0.29187
 Alpha  occ. eigenvalues --   -0.27798  -0.26764  -0.26228  -0.25894  -0.25177
 Alpha  occ. eigenvalues --   -0.24719  -0.21753  -0.21196  -0.20348  -0.20262
 Alpha  occ. eigenvalues --   -0.19182  -0.19097  -0.16544  -0.14799  -0.10824
 Alpha  occ. eigenvalues --   -0.10591  -0.08716   0.04171
 Alpha virt. eigenvalues --    0.07409   0.08579   0.09494   0.10115   0.10406
 Alpha virt. eigenvalues --    0.11225   0.11438   0.11561   0.11993   0.12548
 Alpha virt. eigenvalues --    0.12631   0.13407   0.13795   0.14178   0.14340

  Beta  occ. eigenvalues --  -19.06177 -19.00886 -19.00129 -18.91004 -10.18803
  Beta  occ. eigenvalues --  -10.12955 -10.10537 -10.10032 -10.07072 -10.06190
  Beta  occ. eigenvalues --  -10.04764 -10.03616 -10.02685 -10.01449 -10.01300
  Beta  occ. eigenvalues --  -10.01148 -10.00864  -1.00157  -0.93240  -0.91300
  Beta  occ. eigenvalues --   -0.85176  -0.70565  -0.66961  -0.63369  -0.61686
  Beta  occ. eigenvalues --   -0.59409  -0.58035  -0.54926  -0.49201  -0.47946
  Beta  occ. eigenvalues --   -0.44669  -0.44503  -0.42052  -0.39953  -0.38138
  Beta  occ. eigenvalues --   -0.37251  -0.36072  -0.35446  -0.33550  -0.32902
  Beta  occ. eigenvalues --   -0.31844  -0.30030  -0.29843  -0.29555  -0.28971
  Beta  occ. eigenvalues --   -0.27699  -0.26615  -0.25917  -0.25795  -0.24694
  Beta  occ. eigenvalues --   -0.23631  -0.21248  -0.20887  -0.20300  -0.20060
  Beta  occ. eigenvalues --   -0.18958  -0.17087  -0.16495  -0.14772  -0.09853
  Beta  occ. eigenvalues --   -0.08903  -0.08141
  Beta virt. eigenvalues --    0.07385   0.08530   0.09464   0.10069   0.10296
  Beta virt. eigenvalues --    0.10801   0.11220   0.11463   0.11804   0.12005
  Beta virt. eigenvalues --    0.12528   0.12613   0.13376   0.14132   0.14147

 Mulliken charges and spin densities:
               1          2
     1  C   -0.463721   0.013505
     2  C    0.387925  -0.057918
     3  C   -0.686117   0.172173
     4  C    0.629992   0.043165
     5  C   -0.674207   0.116692
     6  C   -0.409052  -0.036661
     7  C   -0.253862   0.272265
     8  C   -0.384016   0.253635
     9  O   -0.328807   0.243259
    10  C    0.526401   0.011312
    11  C   -0.467689  -0.002118
    12  O   -0.159602   0.000209
    13  C   -0.308759  -0.015713
    14  C    0.024216  -0.005624
    15  O   -0.214024  -0.000024
    16  O    0.024863  -0.005577
    17  C   -0.206948   0.000051
    18  H    0.146126  -0.000227
    19  H    0.118078   0.005268
    20  H    0.118859   0.004002
    21  H    0.143503  -0.013301
    22  H    0.131951  -0.008982
    23  H    0.114802   0.002772
    24  H    0.090702  -0.021969
    25  H    0.160446   0.015317
    26  H    0.173312   0.000054
    27  H    0.177554   0.000742
    28  H    0.128127   0.012751
    29  H    0.179698   0.000187
    30  H    0.146481   0.000603
    31  H    0.133768   0.000154
 Sum of Mulliken charges =  -1.00000   1.00000

 Dipole moment (field-independent basis, Debye):
    X=             -3.3490    Y=              0.3586    Z=             -2.2824  Tot=              4.0686
 Quadrupole moment (field-independent basis, Debye-Ang):
   XX=           -131.8337   YY=           -120.1489   ZZ=           -111.0131
   XY=              2.3419   XZ=              8.5332   YZ=              4.1595

 Summary of Natural Population Analysis:

                                       Natural Population
                Natural  -----------------------------------------------
    Atom  No    Charge         Core      Valence    Rydberg      Total
 -----------------------------------------------------------------------
      C    1   -0.28694      0.99964     2.28270    0.00460     3.28694
      C    2   -0.04707      0.99951     2.03935    0.00821     3.04707
      C    3   -0.04651      0.99949     2.03819    0.00883     3.04651
      C    4   -0.05000      0.99948     2.04094    0.00958     3.05000
      C    5   -0.07427      0.99954     2.06682    0.00791     3.07427
      C    6   -0.12504      0.99958     2.11601    0.00945     3.12504
      C    7   -0.04415      0.99952     2.03559    0.00904     3.04415
      C    8    0.32448      0.99960     1.65562    0.02031     2.67552
      O    9   -0.23613      0.99988     3.22974    0.00651     4.23613
      C   10   -0.13613      0.99949     2.12134    0.01530     3.13613
      C   11    0.01000      0.99961     1.98035    0.01004     2.99000
      O   12   -0.31300      0.99991     3.30407    0.00902     4.31300
      C   13    0.00961      0.99961     1.98058    0.01020     2.99039
      C   14    0.43318      0.99963     1.54030    0.02689     2.56682
      O   15   -0.31429      0.99986     3.30811    0.00631     4.31429
      O   16   -0.27643      0.99985     3.26725    0.00933     4.27643
      C   17   -0.10631      0.99961     2.09843    0.00827     3.10631
      H   18    0.09804      0.00000     0.40101    0.00095     0.40196
      H   19    0.09415      0.00000     0.40475    0.00111     0.40585
      H   20    0.09423      0.00000     0.40468    0.00109     0.40577
      H   21    0.10396      0.00000     0.39465    0.00139     0.39604
      H   22    0.10036      0.00000     0.39754    0.00209     0.39964
      H   23    0.08844      0.00000     0.40989    0.00168     0.41156
      H   24    0.08291      0.00000     0.41562    0.00147     0.41709
      H   25    0.08650      0.00000     0.41220    0.00131     0.41350
      H   26    0.09041      0.00000     0.40838    0.00121     0.40959
      H   27    0.09252      0.00000     0.40627    0.00121     0.40748
      H   28    0.07981      0.00000     0.41884    0.00135     0.42019
      H   29    0.09425      0.00000     0.40469    0.00105     0.40575
      H   30    0.08639      0.00000     0.41245    0.00116     0.41361
      H   31    0.08704      0.00000     0.41219    0.00077     0.41296
 =======================================================================
   * Total *    0.00000     16.99381    44.80855    0.19764    62.00000

 Normal termination of Gaussian 16 at Mon Dec 14 17:36:58 2020.
