 Gaussian 16, Revision A.03,

 -----------------------------------------------------------
 # opt freq B3LYP/6-31G(d) empiricaldispersion=gd3bj scf=xqc
 -----------------------------------------------------------

 -------------------------------
 CID_133719499_JID_6906_neutraal
 -------------------------------
 Symbolic Z-matrix:
 Charge =  0 Multiplicity = 1

 SCF Done:  E(RB3LYP) =  -713.285982027     A.U. after   15 cycles
 SCF Done:  E(RB3LYP) =  -713.284538074     A.U. after   12 cycles
 SCF Done:  E(RB3LYP) =  -713.290020786     A.U. after   12 cycles
 SCF Done:  E(RB3LYP) =  -713.291823050     A.U. after   12 cycles
 SCF Done:  E(RB3LYP) =  -713.292267443     A.U. after   12 cycles
 SCF Done:  E(RB3LYP) =  -713.292566487     A.U. after   14 cycles
 SCF Done:  E(RB3LYP) =  -713.292996724     A.U. after   11 cycles
 SCF Done:  E(RB3LYP) =  -713.292864002     A.U. after   12 cycles
 SCF Done:  E(RB3LYP) =  -713.293718220     A.U. after   12 cycles
 SCF Done:  E(RB3LYP) =  -713.294114388     A.U. after   12 cycles
 SCF Done:  E(RB3LYP) =  -713.296251189     A.U. after    9 cycles
 SCF Done:  E(RB3LYP) =  -713.296251280     A.U. after    7 cycles
 SCF Done:  E(RB3LYP) =  -713.296251490     A.U. after    7 cycles
 SCF Done:  E(RB3LYP) =  -713.296251820     A.U. after    7 cycles
 SCF Done:  E(RB3LYP) =  -713.296252172     A.U. after    8 cycles
 SCF Done:  E(RB3LYP) =  -713.296252436     A.U. after    7 cycles
 Optimization completed.
    -- Stationary point found.
 Normal termination of Gaussian 16 at Fri Dec 11 01:22:51 2020.

 --------------------------------------------------------------------
 #N Geom=AllCheck Guess=TCheck SCRF=Check GenChk RB3LYP/6-31G(d) Freq
 --------------------------------------------------------------------

 Structure from the checkpoint file:  "JID_6906.chk"
 -------------------------------
 CID_133719499_JID_6906_neutraal
 -------------------------------
 Charge =  0 Multiplicity = 1

 SCF Done:  E(RB3LYP) =  -713.296252436     A.U. after    1 cycles

  Exact polarizability: 175.713   1.941 137.040   7.824  -9.891 123.052
 Approx polarizability: 216.132  -1.738 213.297  16.146 -31.245 191.087

                      1                      2                      3
                      A                      A                      A
 Frequencies --     26.2779                33.7128                49.8082
 Red. masses --      4.0939                 3.8653                 3.4938
 Frc consts  --      0.0017                 0.0026                 0.0051
 IR Inten    --      0.4816                 0.7797                 0.5911

                      4                      5                      6
                      A                      A                      A
 Frequencies --     53.1647                77.2777               107.0894
 Red. masses --      3.1439                 3.0369                 2.5018
 Frc consts  --      0.0052                 0.0107                 0.0169
 IR Inten    --      1.1180                 1.0364                 0.5908

                      7                      8                      9
                      A                      A                      A
 Frequencies --    121.1074               132.4076               149.3485
 Red. masses --      2.3627                 1.1899                 3.7418
 Frc consts  --      0.0204                 0.0123                 0.0492
 IR Inten    --      0.3140                 0.0176                 1.4792

                     10                     11                     12
                      A                      A                      A
 Frequencies --    171.1920               195.0393               225.9392
 Red. masses --      3.6323                 1.7932                 1.8526
 Frc consts  --      0.0627                 0.0402                 0.0557
 IR Inten    --      0.3574                 0.8117                 0.4698

                     13                     14                     15
                      A                      A                      A
 Frequencies --    232.8239               238.6887               271.2377
 Red. masses --      1.2733                 1.6495                 2.1742
 Frc consts  --      0.0407                 0.0554                 0.0942
 IR Inten    --      1.5602                 1.8614                 0.8432

                     16                     17                     18
                      A                      A                      A
 Frequencies --    284.3670               301.4397               311.0694
 Red. masses --      1.4602                 2.8230                 2.0606
 Frc consts  --      0.0696                 0.1511                 0.1175
 IR Inten    --      0.0493                 2.2535                 0.4175

                     19                     20                     21
                      A                      A                      A
 Frequencies --    337.7332               358.7912               402.7552
 Red. masses --      3.4984                 3.1588                 4.0631
 Frc consts  --      0.2351                 0.2396                 0.3883
 IR Inten    --      2.8812                 1.4094                 2.9085

                     22                     23                     24
                      A                      A                      A
 Frequencies --    447.9026               502.9108               549.2032
 Red. masses --      3.7338                 3.0966                 3.7660
 Frc consts  --      0.4413                 0.4614                 0.6693
 IR Inten    --      1.5285                 3.4044                 8.0803

                     25                     26                     27
                      A                      A                      A
 Frequencies --    592.9096               630.3497               636.5419
 Red. masses --      3.3792                 3.4993                 4.0248
 Frc consts  --      0.6999                 0.8192                 0.9608
 IR Inten    --     41.0815                 0.7477                 6.0184

                     28                     29                     30
                      A                      A                      A
 Frequencies --    670.6895               694.0616               729.6152
 Red. masses --      4.2682                 2.8468                 3.0600
 Frc consts  --      1.1312                 0.8080                 0.9597
 IR Inten    --      2.4229                13.7192                 4.7967

                     31                     32                     33
                      A                      A                      A
 Frequencies --    762.5524               792.1333               803.0881
 Red. masses --      1.4901                 1.4487                 1.6651
 Frc consts  --      0.5105                 0.5356                 0.6327
 IR Inten    --      7.6834                22.4738                90.5619

                     34                     35                     36
                      A                      A                      A
 Frequencies --    813.1534               849.4783               868.9766
 Red. masses --      1.2364                 1.9187                 1.2849
 Frc consts  --      0.4817                 0.8157                 0.5717
 IR Inten    --     17.4567                 1.9338                 4.5603

                     37                     38                     39
                      A                      A                      A
 Frequencies --    891.3734               939.9649               951.5731
 Red. masses --      1.9014                 2.0253                 2.2623
 Frc consts  --      0.8901                 1.0543                 1.2069
 IR Inten    --      4.6214                 2.1773                 7.9732

                     40                     41                     42
                      A                      A                      A
 Frequencies --    978.9324               985.0617              1021.4859
 Red. masses --      2.1212                 4.5460                 1.7738
 Frc consts  --      1.1977                 2.5990                 1.0905
 IR Inten    --     15.7822                 5.2613                 0.2340

                     43                     44                     45
                      A                      A                      A
 Frequencies --   1027.0548              1043.2508              1054.3051
 Red. masses --      2.0500                 1.3758                 1.3764
 Frc consts  --      1.2741                 0.8822                 0.9014
 IR Inten    --      0.7446                 1.6403                26.7326

                     46                     47                     48
                      A                      A                      A
 Frequencies --   1067.7307              1081.3481              1088.1399
 Red. masses --      2.0008                 1.4613                 1.9835
 Frc consts  --      1.3439                 1.0067                 1.3837
 IR Inten    --      1.2857                 2.9123                17.6235

                     49                     50                     51
                      A                      A                      A
 Frequencies --   1106.3374              1127.7663              1154.3885
 Red. masses --      2.0294                 2.0097                 2.0390
 Frc consts  --      1.4635                 1.5060                 1.6009
 IR Inten    --      1.3522                 9.4213                 4.9174

                     52                     53                     54
                      A                      A                      A
 Frequencies --   1185.6881              1197.7072              1243.6430
 Red. masses --      2.8594                 2.1920                 1.9880
 Frc consts  --      2.3684                 1.8527                 1.8116
 IR Inten    --     20.1722                24.4945                 4.8356

                     55                     56                     57
                      A                      A                      A
 Frequencies --   1251.4829              1255.3775              1295.0506
 Red. masses --      3.8742                 2.1069                 1.4141
 Frc consts  --      3.5751                 1.9564                 1.3974
 IR Inten    --      6.2825                13.6881                14.6133

                     58                     59                     60
                      A                      A                      A
 Frequencies --   1306.6541              1331.5301              1349.2016
 Red. masses --      1.4197                 1.3511                 1.4366
 Frc consts  --      1.4281                 1.4113                 1.5408
 IR Inten    --     32.9760                 9.7531                10.3305

                     61                     62                     63
                      A                      A                      A
 Frequencies --   1350.2671              1357.0145              1380.8979
 Red. masses --      1.2833                 1.3796                 2.1188
 Frc consts  --      1.3786                 1.4968                 2.3805
 IR Inten    --      3.5939                21.6267               156.0480

                     64                     65                     66
                      A                      A                      A
 Frequencies --   1397.6978              1401.9757              1415.7531
 Red. masses --      1.5243                 2.7531                 1.4301
 Frc consts  --      1.7544                 3.1883                 1.6889
 IR Inten    --     36.0185                 7.9698                 0.7223

                     67                     68                     69
                      A                      A                      A
 Frequencies --   1435.0898              1440.7436              1445.5997
 Red. masses --      1.2722                 1.2300                 1.2863
 Frc consts  --      1.5437                 1.5043                 1.5838
 IR Inten    --      9.4609                 2.6349                 0.8523

                     70                     71                     72
                      A                      A                      A
 Frequencies --   1449.8238              1496.1113              1502.7093
 Red. masses --      1.2570                 1.3914                 1.0431
 Frc consts  --      1.5568                 1.8350                 1.3877
 IR Inten    --      3.3629                48.6933                 6.4435

                     73                     74                     75
                      A                      A                      A
 Frequencies --   1518.5779              1520.2892              1521.1673
 Red. masses --      1.0612                 1.0594                 1.0966
 Frc consts  --      1.4418                 1.4427                 1.4951
 IR Inten    --      4.7539                10.1684                 3.4772

                     76                     77                     78
                      A                      A                      A
 Frequencies --   1523.0599              1530.6254              1532.7836
 Red. masses --      1.0550                 1.1078                 1.0494
 Frc consts  --      1.4419                 1.5291                 1.4526
 IR Inten    --      1.6997                 2.2336                 4.9405

                     79                     80                     81
                      A                      A                      A
 Frequencies --   1534.2560              1541.9637              1543.8963
 Red. masses --      1.0523                 1.0578                 1.0627
 Frc consts  --      1.4594                 1.4819                 1.4924
 IR Inten    --      1.0923                11.6201                 6.4715

                     82                     83                     84
                      A                      A                      A
 Frequencies --   1611.7421              1668.3735              1763.1514
 Red. masses --      7.5843                 6.1259                 7.6107
 Frc consts  --     11.6079                10.0462                13.9397
 IR Inten    --     12.7597                 8.7912               279.8084

                     85                     86                     87
                      A                      A                      A
 Frequencies --   3041.4276              3044.8693              3047.6407
 Red. masses --      1.0762                 1.0382                 1.0383
 Frc consts  --      5.8652                 5.6711                 5.6819
 IR Inten    --      8.6944                36.4634                13.9384

                     88                     89                     90
                      A                      A                      A
 Frequencies --   3049.8043              3055.8600              3057.4158
 Red. masses --      1.0445                 1.0549                 1.0654
 Frc consts  --      5.7243                 5.8037                 5.8678
 IR Inten    --      5.8552                18.0180                71.4904

                     91                     92                     93
                      A                      A                      A
 Frequencies --   3061.8880              3085.5463              3092.0807
 Red. masses --      1.0358                 1.1015                 1.1005
 Frc consts  --      5.7215                 6.1786                 6.1992
 IR Inten    --     18.9744                13.8517                 9.9599

                     94                     95                     96
                      A                      A                      A
 Frequencies --   3094.3689              3112.9200              3117.1136
 Red. masses --      1.1016                 1.1005                 1.1018
 Frc consts  --      6.2145                 6.2831                 6.3074
 IR Inten    --     17.0073                44.8190                42.5597

                     97                     98                     99
                      A                      A                      A
 Frequencies --   3119.2351              3125.3595              3129.7253
 Red. masses --      1.1021                 1.0919                 1.1021
 Frc consts  --      6.3176                 6.2841                 6.3602
 IR Inten    --     30.5140                 5.2993                23.7886

                    100                    101                    102
                      A                      A                      A
 Frequencies --   3142.5520              3142.6641              3150.1461
 Red. masses --      1.0922                 1.0988                 1.1036
 Frc consts  --      6.3549                 6.3938                 6.4524
 IR Inten    --     19.7942                18.3605                21.7553

                    103                    104                    105
                      A                      A                      A
 Frequencies --   3263.4782              3275.6083              3534.7786
 Red. masses --      1.0934                 1.1009                 1.0740
 Frc consts  --      6.8614                 6.9598                 7.9062
 IR Inten    --      6.7375                 0.5656                 8.8840

 - Thermochemistry -
 -------------------
 Temperature   298.150 Kelvin.  Pressure   1.00000 Atm.
 Atom     1 has atomic number  6 and mass  12.00000

 Molecular mass:   223.15723 amu.
 Principal axes and moments of inertia in atomic units:
                           1         2         3
     Eigenvalues --  2079.080456238.077456378.63151
           X            0.99990   0.00814  -0.01146
           Y           -0.00608   0.98559   0.16904
           Z            0.01267  -0.16896   0.98554
 This molecule is an asymmetric top.
 Rotational symmetry number  1.
 Warning -- assumption of classical behavior for rotation
           may cause significant error
 Rotational temperatures (Kelvin)      0.04166     0.01388     0.01358
 Rotational constants (GHZ):           0.86805     0.28931     0.28294
 Zero-point vibrational energy     855257.8 (Joules/Mol)
                                  204.41152 (Kcal/Mol)
 Warning -- explicit consideration of  25 degrees of freedom as
           vibrations may cause significant error
 Vibrational temperatures:     37.81    48.51    71.66    76.49   111.19
          (Kelvin)            154.08   174.25   190.51   214.88   246.31
                              280.62   325.08   334.98   343.42   390.25
                              409.14   433.70   447.56   485.92   516.22
                              579.47   644.43   723.58   790.18   853.06
                              906.93   915.84   964.97   998.60  1049.75
                             1097.14  1139.70  1155.46  1169.95  1222.21
                             1250.26  1282.49  1352.40  1369.10  1408.47
                             1417.28  1469.69  1477.70  1501.01  1516.91
                             1536.23  1555.82  1565.59  1591.77  1622.60
                             1660.91  1705.94  1723.23  1789.32  1800.60
                             1806.21  1863.29  1879.98  1915.77  1941.20
                             1942.73  1952.44  1986.80  2010.98  2017.13
                             2036.95  2064.77  2072.91  2079.90  2085.97
                             2152.57  2162.06  2184.89  2187.36  2188.62
                             2191.34  2202.23  2205.33  2207.45  2218.54
                             2221.32  2318.94  2400.42  2536.78  4375.94
                             4380.89  4384.88  4387.99  4396.70  4398.94
                             4405.37  4439.41  4448.81  4452.11  4478.80
                             4484.83  4487.88  4496.70  4502.98  4521.43
                             4521.59  4532.36  4695.42  4712.87  5085.76

 Zero-point correction=                           0.325750 (Hartree/Particle)
 Thermal correction to Energy=                    0.343646
 Thermal correction to Enthalpy=                  0.344591
 Thermal correction to Gibbs Free Energy=         0.278720
 Sum of electronic and zero-point Energies=           -712.970502
 Sum of electronic and thermal Energies=              -712.952606
 Sum of electronic and thermal Enthalpies=            -712.951662
 Sum of electronic and thermal Free Energies=         -713.017533

                     E (Thermal)             CV                S
                      KCal/Mol        Cal/Mol-Kelvin    Cal/Mol-Kelvin
 Total                  215.641             65.635            138.637
 Electronic               0.000              0.000              0.000
 Translational            0.889              2.981             42.111
 Rotational               0.889              2.981             32.781
 Vibrational            213.864             59.674             63.745
 Vibration     1          0.593              1.985              6.092
 Vibration     2          0.594              1.983              5.598
 Vibration     3          0.595              1.978              4.825
 Vibration     4          0.596              1.976              4.696
 Vibration     5          0.599              1.964              3.959
 Vibration     6          0.606              1.944              3.321
 Vibration     7          0.609              1.932              3.083
 Vibration     8          0.613              1.921              2.911
 Vibration     9          0.618              1.903              2.681
 Vibration    10          0.626              1.878              2.422
 Vibration    11          0.636              1.847              2.179
 Vibration    12          0.650              1.802              1.911
 Vibration    13          0.654              1.791              1.857
 Vibration    14          0.657              1.781              1.813
 Vibration    15          0.675              1.726              1.588
 Vibration    16          0.683              1.703              1.507
 Vibration    17          0.693              1.671              1.409
 Vibration    18          0.700              1.653              1.357
 Vibration    19          0.718              1.600              1.223
 Vibration    20          0.734              1.557              1.127
 Vibration    21          0.768              1.464              0.953
 Vibration    22          0.807              1.366              0.802
 Vibration    23          0.858              1.244              0.651
 Vibration    24          0.904              1.141              0.546
 Vibration    25          0.950              1.047              0.462

                           ! Non-Optimized Parameters !
 Normal termination of Gaussian 16 at Fri Dec 11 01:35:19 2020.

 ----------------------------------------------------------------------
 # B3LYP/6-311++G(d,p) empiricaldispersion=gd3bj scf=xqc pop=npa geom=c
 heck
 ----------------------------------------------------------------------

 ---------------------------------------
 CID_133719499_JID_6906_Energie_neutraal
 ---------------------------------------
 Structure from the checkpoint file:  "JID_6906.chk"
 Charge =  0 Multiplicity = 1

 SCF Done:  E(RB3LYP) =  -713.499096105     A.U. after   14 cycles
 Normal termination of Gaussian 16 at Fri Dec 11 01:40:38 2020.

 ----------------------------------------------------------------------
 # B3LYP/6-311++G(d,p) empiricaldispersion=gd3bj scf=xqc pop=npa geom=c
 heck
 ----------------------------------------------------------------------

 -------------------------------------
 CID_133719499_JID_6906_Energie_kation
 -------------------------------------
 Structure from the checkpoint file:  "JID_6906.chk"
 Charge =  1 Multiplicity = 2

 SCF Done:  E(UB3LYP) =  -713.205843755     A.U. after   26 cycles
 Normal termination of Gaussian 16 at Fri Dec 11 01:53:20 2020.
 Gaussian 16:  ES64L-G16RevA.03 25-Dec-2016

 ----------------------------------------------------------------------
 # B3LYP/6-311++G(d,p) empiricaldispersion=gd3bj scf=xqc pop=npa geom=c
 heck
 ----------------------------------------------------------------------

 ------------------------------------
 CID_133719499_JID_6906_Energie_anion
 ------------------------------------
 Structure from the checkpoint file:  "JID_6906.chk"
 Charge = -1 Multiplicity = 2

                         Standard orientation:
 ---------------------------------------------------------------------
 Center     Atomic      Atomic             Coordinates (Angstroms)
 Number     Number       Type             X           Y           Z
 ---------------------------------------------------------------------
      1          6           0       -4.179548   -1.037698    1.306108
      2          6           0       -2.792247   -0.933821    0.663357
      3          6           0       -2.597202    0.400600   -0.083742
      4          6           0       -2.339044    1.618618    0.836023
      5          6           0       -1.035781    1.582824    1.637879
      6          6           0       -1.628744    0.415783   -1.276695
      7          8           0       -1.811165    1.224899   -2.180302
      8          7           0       -0.627651   -0.529608   -1.406158
      9          6           0        0.243730   -1.061577   -0.359866
     10          6           0        0.539702   -2.547270   -0.600319
     11          6           0        1.496058   -0.232280   -0.303819
     12          6           0        1.858002    0.949242   -0.880620
     13          6           0        3.189878    1.232147   -0.420954
     14          6           0        3.550359    0.208351    0.402327
     15          8           0        2.519095   -0.697809    0.481392
     16          6           0        4.773301   -0.104975    1.187314
     17          1           0       -4.345091   -0.239917    2.038706
     18          1           0       -4.301050   -1.994156    1.826143
     19          1           0       -4.969420   -0.963574    0.549413
     20          1           0       -2.037614   -1.065392    1.446770
     21          1           0       -2.656623   -1.764458   -0.039492
     22          1           0       -3.547240    0.615372   -0.589484
     23          1           0       -2.352151    2.511568    0.201443
     24          1           0       -3.188191    1.713595    1.523856
     25          1           0       -0.948752    2.478865    2.262114
     26          1           0       -0.988219    0.717022    2.308600
     27          1           0       -0.157805    1.551647    0.984395
     28          1           0       -0.143593   -0.390315   -2.289346
     29          1           0       -0.280099   -0.964600    0.592281
     30          1           0        1.219313   -2.931407    0.165337
     31          1           0       -0.391782   -3.119935   -0.575841
     32          1           0        1.011639   -2.690446   -1.578589
     33          1           0        1.246681    1.550968   -1.538535
     34          1           0        3.798560    2.088995   -0.673935
     35          1           0        4.555856   -0.176673    2.260142
     36          1           0        5.217577   -1.058870    0.877344
     37          1           0        5.517336    0.682583    1.041106
 ---------------------------------------------------------------------

 SCF Done:  E(UB3LYP) =  -713.487793203     A.U. after   31 cycles

 The electronic state is 2-A.
 Alpha  occ. eigenvalues --  -19.09414 -19.00102 -14.24698 -10.18433 -10.14061
 Alpha  occ. eigenvalues --  -10.13675 -10.13521 -10.09417 -10.08332 -10.08203
 Alpha  occ. eigenvalues --  -10.08129 -10.08040 -10.07784 -10.07719 -10.07192
 Alpha  occ. eigenvalues --  -10.06707  -1.01859  -0.95238  -0.84039  -0.72789
 Alpha  occ. eigenvalues --   -0.71133  -0.70588  -0.66726  -0.66361  -0.60961
 Alpha  occ. eigenvalues --   -0.59931  -0.54700  -0.53891  -0.51933  -0.50693
 Alpha  occ. eigenvalues --   -0.47066  -0.46157  -0.43505  -0.40166  -0.38601
 Alpha  occ. eigenvalues --   -0.37924  -0.37528  -0.35909  -0.35516  -0.33895
 Alpha  occ. eigenvalues --   -0.33497  -0.33083  -0.32531  -0.31530  -0.31304
 Alpha  occ. eigenvalues --   -0.31267  -0.30326  -0.29348  -0.29051  -0.28826
 Alpha  occ. eigenvalues --   -0.28109  -0.27786  -0.27061  -0.26095  -0.25024
 Alpha  occ. eigenvalues --   -0.23504  -0.23311  -0.19279  -0.18286  -0.16235
 Alpha  occ. eigenvalues --   -0.13034   0.03945
 Alpha virt. eigenvalues --    0.05518   0.06772   0.07444   0.07554   0.07874
 Alpha virt. eigenvalues --    0.08716   0.09081   0.09427   0.09462   0.09953
 Alpha virt. eigenvalues --    0.10352   0.10559   0.10810   0.11491   0.12351

  Beta  occ. eigenvalues --  -19.09399 -19.00087 -14.24699 -10.18418 -10.14057
  Beta  occ. eigenvalues --  -10.13670 -10.13518 -10.09415 -10.08284 -10.08192
  Beta  occ. eigenvalues --  -10.08111 -10.08036 -10.07755 -10.07707 -10.07158
  Beta  occ. eigenvalues --  -10.06686  -1.01838  -0.95211  -0.84029  -0.72764
  Beta  occ. eigenvalues --   -0.71113  -0.70566  -0.66689  -0.66327  -0.60920
  Beta  occ. eigenvalues --   -0.59876  -0.54654  -0.53839  -0.51893  -0.50653
  Beta  occ. eigenvalues --   -0.47039  -0.46131  -0.43476  -0.40136  -0.38572
  Beta  occ. eigenvalues --   -0.37897  -0.37498  -0.35878  -0.35485  -0.33862
  Beta  occ. eigenvalues --   -0.33459  -0.33059  -0.32498  -0.31495  -0.31261
  Beta  occ. eigenvalues --   -0.31228  -0.30292  -0.29303  -0.29018  -0.28795
  Beta  occ. eigenvalues --   -0.28076  -0.27750  -0.27030  -0.26060  -0.25001
  Beta  occ. eigenvalues --   -0.23474  -0.23289  -0.19258  -0.18266  -0.16215
  Beta  occ. eigenvalues --   -0.13001
  Beta virt. eigenvalues --    0.05955   0.06504   0.07246   0.07816   0.07884
  Beta virt. eigenvalues --    0.08285   0.08939   0.09334   0.09663   0.09723
  Beta virt. eigenvalues --    0.10316   0.10597   0.10922   0.11152   0.11850

 Mulliken charges and spin densities:
               1          2
     1  C    1.208360  -1.946034
     2  C   -1.206826   0.809305
     3  C    0.562021   0.109642
     4  C   -0.297657  -0.144975
     5  C   -0.326449  -0.233724
     6  C   -0.125357  -0.134247
     7  O   -0.293865   0.010470
     8  N    0.023498  -0.023614
     9  C   -0.207709   0.226116
    10  C    0.654734  -1.211263
    11  C   -0.328470  -0.009251
    12  C   -0.329041   0.204573
    13  C   -0.086676  -0.093976
    14  C   -1.349439   1.471406
    15  O    0.025441   0.047001
    16  C    2.021936  -2.634661
    17  H   -0.063432   0.203542
    18  H   -0.419678   0.567902
    19  H   -0.084052   0.214938
    20  H   -0.155934   0.281821
    21  H    0.264693  -0.105140
    22  H    0.137086   0.092898
    23  H    0.138315   0.026232
    24  H    0.025356   0.116709
    25  H   -0.162843   0.323790
    26  H   -0.112298   0.268643
    27  H    0.443255  -0.279703
    28  H    0.277243   0.008771
    29  H    0.439530  -0.171033
    30  H   -0.050208   0.216492
    31  H   -0.226002   0.401665
    32  H   -0.075280   0.212898
    33  H    0.079602   0.105757
    34  H   -0.356607   0.536738
    35  H   -0.322402   0.485908
    36  H   -0.212395   0.367119
    37  H   -0.508449   0.677286
 Sum of Mulliken charges =  -1.00000   1.00000

 Dipole moment (field-independent basis, Debye):
    X=             -2.5053    Y=              1.1331    Z=             -3.0865  Tot=              4.1336
 Quadrupole moment (field-independent basis, Debye-Ang):
   XX=           -197.9449   YY=           -143.2391   ZZ=           -144.2163
   XY=             -6.5302   XZ=             -5.1299   YZ=              6.1958

 Summary of Natural Population Analysis:

                                       Natural Population
                Natural  -----------------------------------------------
    Atom  No    Charge         Core      Valence    Rydberg      Total
 -----------------------------------------------------------------------
      C    1   -0.28255      0.99966     2.27758    0.00531     3.28255
      C    2   -0.19660      0.99962     2.18780    0.00918     3.19660
      C    3   -0.15048      0.99953     2.13993    0.01102     3.15048
      C    4   -0.18652      0.99961     2.17832    0.00859     3.18652
      C    5   -0.29279      0.99966     2.28801    0.00512     3.29279
      C    6    0.35864      0.99963     1.61874    0.02299     2.64136
      O    7   -0.32413      0.99988     3.31863    0.00561     4.32413
      N    8   -0.32164      0.99967     2.81207    0.00990     3.82164
      C    9   -0.03845      0.99953     2.02676    0.01216     3.03845
      C   10   -0.28175      0.99965     2.27616    0.00595     3.28175
      C   11    0.14607      0.99943     1.83895    0.01555     2.85393
      C   12   -0.15262      0.99948     2.14476    0.00838     3.15262
      C   13   -0.15195      0.99949     2.14292    0.00954     3.15195
      C   14    0.15570      0.99947     1.82982    0.01501     2.84430
      O   15   -0.24242      0.99985     3.23398    0.00859     4.24242
      C   16   -0.30441      0.99963     2.29966    0.00512     3.30441
      H   17    0.09673      0.00000     0.40214    0.00113     0.40327
      H   18    0.10283      0.00000     0.39601    0.00116     0.39717
      H   19    0.09489      0.00000     0.40420    0.00092     0.40511
      H   20    0.09628      0.00000     0.40201    0.00172     0.40372
      H   21    0.10142      0.00000     0.39711    0.00147     0.39858
      H   22    0.11225      0.00000     0.38606    0.00170     0.38775
      H   23    0.10259      0.00000     0.39638    0.00103     0.39741
      H   24    0.09678      0.00000     0.40223    0.00099     0.40322
      H   25    0.10072      0.00000     0.39854    0.00073     0.39928
      H   26    0.09693      0.00000     0.40184    0.00122     0.40307
      H   27    0.10193      0.00000     0.39649    0.00158     0.39807
      H   28    0.19086      0.00000     0.30675    0.00239     0.30914
      H   29    0.11090      0.00000     0.38565    0.00344     0.38910
      H   30    0.10824      0.00000     0.39037    0.00138     0.39176
      H   31    0.10341      0.00000     0.39535    0.00124     0.39659
      H   32    0.09862      0.00000     0.40029    0.00109     0.40138
      H   33    0.11403      0.00000     0.38495    0.00103     0.38597
      H   34    0.10910      0.00000     0.39004    0.00086     0.39090
      H   35    0.10950      0.00000     0.38852    0.00198     0.39050
      H   36    0.10756      0.00000     0.39078    0.00166     0.39244
      H   37    0.11032      0.00000     0.38772    0.00196     0.38968
 =======================================================================
   * Total *   -0.00000     15.99379    44.81751    0.18869    61.00000

 Normal termination of Gaussian 16 at Fri Dec 11 02:08:21 2020.
