 Gaussian 16, Revision A.03,

 -----------------------------------------------------------
 # opt freq B3LYP/6-31G(d) empiricaldispersion=gd3bj scf=xqc
 -----------------------------------------------------------

 ------------------------------
 CID_84122398_JID_5687_neutraal
 ------------------------------
 Symbolic Z-matrix:
 Charge =  0 Multiplicity = 1

 SCF Done:  E(RB3LYP) =  -671.301970593     A.U. after   14 cycles
 SCF Done:  E(RB3LYP) =  -671.308303620     A.U. after   12 cycles
 SCF Done:  E(RB3LYP) =  -671.309174640     A.U. after   12 cycles
 SCF Done:  E(RB3LYP) =  -671.309733312     A.U. after   12 cycles
 SCF Done:  E(RB3LYP) =  -671.310455985     A.U. after   12 cycles
 SCF Done:  E(RB3LYP) =  -671.311084523     A.U. after   13 cycles
 SCF Done:  E(RB3LYP) =  -671.311738649     A.U. after   12 cycles
 SCF Done:  E(RB3LYP) =  -671.312012430     A.U. after   12 cycles
 SCF Done:  E(RB3LYP) =  -671.312310745     A.U. after   12 cycles
 SCF Done:  E(RB3LYP) =  -671.312687190     A.U. after   11 cycles
 SCF Done:  E(RB3LYP) =  -671.314742218     A.U. after   10 cycles
 SCF Done:  E(RB3LYP) =  -671.314745833     A.U. after    8 cycles
 SCF Done:  E(RB3LYP) =  -671.314748367     A.U. after    8 cycles
 SCF Done:  E(RB3LYP) =  -671.314749382     A.U. after    8 cycles
 SCF Done:  E(RB3LYP) =  -671.314749712     A.U. after    8 cycles
 SCF Done:  E(RB3LYP) =  -671.314749777     A.U. after    6 cycles
 Optimization completed.
    -- Stationary point found.
 Normal termination of Gaussian 16 at Thu Dec 10 16:59:33 2020.

 --------------------------------------------------------------------
 #N Geom=AllCheck Guess=TCheck SCRF=Check GenChk RB3LYP/6-31G(d) Freq
 --------------------------------------------------------------------

 Structure from the checkpoint file:  "JID_5687.chk"
 ------------------------------
 CID_84122398_JID_5687_neutraal
 ------------------------------
 Charge =  0 Multiplicity = 1

 SCF Done:  E(RB3LYP) =  -671.314749777     A.U. after    1 cycles

  Exact polarizability: 149.487   1.651 133.915   4.869   4.030 114.478
 Approx polarizability: 190.208   4.840 194.812   8.424  14.356 175.027

                      1                      2                      3
                      A                      A                      A
 Frequencies --     33.6261                58.7062                73.0237
 Red. masses --      3.6249                 3.5615                 3.4472
 Frc consts  --      0.0024                 0.0072                 0.0108
 IR Inten    --      0.2107                 1.7895                 0.7763

                      4                      5                      6
                      A                      A                      A
 Frequencies --     97.9297               112.9546               144.5497
 Red. masses --      3.7694                 2.8315                 1.9817
 Frc consts  --      0.0213                 0.0213                 0.0244
 IR Inten    --      0.1149                 0.0741                 0.6699

                      7                      8                      9
                      A                      A                      A
 Frequencies --    150.7108               172.6249               184.3504
 Red. masses --      3.1319                 2.7598                 3.1337
 Frc consts  --      0.0419                 0.0485                 0.0627
 IR Inten    --      1.3208                 0.7672                 2.3036

                     10                     11                     12
                      A                      A                      A
 Frequencies --    210.2433               220.7219               264.4134
 Red. masses --      3.5607                 1.9609                 1.3308
 Frc consts  --      0.0927                 0.0563                 0.0548
 IR Inten    --      4.0556                 0.5184                 0.6767

                     13                     14                     15
                      A                      A                      A
 Frequencies --    280.8521               302.9486               313.3985
 Red. masses --      1.5505                 2.0837                 2.5556
 Frc consts  --      0.0721                 0.1127                 0.1479
 IR Inten    --      1.3497                 3.1591                 0.3803

                     16                     17                     18
                      A                      A                      A
 Frequencies --    365.3430               371.5430               418.2085
 Red. masses --      2.6175                 2.5758                 3.3641
 Frc consts  --      0.2058                 0.2095                 0.3467
 IR Inten    --      3.0183                 1.0598                 6.9580

                     19                     20                     21
                      A                      A                      A
 Frequencies --    424.9622               507.6685               516.3068
 Red. masses --      3.8664                 2.9997                 2.7059
 Frc consts  --      0.4114                 0.4555                 0.4250
 IR Inten    --      7.7980                 1.8340                 4.2482

                     22                     23                     24
                      A                      A                      A
 Frequencies --    541.9759               597.1672               616.4723
 Red. masses --      3.9210                 3.0158                 1.4830
 Frc consts  --      0.6786                 0.6337                 0.3321
 IR Inten    --      2.7717                15.4474                64.1451

                     25                     26                     27
                      A                      A                      A
 Frequencies --    685.6144               719.7767               776.3721
 Red. masses --      2.8147                 3.6904                 1.9162
 Frc consts  --      0.7795                 1.1265                 0.6805
 IR Inten    --     10.0268                19.8260                10.9354

                     28                     29                     30
                      A                      A                      A
 Frequencies --    796.7081               803.2468               832.7489
 Red. masses --      1.3086                 1.2780                 1.7012
 Frc consts  --      0.4894                 0.4858                 0.6951
 IR Inten    --     31.6420                47.7067                 6.3651

                     31                     32                     33
                      A                      A                      A
 Frequencies --    852.2766               856.4310               901.0922
 Red. masses --      2.6017                 1.7790                 2.2711
 Frc consts  --      1.1135                 0.7688                 1.0865
 IR Inten    --      4.0856                 7.9612                 6.7132

                     34                     35                     36
                      A                      A                      A
 Frequencies --    914.6566               934.0575               954.0559
 Red. masses --      2.1459                 2.2534                 2.0921
 Frc consts  --      1.0578                 1.1583                 1.1219
 IR Inten    --     10.0700                11.7213                 2.1649

                     37                     38                     39
                      A                      A                      A
 Frequencies --    974.2381              1021.2977              1036.8069
 Red. masses --      2.5460                 1.7208                 2.0288
 Frc consts  --      1.4238                 1.0575                 1.2850
 IR Inten    --      1.2205                 7.1741                 9.7318

                     40                     41                     42
                      A                      A                      A
 Frequencies --   1060.9175              1062.7761              1072.2268
 Red. masses --      1.3535                 1.8074                 1.8833
 Frc consts  --      0.8976                 1.2028                 1.2757
 IR Inten    --     10.5952                 9.7949                25.7141

                     43                     44                     45
                      A                      A                      A
 Frequencies --   1088.4274              1093.7525              1109.0738
 Red. masses --      1.4304                 2.1453                 1.9200
 Frc consts  --      0.9984                 1.5121                 1.3915
 IR Inten    --      2.3286                19.3667                19.1242

                     46                     47                     48
                      A                      A                      A
 Frequencies --   1139.3058              1146.4392              1154.5576
 Red. masses --      1.7438                 1.8192                 1.1687
 Frc consts  --      1.3336                 1.4088                 0.9179
 IR Inten    --      1.1757                 7.8539                 0.6019

                     49                     50                     51
                      A                      A                      A
 Frequencies --   1160.9342              1177.6821              1197.4049
 Red. masses --      2.2513                 1.6064                 1.9378
 Frc consts  --      1.7877                 1.3127                 1.6370
 IR Inten    --     19.6091                11.2897                10.8415

                     52                     53                     54
                      A                      A                      A
 Frequencies --   1211.4654              1219.3248              1239.8378
 Red. masses --      1.3568                 2.2747                 2.1376
 Frc consts  --      1.1732                 1.9926                 1.9360
 IR Inten    --      1.1327                 7.5084                53.8459

                     55                     56                     57
                      A                      A                      A
 Frequencies --   1264.6979              1269.7424              1301.5782
 Red. masses --      1.5477                 1.7944                 1.2747
 Frc consts  --      1.4585                 1.7046                 1.2723
 IR Inten    --     11.7701                 6.9238                15.2075

                     58                     59                     60
                      A                      A                      A
 Frequencies --   1307.0049              1335.8689              1350.0363
 Red. masses --      1.5080                 1.3638                 2.4111
 Frc consts  --      1.5178                 1.4339                 2.5892
 IR Inten    --      5.2777                 5.1302               104.5240

                     61                     62                     63
                      A                      A                      A
 Frequencies --   1361.5415              1388.5258              1402.1389
 Red. masses --      1.5199                 1.3085                 1.3469
 Frc consts  --      1.6600                 1.4864                 1.5602
 IR Inten    --     61.5729                 8.4685                 1.9047

                     64                     65                     66
                      A                      A                      A
 Frequencies --   1413.3342              1417.3269              1422.5106
 Red. masses --      1.3708                 1.5276                 1.4916
 Frc consts  --      1.6132                 1.8080                 1.7783
 IR Inten    --     25.7297                28.3409                22.4969

                     67                     68                     69
                      A                      A                      A
 Frequencies --   1434.1083              1446.2064              1481.4717
 Red. masses --      1.2791                 1.5256                 1.0930
 Frc consts  --      1.5499                 1.8800                 1.4133
 IR Inten    --     13.8009                25.1632                 1.6929

                     70                     71                     72
                      A                      A                      A
 Frequencies --   1483.4361              1500.3407              1505.5610
 Red. masses --      1.1846                 1.7114                 1.1291
 Frc consts  --      1.5359                 2.2697                 1.5079
 IR Inten    --      0.3962                27.1814                10.4367

                     73                     74                     75
                      A                      A                      A
 Frequencies --   1515.4605              1521.0167              1524.3208
 Red. masses --      1.0796                 1.0703                 1.3231
 Frc consts  --      1.4609                 1.4589                 1.8114
 IR Inten    --     19.0052                 5.2752                 7.2467

                     76                     77                     78
                      A                      A                      A
 Frequencies --   1526.5982              1539.8581              1543.2041
 Red. masses --      1.1699                 1.0946                 1.1246
 Frc consts  --      1.6064                 1.5292                 1.5780
 IR Inten    --      3.0384                13.8085                 8.0775

                     79                     80                     81
                      A                      A                      A
 Frequencies --   1547.6841              1554.1918              1791.8458
 Red. masses --      1.0798                 1.0807                 8.4450
 Frc consts  --      1.5240                 1.5380                15.9754
 IR Inten    --     14.9456                 3.0134               314.9390

                     82                     83                     84
                      A                      A                      A
 Frequencies --   2924.6855              2935.7339              3020.6201
 Red. masses --      1.0719                 1.0645                 1.0670
 Frc consts  --      5.4020                 5.4056                 5.7358
 IR Inten    --     45.1510               128.3604                54.3625

                     85                     86                     87
                      A                      A                      A
 Frequencies --   3043.0523              3053.8553              3067.8495
 Red. masses --      1.0842                 1.0393                 1.0818
 Frc consts  --      5.9155                 5.7108                 5.9989
 IR Inten    --     43.6946                13.5988                11.0504

                     88                     89                     90
                      A                      A                      A
 Frequencies --   3070.2514              3073.0491              3080.3305
 Red. masses --      1.0706                 1.0842                 1.0807
 Frc consts  --      5.9459                 6.0326                 6.0417
 IR Inten    --     64.4809                19.6163                12.4106

                     91                     92                     93
                      A                      A                      A
 Frequencies --   3081.7890              3082.4489              3117.8103
 Red. masses --      1.0767                 1.0882                 1.1025
 Frc consts  --      6.0250                 6.0920                 6.3144
 IR Inten    --     57.7070                32.7808                31.4060

                     94                     95                     96
                      A                      A                      A
 Frequencies --   3118.7615              3125.4545              3145.5419
 Red. masses --      1.1006                 1.1026                 1.1010
 Frc consts  --      6.3072                 6.3461                 6.4184
 IR Inten    --     53.1126                12.2757                21.3662

                     97                     98                     99
                      A                      A                      A
 Frequencies --   3150.1698              3155.7020              3230.7383
 Red. masses --      1.0512                 1.0584                 1.1196
 Frc consts  --      6.1460                 6.2101                 6.8852
 IR Inten    --     16.4045                 8.0141                 0.4613

                    100                    101                    102
                      A                      A                      A
 Frequencies --   3244.0199              3530.0282              3583.3009
 Red. masses --      1.1168                 1.0727                 1.0758
 Frc consts  --      6.9244                 7.8756                 8.1388
 IR Inten    --     19.8651                 5.4517                18.1399

 - Thermochemistry -
 -------------------
 Temperature   298.150 Kelvin.  Pressure   1.00000 Atm.
 Atom     1 has atomic number  6 and mass  12.00000

 Molecular mass:   211.16846 amu.
 Principal axes and moments of inertia in atomic units:
                           1         2         3
     Eigenvalues --  2380.745343739.102604667.07315
           X            0.99955   0.02823   0.00978
           Y           -0.02788   0.99904  -0.03371
           Z           -0.01072   0.03343   0.99938
 This molecule is an asymmetric top.
 Rotational symmetry number  1.
 Warning -- assumption of classical behavior for rotation
           may cause significant error
 Rotational temperatures (Kelvin)      0.03638     0.02316     0.01856
 Rotational constants (GHZ):           0.75806     0.48267     0.38670
 Zero-point vibrational energy     850299.7 (Joules/Mol)
                                  203.22651 (Kcal/Mol)
 Warning -- explicit consideration of  24 degrees of freedom as
           vibrations may cause significant error
 Vibrational temperatures:     48.38    84.47   105.06   140.90   162.52
          (Kelvin)            207.97   216.84   248.37   265.24   302.49
                              317.57   380.43   404.08   435.88   450.91
                              525.65   534.57   601.71   611.43   730.42
                              742.85   779.78   859.19   886.97   986.45
                             1035.60  1117.03  1146.29  1155.69  1198.14
                             1226.24  1232.21  1296.47  1315.99  1343.90
                             1372.67  1401.71  1469.42  1491.73  1526.42
                             1529.10  1542.70  1566.00  1573.67  1595.71
                             1639.21  1649.47  1661.15  1670.33  1694.42
                             1722.80  1743.03  1754.34  1783.85  1819.62
                             1826.88  1872.68  1880.49  1922.02  1942.40
                             1958.95  1997.78  2017.37  2033.47  2039.22
                             2046.68  2063.36  2080.77  2131.51  2134.33
                             2158.66  2166.17  2180.41  2188.40  2193.16
                             2196.43  2215.51  2220.33  2226.77  2236.14
                             2578.07  4207.97  4223.87  4346.00  4378.27
                             4393.82  4413.95  4417.41  4421.43  4431.91
                             4434.01  4434.96  4485.83  4487.20  4496.83
                             4525.73  4532.39  4540.35  4648.31  4667.42
                             5078.92  5155.57

 Zero-point correction=                           0.323862 (Hartree/Particle)
 Thermal correction to Energy=                    0.339577
 Thermal correction to Enthalpy=                  0.340521
 Thermal correction to Gibbs Free Energy=         0.280963
 Sum of electronic and zero-point Energies=           -670.990888
 Sum of electronic and thermal Energies=              -670.975173
 Sum of electronic and thermal Enthalpies=            -670.974229
 Sum of electronic and thermal Free Energies=         -671.033787

                     E (Thermal)             CV                S
                      KCal/Mol        Cal/Mol-Kelvin    Cal/Mol-Kelvin
 Total                  213.088             59.917            125.351
 Electronic               0.000              0.000              0.000
 Translational            0.889              2.981             41.946
 Rotational               0.889              2.981             32.097
 Vibrational            211.310             53.955             51.308
 Vibration     1          0.594              1.983              5.603
 Vibration     2          0.596              1.974              4.500
 Vibration     3          0.599              1.967              4.070
 Vibration     4          0.603              1.951              3.495
 Vibration     5          0.607              1.939              3.217
 Vibration     6          0.616              1.909              2.743
 Vibration     7          0.618              1.902              2.663
 Vibration     8          0.626              1.876              2.407
 Vibration     9          0.631              1.861              2.284
 Vibration    10          0.642              1.825              2.042
 Vibration    11          0.647              1.810              1.953
 Vibration    12          0.671              1.738              1.632
 Vibration    13          0.681              1.709              1.528
 Vibration    14          0.694              1.668              1.401
 Vibration    15          0.701              1.648              1.344
 Vibration    16          0.739              1.544              1.099
 Vibration    17          0.743              1.531              1.073
 Vibration    18          0.781              1.431              0.898
 Vibration    19          0.787              1.416              0.875
 Vibration    20          0.863              1.233              0.639
 Vibration    21          0.871              1.214              0.619
 Vibration    22          0.897              1.157              0.561
 Vibration    23          0.955              1.038              0.455
 Vibration    24          0.976              0.997              0.422

                           ! Non-Optimized Parameters !
 Normal termination of Gaussian 16 at Thu Dec 10 17:14:23 2020.

 ----------------------------------------------------------------------
 # B3LYP/6-311++G(d,p) empiricaldispersion=gd3bj scf=xqc pop=npa geom=c
 heck
 ----------------------------------------------------------------------

 --------------------------------------
 CID_84122398_JID_5687_Energie_neutraal
 --------------------------------------
 Structure from the checkpoint file:  "JID_5687.chk"
 Charge =  0 Multiplicity = 1

 SCF Done:  E(RB3LYP) =  -671.509759081     A.U. after   14 cycles
 Normal termination of Gaussian 16 at Thu Dec 10 17:23:25 2020.

 ----------------------------------------------------------------------
 # B3LYP/6-311++G(d,p) empiricaldispersion=gd3bj scf=xqc pop=npa geom=c
 heck
 ----------------------------------------------------------------------

 ------------------------------------
 CID_84122398_JID_5687_Energie_kation
 ------------------------------------
 Structure from the checkpoint file:  "JID_5687.chk"
 Charge =  1 Multiplicity = 2

 SCF Done:  E(UB3LYP) =  -671.228889607     A.U. after   24 cycles
 Normal termination of Gaussian 16 at Thu Dec 10 17:37:41 2020.
 Gaussian 16:  ES64L-G16RevA.03 25-Dec-2016

 ----------------------------------------------------------------------
 # B3LYP/6-311++G(d,p) empiricaldispersion=gd3bj scf=xqc pop=npa geom=c
 heck
 ----------------------------------------------------------------------

 -----------------------------------
 CID_84122398_JID_5687_Energie_anion
 -----------------------------------
 Structure from the checkpoint file:  "JID_5687.chk"
 Charge = -1 Multiplicity = 2

                         Standard orientation:
 ---------------------------------------------------------------------
 Center     Atomic      Atomic             Coordinates (Angstroms)
 Number     Number       Type             X           Y           Z
 ---------------------------------------------------------------------
      1          6           0        1.374439    0.500028    2.254357
      2          6           0        1.509727    1.075013    0.832633
      3          6           0        2.834679    0.687116    0.170517
      4          7           0        2.769931   -0.684112   -0.320323
      5          6           0        1.658026   -1.296773   -0.830792
      6          8           0        1.729520   -2.352949   -1.446671
      7          6           0        0.301941   -0.665007   -0.501161
      8          7           0        0.447646    0.737011   -0.108830
      9          6           0       -0.714489    1.568831   -0.094694
     10          6           0       -0.573381    2.960072   -0.661549
     11          6           0       -1.344864    1.914004   -1.424889
     12          6           0       -0.420014   -1.662919    0.453096
     13          6           0       -1.816216   -1.266499    0.929583
     14          7           0       -2.739044   -1.050993   -0.176642
     15          6           0       -4.058431   -0.630403    0.271301
     16          1           0        2.068573    1.006724    2.935182
     17          1           0        1.602990   -0.568677    2.280177
     18          1           0        0.358885    0.645089    2.636175
     19          1           0        1.500145    2.167364    0.910831
     20          1           0        3.037933    1.383732   -0.655232
     21          1           0        3.659662    0.760537    0.888203
     22          1           0        3.633671   -1.131459   -0.604463
     23          1           0       -0.249512   -0.670796   -1.447798
     24          1           0       -1.407585    1.479690    0.746002
     25          1           0       -1.122146    3.767213   -0.185194
     26          1           0        0.401708    3.234719   -1.051932
     27          1           0       -0.875376    1.503744   -2.313638
     28          1           0       -2.426630    2.001168   -1.477236
     29          1           0       -0.483966   -2.606545   -0.097207
     30          1           0        0.204004   -1.848256    1.333001
     31          1           0       -2.214704   -2.089916    1.537882
     32          1           0       -1.751441   -0.395415    1.610884
     33          1           0       -2.359198   -0.333320   -0.787985
     34          1           0       -4.051770    0.270440    0.916182
     35          1           0       -4.695030   -0.426711   -0.595980
     36          1           0       -4.524607   -1.439848    0.845670
 ---------------------------------------------------------------------

 SCF Done:  E(UB3LYP) =  -671.499591268     A.U. after   32 cycles

 The electronic state is 2-A.
 Alpha  occ. eigenvalues --  -18.99152 -14.24154 -14.21510 -14.20628 -10.17641
 Alpha  occ. eigenvalues --  -10.11859 -10.11416 -10.11108 -10.10987 -10.10014
 Alpha  occ. eigenvalues --  -10.09778 -10.08593 -10.08073 -10.07421 -10.06193
 Alpha  occ. eigenvalues --   -0.94437  -0.85803  -0.82184  -0.81422  -0.75383
 Alpha  occ. eigenvalues --   -0.69684  -0.65922  -0.61182  -0.59778  -0.56395
 Alpha  occ. eigenvalues --   -0.53989  -0.51546  -0.50454  -0.48733  -0.44760
 Alpha  occ. eigenvalues --   -0.43354  -0.41430  -0.39563  -0.39044  -0.38171
 Alpha  occ. eigenvalues --   -0.38059  -0.36017  -0.35571  -0.33358  -0.32914
 Alpha  occ. eigenvalues --   -0.31971  -0.31577  -0.31042  -0.30035  -0.29129
 Alpha  occ. eigenvalues --   -0.28737  -0.28005  -0.27367  -0.26656  -0.25163
 Alpha  occ. eigenvalues --   -0.24674  -0.23728  -0.22120  -0.20474  -0.16887
 Alpha  occ. eigenvalues --   -0.15868  -0.13971  -0.11868   0.04036
 Alpha virt. eigenvalues --    0.05806   0.07076   0.07269   0.08285   0.08614
 Alpha virt. eigenvalues --    0.08765   0.09681   0.10236   0.10596   0.10802
 Alpha virt. eigenvalues --    0.10981   0.11744   0.12231   0.12269   0.13231

  Beta  occ. eigenvalues --  -18.99147 -14.24142 -14.21507 -14.20623 -10.17640
  Beta  occ. eigenvalues --  -10.11857 -10.11406 -10.11097 -10.10949 -10.10004
  Beta  occ. eigenvalues --  -10.09755 -10.08584 -10.08047 -10.07418 -10.06159
  Beta  occ. eigenvalues --   -0.94426  -0.85785  -0.82161  -0.81409  -0.75361
  Beta  occ. eigenvalues --   -0.69661  -0.65894  -0.61156  -0.59714  -0.56357
  Beta  occ. eigenvalues --   -0.53944  -0.51504  -0.50418  -0.48692  -0.44726
  Beta  occ. eigenvalues --   -0.43318  -0.41401  -0.39526  -0.38992  -0.38141
  Beta  occ. eigenvalues --   -0.38024  -0.35993  -0.35542  -0.33331  -0.32877
  Beta  occ. eigenvalues --   -0.31948  -0.31551  -0.31007  -0.30009  -0.29102
  Beta  occ. eigenvalues --   -0.28704  -0.27979  -0.27339  -0.26636  -0.25144
  Beta  occ. eigenvalues --   -0.24641  -0.23702  -0.22096  -0.20452  -0.16873
  Beta  occ. eigenvalues --   -0.15848  -0.13940  -0.11849
  Beta virt. eigenvalues --    0.06198   0.06946   0.07462   0.07972   0.08720
  Beta virt. eigenvalues --    0.08920   0.09433   0.10131   0.10367   0.10878
  Beta virt. eigenvalues --    0.11103   0.11216   0.12002   0.12670   0.12795

 Mulliken charges and spin densities:
               1          2
     1  C    1.223864  -1.854957
     2  C   -1.549122   1.627490
     3  C    1.690295  -2.221022
     4  N   -0.409825   0.167930
     5  C   -1.017183   0.810544
     6  O   -0.337909   0.004979
     7  C    0.824619  -0.849144
     8  N    0.359863  -0.039445
     9  C   -1.161745   1.095038
    10  C    1.583129  -2.110448
    11  C   -0.517325   0.179910
    12  C   -0.414613   0.026136
    13  C   -0.263516  -0.051972
    14  N   -0.143081   0.059520
    15  C    0.396992  -0.758701
    16  H   -0.346248   0.512040
    17  H    0.048353   0.126911
    18  H   -0.368452   0.510591
    19  H   -0.515540   0.718138
    20  H   -0.286435   0.469472
    21  H   -0.620155   0.808825
    22  H   -0.012999   0.340246
    23  H    0.301429  -0.080095
    24  H    0.344968  -0.111943
    25  H   -0.534179   0.696836
    26  H    0.235525  -0.089751
    27  H    0.042658   0.119352
    28  H    0.095489   0.054402
    29  H    0.230397  -0.011970
    30  H    0.099513  -0.004032
    31  H   -0.016994   0.202275
    32  H    0.213480  -0.135239
    33  H    0.215453   0.014350
    34  H   -0.315027   0.447356
    35  H   -0.045640   0.173933
    36  H   -0.030038   0.152444
 Sum of Mulliken charges =  -1.00000   1.00000

 Dipole moment (field-independent basis, Debye):
    X=             -3.0530    Y=             -2.6726    Z=             -2.2015  Tot=              4.6163
 Quadrupole moment (field-independent basis, Debye-Ang):
   XX=           -166.1006   YY=           -150.7023   ZZ=           -133.0393
   XY=             -0.6875   XZ=             -2.2183   YZ=            -12.7216

 Summary of Natural Population Analysis:

                                       Natural Population
                Natural  -----------------------------------------------
    Atom  No    Charge         Core      Valence    Rydberg      Total
 -----------------------------------------------------------------------
      C    1   -0.29500      0.99964     2.28947    0.00589     3.29500
      C    2   -0.00922      0.99958     1.99437    0.01528     3.00922
      C    3   -0.08052      0.99958     2.06933    0.01161     3.08052
      N    4   -0.31708      0.99966     2.80737    0.01005     3.81708
      C    5    0.34796      0.99964     1.62876    0.02365     2.65204
      O    6   -0.32849      0.99988     3.32319    0.00543     4.32849
      C    7   -0.03827      0.99953     2.02660    0.01214     3.03827
      N    8   -0.29107      0.99967     2.77561    0.01579     3.79107
      C    9   -0.01922      0.99955     2.00574    0.01393     3.01922
      C   10   -0.19393      0.99961     2.18447    0.00986     3.19393
      C   11   -0.20791      0.99961     2.19891    0.00938     3.20791
      C   12   -0.19945      0.99960     2.19102    0.00883     3.19945
      C   13   -0.08686      0.99962     2.07618    0.01106     3.08686
      N   14   -0.34208      0.99974     2.83201    0.01034     3.84208
      C   15   -0.17837      0.99967     2.17035    0.00835     3.17837
      H   16    0.10441      0.00000     0.39420    0.00139     0.39559
      H   17    0.09706      0.00000     0.40146    0.00148     0.40294
      H   18    0.10174      0.00000     0.39706    0.00120     0.39826
      H   19    0.10616      0.00000     0.39161    0.00224     0.39384
      H   20    0.09352      0.00000     0.40447    0.00202     0.40648
      H   21    0.10126      0.00000     0.39580    0.00294     0.39874
      H   22    0.19537      0.00000     0.30220    0.00243     0.30463
      H   23    0.10701      0.00000     0.39119    0.00180     0.39299
      H   24    0.09259      0.00000     0.40434    0.00306     0.40741
      H   25    0.10527      0.00000     0.39327    0.00146     0.39473
      H   26    0.10658      0.00000     0.39212    0.00131     0.39342
      H   27    0.10559      0.00000     0.39346    0.00095     0.39441
      H   28    0.10327      0.00000     0.39576    0.00097     0.39673
      H   29    0.10996      0.00000     0.38891    0.00113     0.39004
      H   30    0.09966      0.00000     0.39920    0.00113     0.40034
      H   31    0.09194      0.00000     0.40697    0.00109     0.40806
      H   32    0.07871      0.00000     0.41957    0.00173     0.42129
      H   33    0.17589      0.00000     0.31988    0.00423     0.32411
      H   34    0.08079      0.00000     0.41770    0.00151     0.41921
      H   35    0.09313      0.00000     0.40604    0.00083     0.40687
      H   36    0.08962      0.00000     0.40933    0.00105     0.41038
 =======================================================================
   * Total *    0.00000     14.99456    42.79791    0.20752    58.00000

 Normal termination of Gaussian 16 at Thu Dec 10 17:59:30 2020.
