 Gaussian 16, Revision A.03,

 -----------------------------------------------------------
 # opt freq B3LYP/6-31G(d) empiricaldispersion=gd3bj scf=xqc
 -----------------------------------------------------------

 ----------------------------
 CID_53633063_JID_95_neutraal
 ----------------------------
 Symbolic Z-matrix:
 Charge =  0 Multiplicity = 1

 SCF Done:  E(RB3LYP) =  -442.635887536     A.U. after   14 cycles
 SCF Done:  E(RB3LYP) =  -442.639265064     A.U. after   12 cycles
 SCF Done:  E(RB3LYP) =  -442.640120894     A.U. after   12 cycles
 SCF Done:  E(RB3LYP) =  -442.640903979     A.U. after   13 cycles
 SCF Done:  E(RB3LYP) =  -442.641113881     A.U. after   12 cycles
 SCF Done:  E(RB3LYP) =  -442.641628165     A.U. after   12 cycles
 SCF Done:  E(RB3LYP) =  -442.641733805     A.U. after   11 cycles
 SCF Done:  E(RB3LYP) =  -442.642013564     A.U. after   12 cycles
 SCF Done:  E(RB3LYP) =  -442.642285565     A.U. after   12 cycles
 SCF Done:  E(RB3LYP) =  -442.642512396     A.U. after   11 cycles
 SCF Done:  E(RB3LYP) =  -442.643441547     A.U. after   11 cycles
 SCF Done:  E(RB3LYP) =  -442.643422603     A.U. after   11 cycles
 SCF Done:  E(RB3LYP) =  -442.643441658     A.U. after   11 cycles
 SCF Done:  E(RB3LYP) =  -442.643441649     A.U. after    7 cycles
 SCF Done:  E(RB3LYP) =  -442.643441685     A.U. after    8 cycles
 Optimization completed.
    -- Stationary point found.
 Normal termination of Gaussian 16 at Tue Dec  8 10:23:18 2020.

 --------------------------------------------------------------------
 #N Geom=AllCheck Guess=TCheck SCRF=Check GenChk RB3LYP/6-31G(d) Freq
 --------------------------------------------------------------------

 Structure from the checkpoint file:  "JID_95.chk"
 ----------------------------
 CID_53633063_JID_95_neutraal
 ----------------------------
 Charge =  0 Multiplicity = 1

 SCF Done:  E(RB3LYP) =  -442.643441685     A.U. after    1 cycles

  Exact polarizability:  99.611   2.680  94.806  16.032   0.685  78.089
 Approx polarizability: 141.066   3.437 152.284  32.589   4.260 118.861

                      1                      2                      3
                      A                      A                      A
 Frequencies --     56.8432                66.0247               128.2751
 Red. masses --      4.0541                 3.9432                 3.2043
 Frc consts  --      0.0077                 0.0101                 0.0311
 IR Inten    --      0.7551                 0.9643                 1.1956

                      4                      5                      6
                      A                      A                      A
 Frequencies --    181.5423               266.8310               292.0207
 Red. masses --      2.3152                 3.5196                 1.8373
 Frc consts  --      0.0450                 0.1476                 0.0923
 IR Inten    --      0.3330                 5.1963                 1.5342

                      7                      8                      9
                      A                      A                      A
 Frequencies --    302.6733               372.9528               408.0259
 Red. masses --      1.4972                 2.3452                 1.8373
 Frc consts  --      0.0808                 0.1922                 0.1802
 IR Inten    --      3.0929                40.2237                12.5715

                     10                     11                     12
                      A                      A                      A
 Frequencies --    436.9370               455.5473               478.4917
 Red. masses --      1.6221                 2.0699                 2.6981
 Frc consts  --      0.1825                 0.2531                 0.3640
 IR Inten    --     48.4216                44.0695                29.3824

                     13                     14                     15
                      A                      A                      A
 Frequencies --    561.4568               589.9919               651.2936
 Red. masses --      2.2836                 4.4934                 3.0405
 Frc consts  --      0.4241                 0.9216                 0.7599
 IR Inten    --     35.3572                 0.3713                 2.4866

                     16                     17                     18
                      A                      A                      A
 Frequencies --    721.5922               749.4376               772.8135
 Red. masses --      1.5708                 1.3186                 3.7459
 Frc consts  --      0.4819                 0.4364                 1.3181
 IR Inten    --     42.2605                15.9353                 6.1842

                     19                     20                     21
                      A                      A                      A
 Frequencies --    822.9498               910.0128               920.9238
 Red. masses --      2.6883                 1.3713                 1.7200
 Frc consts  --      1.0727                 0.6691                 0.8595
 IR Inten    --      3.8537                 5.4390                 2.3193

                     22                     23                     24
                      A                      A                      A
 Frequencies --    944.0818               951.1493               968.5967
 Red. masses --      2.7903                 1.7015                 2.1926
 Frc consts  --      1.4653                 0.9070                 1.2120
 IR Inten    --      5.3630                 1.7933                 8.9208

                     25                     26                     27
                      A                      A                      A
 Frequencies --    972.0110              1016.5280              1049.3078
 Red. masses --      1.9016                 2.1825                 1.9509
 Frc consts  --      1.0586                 1.3287                 1.2656
 IR Inten    --      2.1493                 3.3299                19.1164

                     28                     29                     30
                      A                      A                      A
 Frequencies --   1061.0490              1111.3952              1132.2924
 Red. masses --      1.8993                 1.8767                 1.6626
 Frc consts  --      1.2599                 1.3658                 1.2559
 IR Inten    --     32.4625                 8.1426                58.0000

                     31                     32                     33
                      A                      A                      A
 Frequencies --   1176.5691              1198.6889              1210.4205
 Red. masses --      1.2848                 1.3069                 1.7561
 Frc consts  --      1.0479                 1.1063                 1.5159
 IR Inten    --      2.8450                13.5621                17.6929

                     34                     35                     36
                      A                      A                      A
 Frequencies --   1263.8426              1314.5888              1330.7176
 Red. masses --      1.3267                 1.5663                 1.3972
 Frc consts  --      1.2485                 1.5948                 1.4578
 IR Inten    --     32.0373                13.0448                 6.4024

                     37                     38                     39
                      A                      A                      A
 Frequencies --   1357.5518              1369.6204              1394.7908
 Red. masses --      1.5010                 1.3994                 1.3890
 Frc consts  --      1.6298                 1.5466                 1.5921
 IR Inten    --     16.7932                 9.0604                 1.9019

                     40                     41                     42
                      A                      A                      A
 Frequencies --   1404.5433              1435.4044              1439.1482
 Red. masses --      1.3299                 1.2309                 1.5058
 Frc consts  --      1.5457                 1.4942                 1.8375
 IR Inten    --     21.4051                21.5348                 5.0755

                     43                     44                     45
                      A                      A                      A
 Frequencies --   1450.4626              1487.2744              1504.0480
 Red. masses --      1.3799                 1.6069                 1.2911
 Frc consts  --      1.7104                 2.0942                 1.7208
 IR Inten    --     49.9017                18.6020                 9.2394

                     46                     47                     48
                      A                      A                      A
 Frequencies --   1521.0042              1529.4751              1540.1855
 Red. masses --      1.0962                 1.1253                 1.0612
 Frc consts  --      1.4941                 1.5510                 1.4832
 IR Inten    --      1.3128                 7.9632                 3.8161

                     49                     50                     51
                      A                      A                      A
 Frequencies --   1619.7777              1696.3313              2931.2730
 Red. masses --      4.6871                 5.3043                 1.0751
 Frc consts  --      7.2454                 8.9929                 5.4427
 IR Inten    --    110.8975                37.7747               114.6510

                     52                     53                     54
                      A                      A                      A
 Frequencies --   3043.5449              3047.4551              3060.7213
 Red. masses --      1.0411                 1.0620                 1.0789
 Frc consts  --      5.6820                 5.8110                 5.9549
 IR Inten    --     21.3940                 7.6489                80.1068

                     55                     56                     57
                      A                      A                      A
 Frequencies --   3098.6194              3110.9474              3113.2536
 Red. masses --      1.1040                 1.0981                 1.0930
 Frc consts  --      6.2455                 6.2612                 6.2415
 IR Inten    --      8.2952                 7.4205                57.7993

                     58                     59                     60
                      A                      A                      A
 Frequencies --   3133.9723              3177.6760              3186.5757
 Red. masses --      1.1011                 1.0857                 1.0894
 Frc consts  --      6.3718                 6.4590                 6.5176
 IR Inten    --     21.0939                11.4046                 9.3602

                     61                     62                     63
                      A                      A                      A
 Frequencies --   3202.3202              3231.5295              3700.5620
 Red. masses --      1.0963                 1.0944                 1.0658
 Frc consts  --      6.6241                 6.7338                 8.5990
 IR Inten    --     23.5033                12.3876                23.2654

 - Thermochemistry -
 -------------------
 Temperature   298.150 Kelvin.  Pressure   1.00000 Atm.
 Atom     1 has atomic number  6 and mass  12.00000

 Molecular mass:   139.09971 amu.
 Principal axes and moments of inertia in atomic units:
                           1         2         3
     Eigenvalues --   865.098141688.271101833.41953
           X            0.99961   0.02482   0.01245
           Y           -0.02427   0.99881  -0.04241
           Z           -0.01349   0.04209   0.99902
 This molecule is an asymmetric top.
 Rotational symmetry number  1.
 Warning -- assumption of classical behavior for rotation
           may cause significant error
 Rotational temperatures (Kelvin)      0.10012     0.05130     0.04724
 Rotational constants (GHZ):           2.08617     1.06899     0.98436
 Zero-point vibrational energy     530160.7 (Joules/Mol)
                                  126.71144 (Kcal/Mol)
 Warning -- explicit consideration of  14 degrees of freedom as
           vibrations may cause significant error
 Vibrational temperatures:     81.78    94.99   184.56   261.20   383.91
          (Kelvin)            420.15   435.48   536.60   587.06   628.65
                              655.43   688.44   807.81   848.87   937.07
                             1038.21  1078.27  1111.91  1184.04  1309.31
                             1325.00  1358.32  1368.49  1393.59  1398.51
                             1462.56  1509.72  1526.61  1599.05  1629.12
                             1692.82  1724.65  1741.53  1818.39  1891.40
                             1914.61  1953.21  1970.58  2006.79  2020.82
                             2065.23  2070.61  2086.89  2139.86  2163.99
                             2188.39  2200.57  2215.98  2330.50  2440.64
                             4217.45  4378.98  4384.61  4403.70  4458.22
                             4475.96  4479.28  4509.09  4571.97  4584.77
                             4607.42  4649.45  5324.28

 Zero-point correction=                           0.201928 (Hartree/Particle)
 Thermal correction to Energy=                    0.211795
 Thermal correction to Enthalpy=                  0.212739
 Thermal correction to Gibbs Free Energy=         0.166762
 Sum of electronic and zero-point Energies=           -442.441514
 Sum of electronic and thermal Energies=              -442.431646
 Sum of electronic and thermal Enthalpies=            -442.430702
 Sum of electronic and thermal Free Energies=         -442.476680

                     E (Thermal)             CV                S
                      KCal/Mol        Cal/Mol-Kelvin    Cal/Mol-Kelvin
 Total                  132.904             38.150             96.768
 Electronic               0.000              0.000              0.000
 Translational            0.889              2.981             40.702
 Rotational               0.889              2.981             29.372
 Vibrational            131.126             32.188             26.694
 Vibration     1          0.596              1.975              4.564
 Vibration     2          0.597              1.970              4.269
 Vibration     3          0.611              1.925              2.972
 Vibration     4          0.630              1.865              2.312
 Vibration     5          0.672              1.734              1.617
 Vibration     6          0.687              1.689              1.462
 Vibration     7          0.694              1.669              1.402
 Vibration     8          0.744              1.528              1.068
 Vibration     9          0.773              1.453              0.934
 Vibration    10          0.797              1.390              0.836
 Vibration    11          0.814              1.349              0.779
 Vibration    12          0.835              1.298              0.714
 Vibration    13          0.917              1.115              0.521
 Vibration    14          0.947              1.053              0.467

 Optimization completed.
    -- Stationary point found.
 Normal termination of Gaussian 16 at Tue Dec  8 10:27:50 2020.

 ----------------------------------------------------------------------
 # B3LYP/6-311++G(d,p) empiricaldispersion=gd3bj scf=xqc pop=npa geom=c
 heck
 ----------------------------------------------------------------------

 ------------------------------------
 CID_53633063_JID_95_Energie_neutraal
 ------------------------------------
 Structure from the checkpoint file:  "JID_95.chk"
 Charge =  0 Multiplicity = 1

 SCF Done:  E(RB3LYP) =  -442.777057254     A.U. after   15 cycles
 Normal termination of Gaussian 16 at Tue Dec  8 10:29:24 2020.

 ----------------------------------------------------------------------
 # B3LYP/6-311++G(d,p) empiricaldispersion=gd3bj scf=xqc pop=npa geom=c
 heck
 ----------------------------------------------------------------------

 ----------------------------------
 CID_53633063_JID_95_Energie_kation
 ----------------------------------
 Structure from the checkpoint file:  "JID_95.chk"
 Charge =  1 Multiplicity = 2

 SCF Done:  E(UB3LYP) =  -442.515619837     A.U. after   19 cycles
 Normal termination of Gaussian 16 at Tue Dec  8 10:32:10 2020.
 Gaussian 16:  ES64L-G16RevA.03 25-Dec-2016

 ----------------------------------------------------------------------
 # B3LYP/6-311++G(d,p) empiricaldispersion=gd3bj scf=xqc pop=npa geom=c
 heck
 ----------------------------------------------------------------------

 ---------------------------------
 CID_53633063_JID_95_Energie_anion
 ---------------------------------
 Structure from the checkpoint file:  "JID_95.chk"
 Charge = -1 Multiplicity = 2

                         Standard orientation:
 ---------------------------------------------------------------------
 Center     Atomic      Atomic             Coordinates (Angstroms)
 Number     Number       Type             X           Y           Z
 ---------------------------------------------------------------------
      1          6           0        1.849881    1.226229   -0.893850
      2          6           0        2.056130   -0.042629   -0.069726
      3          6           0        1.208470   -0.088758    1.220950
      4          7           0       -0.223924   -0.104496    0.979060
      5          6           0       -1.005050    1.140016    0.906115
      6          6           0       -1.769801    1.208280   -0.395427
      7          6           0       -2.255109    0.060879   -0.910141
      8          6           0       -1.892845   -1.216011   -0.325190
      9          6           0       -0.822570   -1.252525    0.515678
     10          8           0        1.819866   -1.209553   -0.851146
     11          1           0        0.807264    1.302437   -1.225632
     12          1           0        2.490436    1.200524   -1.780233
     13          1           0        2.092749    2.125344   -0.314753
     14          1           0        3.109036   -0.111493    0.231632
     15          1           0        1.473995   -1.005785    1.760854
     16          1           0        1.449998    0.760944    1.869390
     17          1           0       -1.696003    1.174726    1.769355
     18          1           0       -0.318460    1.983636    1.011236
     19          1           0       -1.930086    2.172045   -0.869808
     20          1           0       -2.858731    0.069459   -1.814815
     21          1           0       -2.374057   -2.135189   -0.636931
     22          1           0       -0.352977   -2.181089    0.831026
     23          1           0        0.900745   -1.160548   -1.166029
 ---------------------------------------------------------------------

 SCF Done:  E(UB3LYP) =  -442.761528826     A.U. after   33 cycles
 SCF Done:  E(UB3LYP) =  -442.761528826     a.u. after    1 cycles

 The electronic state is 2-A.
 Alpha  occ. eigenvalues --  -19.01258 -14.22524 -10.11281 -10.09444 -10.09262
 Alpha  occ. eigenvalues --  -10.09231 -10.05913 -10.05030 -10.04947 -10.04629
 Alpha  occ. eigenvalues --   -0.91784  -0.84401  -0.69850  -0.65498  -0.64502
 Alpha  occ. eigenvalues --   -0.59188  -0.53168  -0.50863  -0.48479  -0.41064
 Alpha  occ. eigenvalues --   -0.39796  -0.38312  -0.37197  -0.34975  -0.33397
 Alpha  occ. eigenvalues --   -0.32605  -0.31732  -0.30159  -0.29591  -0.26450
 Alpha  occ. eigenvalues --   -0.25949  -0.24982  -0.24770  -0.22101  -0.21245
 Alpha  occ. eigenvalues --   -0.17540  -0.15423  -0.07743   0.04929
 Alpha virt. eigenvalues --    0.07533   0.07663   0.08259   0.08855   0.09827
 Alpha virt. eigenvalues --    0.09983   0.10735   0.11108   0.12127   0.12675
 Alpha virt. eigenvalues --    0.13356   0.13746   0.15688   0.16289   0.16787

  Beta  occ. eigenvalues --  -19.01253 -14.22529 -10.11269 -10.09416 -10.09200
  Beta  occ. eigenvalues --  -10.09199 -10.05901 -10.04960 -10.04917 -10.04612
  Beta  occ. eigenvalues --   -0.91770  -0.84364  -0.69777  -0.65415  -0.64423
  Beta  occ. eigenvalues --   -0.59122  -0.53106  -0.50776  -0.48390  -0.41007
  Beta  occ. eigenvalues --   -0.39694  -0.38250  -0.37154  -0.34909  -0.33341
  Beta  occ. eigenvalues --   -0.32551  -0.31674  -0.30099  -0.29543  -0.26401
  Beta  occ. eigenvalues --   -0.25904  -0.24935  -0.24725  -0.22035  -0.21093
  Beta  occ. eigenvalues --   -0.17514  -0.15252  -0.07579
  Beta virt. eigenvalues --    0.07345   0.08153   0.08451   0.08983   0.09383
  Beta virt. eigenvalues --    0.10351   0.10800   0.11226   0.11725   0.12343
  Beta virt. eigenvalues --    0.13302   0.14149   0.14237   0.15863   0.16378

 Mulliken charges and spin densities:
               1          2
     1  C    1.437388  -2.035260
     2  C   -1.379721   1.459530
     3  C    0.936153  -1.456209
     4  N   -0.118062   0.275365
     5  C    1.641579  -2.099131
     6  C   -1.060438   0.990535
     7  C    0.915507  -1.039790
     8  C    0.051072  -0.245916
     9  C   -0.529024   0.273400
    10  O   -0.232951   0.000242
    11  H    0.259765  -0.066523
    12  H   -0.198876   0.362703
    13  H   -0.381544   0.530629
    14  H   -0.394886   0.586167
    15  H   -0.317920   0.520871
    16  H   -0.691729   0.853750
    17  H   -0.281790   0.430932
    18  H   -0.040694   0.192634
    19  H   -0.492200   0.651300
    20  H   -0.014542   0.161935
    21  H   -0.099009   0.230100
    22  H   -0.299044   0.454485
    23  H    0.290965  -0.031750
 Sum of Mulliken charges =  -1.00000   1.00000

 Dipole moment (field-independent basis, Debye):
    X=             -2.5932    Y=             -2.4599    Z=             -2.4766  Tot=              4.3485
 Quadrupole moment (field-independent basis, Debye-Ang):
   XX=           -110.4695   YY=           -104.9014   ZZ=            -95.6164
   XY=             -0.3772   XZ=             -2.6174   YZ=             -1.3272

 Summary of Natural Population Analysis:

                                       Natural Population
                Natural  -----------------------------------------------
    Atom  No    Charge         Core      Valence    Rydberg      Total
 -----------------------------------------------------------------------
      C    1   -0.30254      0.99964     2.29665    0.00625     3.30254
      C    2    0.05601      0.99958     1.92979    0.01461     2.94399
      C    3   -0.08861      0.99958     2.07617    0.01286     3.08861
      N    4   -0.25045      0.99969     2.73663    0.01414     3.75045
      C    5   -0.09357      0.99960     2.08161    0.01236     3.09357
      C    6   -0.10834      0.99954     2.09743    0.01137     3.10834
      C    7   -0.10746      0.99952     2.09801    0.00993     3.10746
      C    8   -0.17993      0.99955     2.16892    0.01146     3.17993
      C    9    0.02830      0.99952     1.95762    0.01456     2.97170
      O   10   -0.37301      0.99990     3.36657    0.00655     4.37301
      H   11    0.10094      0.00000     0.39707    0.00199     0.39906
      H   12    0.10151      0.00000     0.39747    0.00102     0.39849
      H   13    0.10418      0.00000     0.39394    0.00188     0.39582
      H   14    0.08737      0.00000     0.41070    0.00193     0.41263
      H   15    0.10211      0.00000     0.39567    0.00222     0.39789
      H   16    0.10264      0.00000     0.39462    0.00274     0.39736
      H   17    0.08691      0.00000     0.41179    0.00130     0.41309
      H   18    0.10515      0.00000     0.39234    0.00251     0.39485
      H   19    0.09794      0.00000     0.40085    0.00121     0.40206
      H   20    0.09733      0.00000     0.40183    0.00084     0.40267
      H   21    0.10160      0.00000     0.39751    0.00088     0.39840
      H   22    0.09952      0.00000     0.39913    0.00136     0.40048
      H   23    0.23239      0.00000     0.26434    0.00327     0.26761
 =======================================================================
   * Total *    0.00000      9.99612    27.86664    0.13724    38.00000

 Normal termination of Gaussian 16 at Tue Dec  8 10:41:28 2020.
