 Gaussian 16, Revision A.03,

 -----------------------------------------------------------
 # opt freq B3LYP/6-31G(d) empiricaldispersion=gd3bj scf=xqc
 -----------------------------------------------------------

 -------------------------------
 CID_131992428_JID_4525_neutraal
 -------------------------------
 Symbolic Z-matrix:
 Charge =  0 Multiplicity = 1

 SCF Done:  E(RB3LYP) =  -629.399780295     A.U. after   14 cycles
 SCF Done:  E(RB3LYP) =  -629.408237848     A.U. after   13 cycles
 SCF Done:  E(RB3LYP) =  -629.405415311     A.U. after   13 cycles
 SCF Done:  E(RB3LYP) =  -629.409333644     A.U. after   13 cycles
 SCF Done:  E(RB3LYP) =  -629.410504341     A.U. after   13 cycles
 SCF Done:  E(RB3LYP) =  -629.411085566     A.U. after   12 cycles
 SCF Done:  E(RB3LYP) =  -629.411449968     A.U. after   11 cycles
 SCF Done:  E(RB3LYP) =  -629.411765781     A.U. after   12 cycles
 SCF Done:  E(RB3LYP) =  -629.411942769     A.U. after   12 cycles
 SCF Done:  E(RB3LYP) =  -629.412152417     A.U. after   10 cycles
 SCF Done:  E(RB3LYP) =  -629.412546697     A.U. after   10 cycles
 SCF Done:  E(RB3LYP) =  -629.412551573     A.U. after   10 cycles
 SCF Done:  E(RB3LYP) =  -629.412554039     A.U. after   10 cycles
 SCF Done:  E(RB3LYP) =  -629.412555387     A.U. after    9 cycles
 SCF Done:  E(RB3LYP) =  -629.412555635     A.U. after    7 cycles
 SCF Done:  E(RB3LYP) =  -629.412555789     A.U. after    7 cycles
 Optimization completed.
    -- Stationary point found.

 1\1\GINC-NODE108\FOpt\RB3LYP\6-31G(d)\C9H21N5\VSC10255\10-Dec-2020\0\\
 # opt freq B3LYP/6-31G(d) empiricaldispersion=gd3bj scf=xqc\\CID_13199
 2428_JID_4525_neutraal\\0,1\C,0.9281370597,0.0355891264,0.0842806385\C
 ,0.0973961685,-1.2485991714,-0.0025305132\C,0.2795632604,-2.1071765138
 ,1.252975009\C,-1.3968250193,-0.9121224777,-0.2211368843\N,-1.52929502
 13,-0.0897470817,-1.4355327479\C,-2.5699057558,0.6540023211,-1.5760126
 594\C,-3.7044272729,0.7710082608,-0.5733308308\N,-2.7163881915,1.37068
 82697,-2.7595022702\C,-1.6179442238,1.2920475674,-3.7118699426\C,-3.40

 Normal termination of Gaussian 16 at Thu Dec 10 10:14:29 2020.

 --------------------------------------------------------------------
 #N Geom=AllCheck Guess=TCheck SCRF=Check GenChk RB3LYP/6-31G(d) Freq
 --------------------------------------------------------------------

 Structure from the checkpoint file:  "JID_4525.chk"
 -------------------------------
 CID_131992428_JID_4525_neutraal
 -------------------------------
 Charge =  0 Multiplicity = 1

 SCF Done:  E(RB3LYP) =  -629.412555789     A.U. after    1 cycles

  Exact polarizability: 153.886  -4.352 128.437   0.361   4.205 118.730
 Approx polarizability: 193.739  -4.343 175.114  -2.547  12.170 184.877

                      1                      2                      3
                      A                      A                      A
 Frequencies --     30.2297                57.9983                66.1841
 Red. masses --      2.6387                 3.0633                 2.9488
 Frc consts  --      0.0014                 0.0061                 0.0076
 IR Inten    --      1.2813                 0.5864                 0.4348

                      4                      5                      6
                      A                      A                      A
 Frequencies --     93.1986                98.1800               113.3976
 Red. masses --      2.8219                 3.9276                 3.3931
 Frc consts  --      0.0144                 0.0223                 0.0257
 IR Inten    --      1.0546                 4.0239                 4.3172

                      7                      8                      9
                      A                      A                      A
 Frequencies --    126.8569               144.1342               175.9657
 Red. masses --      2.9523                 1.2695                 1.1631
 Frc consts  --      0.0280                 0.0155                 0.0212
 IR Inten    --      1.4810                 0.7908                 0.0861

                     10                     11                     12
                      A                      A                      A
 Frequencies --    189.6650               218.1211               237.5990
 Red. masses --      1.2049                 1.0812                 1.5533
 Frc consts  --      0.0255                 0.0303                 0.0517
 IR Inten    --      1.4694                 0.9604                 9.9088

                     13                     14                     15
                      A                      A                      A
 Frequencies --    241.3282               245.2143               255.8685
 Red. masses --      2.2386                 1.6959                 1.3068
 Frc consts  --      0.0768                 0.0601                 0.0504
 IR Inten    --      7.2187                 7.7125                65.2328

                     16                     17                     18
                      A                      A                      A
 Frequencies --    279.8815               311.9439               356.0165
 Red. masses --      2.4464                 2.8817                 2.2279
 Frc consts  --      0.1129                 0.1652                 0.1664
 IR Inten    --     10.8073                11.9852                23.6499

                     19                     20                     21
                      A                      A                      A
 Frequencies --    381.0353               401.2187               420.6519
 Red. masses --      2.7802                 2.8498                 1.5630
 Frc consts  --      0.2378                 0.2703                 0.1630
 IR Inten    --      6.9158                19.2103                87.7531

                     22                     23                     24
                      A                      A                      A
 Frequencies --    428.4543               462.0676               481.6749
 Red. masses --      2.2905                 2.6382                 3.0781
 Frc consts  --      0.2477                 0.3319                 0.4208
 IR Inten    --      6.7939                13.2478                 1.2129

                     25                     26                     27
                      A                      A                      A
 Frequencies --    502.8859               524.5775               587.0075
 Red. masses --      2.4662                 2.9761                 3.0433
 Frc consts  --      0.3675                 0.4825                 0.6178
 IR Inten    --     11.1553                 7.5942                 2.5108

                     28                     29                     30
                      A                      A                      A
 Frequencies --    599.9816               642.5392               665.9102
 Red. masses --      3.6669                 1.2023                 2.1639
 Frc consts  --      0.7777                 0.2925                 0.5653
 IR Inten    --     31.9269                63.7189               121.0888

                     31                     32                     33
                      A                      A                      A
 Frequencies --    756.3796               783.6553               784.6248
 Red. masses --      5.3821                 4.0798                 2.2262
 Frc consts  --      1.8142                 1.4762                 0.8075
 IR Inten    --     13.3680                14.0658               253.0592

                     34                     35                     36
                      A                      A                      A
 Frequencies --    863.9023               900.2927               937.5712
 Red. masses --      2.4199                 3.1032                 2.3686
 Frc consts  --      1.0641                 1.4819                 1.2268
 IR Inten    --      2.5205                 2.2388                13.3762

                     37                     38                     39
                      A                      A                      A
 Frequencies --    946.5408               965.2471               979.7723
 Red. masses --      1.2848                 2.1845                 1.4848
 Frc consts  --      0.6782                 1.1991                 0.8398
 IR Inten    --      6.3265                40.1934                 0.4617

                     40                     41                     42
                      A                      A                      A
 Frequencies --   1045.6267              1064.0822              1078.3285
 Red. masses --      1.6252                 2.0190                 1.9214
 Frc consts  --      1.0469                 1.3469                 1.3164
 IR Inten    --     41.2235                 6.7431                11.1031

                     43                     44                     45
                      A                      A                      A
 Frequencies --   1080.3072              1087.1922              1105.5557
 Red. masses --      3.9929                 1.4348                 1.4120
 Frc consts  --      2.7456                 0.9992                 1.0168
 IR Inten    --     55.5755                14.3621                10.7039

                     46                     47                     48
                      A                      A                      A
 Frequencies --   1133.6364              1155.8173              1176.4041
 Red. masses --      1.2514                 2.2047                 1.9702
 Frc consts  --      0.9475                 1.7353                 1.6065
 IR Inten    --      7.2425                 2.3268                47.4113

                     49                     50                     51
                      A                      A                      A
 Frequencies --   1180.7049              1208.5486              1227.7990
 Red. masses --      1.4692                 1.7764                 2.2285
 Frc consts  --      1.2068                 1.5287                 1.9793
 IR Inten    --     11.4022                 5.5946                23.9322

                     52                     53                     54
                      A                      A                      A
 Frequencies --   1257.8533              1300.1457              1339.2198
 Red. masses --      2.0748                 4.3612                 1.3796
 Frc consts  --      1.9341                 4.3435                 1.4579
 IR Inten    --     26.9936                20.7763                25.7061

                     55                     56                     57
                      A                      A                      A
 Frequencies --   1366.1463              1381.1599              1412.0656
 Red. masses --      1.3084                 1.2692                 2.1263
 Frc consts  --      1.4387                 1.4265                 2.4979
 IR Inten    --     11.1616                51.4911               118.8193

                     58                     59                     60
                      A                      A                      A
 Frequencies --   1418.0685              1421.1870              1434.0095
 Red. masses --      1.3082                 1.2747                 1.5131
 Frc consts  --      1.5499                 1.5169                 1.8333
 IR Inten    --      6.8695                 2.7556               105.8186

                     61                     62                     63
                      A                      A                      A
 Frequencies --   1442.7640              1449.1898              1467.7695
 Red. masses --      1.2786                 2.5257                 1.1792
 Frc consts  --      1.5681                 3.1252                 1.4968
 IR Inten    --     20.2287                70.1703                 1.9027

                     64                     65                     66
                      A                      A                      A
 Frequencies --   1496.7277              1503.1337              1511.0002
 Red. masses --      1.0903                 1.0964                 1.1488
 Frc consts  --      1.4391                 1.4596                 1.5454
 IR Inten    --     11.1918                12.9007                 9.6728

                     67                     68                     69
                      A                      A                      A
 Frequencies --   1518.1541              1520.8859              1522.5807
 Red. masses --      1.0502                 1.0453                 1.0468
 Frc consts  --      1.4261                 1.4246                 1.4298
 IR Inten    --      0.8203                 1.3793                 0.9686

                     70                     71                     72
                      A                      A                      A
 Frequencies --   1529.5471              1530.9796              1543.8154
 Red. masses --      1.0480                 1.0513                 1.0541
 Frc consts  --      1.4446                 1.4519                 1.4802
 IR Inten    --      4.7752                20.5175                 9.3577

                     73                     74                     75
                      A                      A                      A
 Frequencies --   1545.3772              1561.0451              1645.1589
 Red. masses --      1.1135                 1.0822                 1.3216
 Frc consts  --      1.5668                 1.5537                 2.1075
 IR Inten    --      6.6203                22.3774                97.1209

                     76                     77                     78
                      A                      A                      A
 Frequencies --   1661.7806              1690.2429              1746.7151
 Red. masses --      1.2828                 5.5937                 3.5322
 Frc consts  --      2.0872                 9.4156                 6.3495
 IR Inten    --     42.9717               483.8188               422.7653

                     79                     80                     81
                      A                      A                      A
 Frequencies --   2984.8949              2992.7556              3026.5450
 Red. masses --      1.0827                 1.0593                 1.0503
 Frc consts  --      5.6833                 5.5900                 5.6684
 IR Inten    --     42.4292                92.3686                51.5625

                     82                     83                     84
                      A                      A                      A
 Frequencies --   3032.2446              3038.7155              3057.2830
 Red. masses --      1.0410                 1.0441                 1.0783
 Frc consts  --      5.6395                 5.6803                 5.9386
 IR Inten    --     23.2705                43.1724                22.1731

                     85                     86                     87
                      A                      A                      A
 Frequencies --   3059.4564              3091.4542              3097.2195
 Red. masses --      1.0452                 1.0992                 1.0826
 Frc consts  --      5.7639                 6.1894                 6.1186
 IR Inten    --     21.7822                 2.6018                28.3039

                     88                     89                     90
                      A                      A                      A
 Frequencies --   3101.0072              3108.8545              3126.8539
 Red. masses --      1.0988                 1.0865                 1.0965
 Frc consts  --      6.2254                 6.1872                 6.3163
 IR Inten    --     89.1563                46.6953                14.8766

                     91                     92                     93
                      A                      A                      A
 Frequencies --   3134.9687              3142.3362              3159.7026
 Red. masses --      1.0989                 1.0984                 1.1007
 Frc consts  --      6.3631                 6.3899                 6.4745
 IR Inten    --     29.5814                24.0560                24.1896

                     94                     95                     96
                      A                      A                      A
 Frequencies --   3171.9736              3177.1883              3499.0128
 Red. masses --      1.0964                 1.0985                 1.0524
 Frc consts  --      6.4993                 6.5336                 7.5912
 IR Inten    --     16.3454                 2.9669               122.5523

                     97                     98                     99
                      A                      A                      A
 Frequencies --   3523.7403              3634.6876              3656.5047
 Red. masses --      1.0497                 1.0950                 1.0968
 Frc consts  --      7.6793                 8.5232                 8.6396
 IR Inten    --      7.5016                13.8318                47.9356

 - Thermochemistry -
 -------------------
 Temperature   298.150 Kelvin.  Pressure   1.00000 Atm.
 Atom     1 has atomic number  6 and mass  12.00000

 Molecular mass:   199.17970 amu.
 Principal axes and moments of inertia in atomic units:
                           1         2         3
     Eigenvalues --  2132.351563893.674814742.00274
           X            0.99975   0.02214   0.00037
           Y           -0.02214   0.99975  -0.00443
           Z           -0.00047   0.00442   0.99999
 This molecule is an asymmetric top.
 Rotational symmetry number  1.
 Warning -- assumption of classical behavior for rotation
           may cause significant error
 Rotational temperatures (Kelvin)      0.04062     0.02224     0.01827
 Rotational constants (GHZ):           0.84636     0.46351     0.38059
 Zero-point vibrational energy     824441.8 (Joules/Mol)
                                  197.04631 (Kcal/Mol)
 Warning -- explicit consideration of  28 degrees of freedom as
           vibrations may cause significant error
 Vibrational temperatures:     43.49    83.45    95.22   134.09   141.26
          (Kelvin)            163.15   182.52   207.38   253.18   272.89
                              313.83   341.85   347.22   352.81   368.14
                              402.69   448.82   512.23   548.22   577.26
                              605.22   616.45   664.81   693.02   723.54
                              754.75   844.57   863.24   924.47   958.10
                             1088.26  1127.51  1128.90  1242.96  1295.32
                             1348.96  1361.86  1388.78  1409.67  1504.42
                             1530.98  1551.47  1554.32  1564.23  1590.65
                             1631.05  1662.96  1692.58  1698.77  1738.83
                             1766.53  1809.77  1870.62  1926.84  1965.58
                             1987.18  2031.65  2040.28  2044.77  2063.22
                             2075.82  2085.06  2111.79  2153.46  2162.67
                             2173.99  2184.29  2188.22  2190.65  2200.68
                             2202.74  2221.21  2223.45  2246.00  2367.02
                             2390.93  2431.88  2513.13  4294.60  4305.91
                             4354.52  4362.72  4372.03  4398.75  4401.88
                             4447.91  4456.21  4461.66  4472.95  4498.85
                             4510.52  4521.12  4546.11  4563.76  4571.27
                             5034.30  5069.88  5229.50  5260.89

 Zero-point correction=                           0.314013 (Hartree/Particle)
 Thermal correction to Energy=                    0.331462
 Thermal correction to Enthalpy=                  0.332407
 Thermal correction to Gibbs Free Energy=         0.269345
 Sum of electronic and zero-point Energies=           -629.098543
 Sum of electronic and thermal Energies=              -629.081093
 Sum of electronic and thermal Enthalpies=            -629.080149
 Sum of electronic and thermal Free Energies=         -629.143210

                     E (Thermal)             CV                S
                      KCal/Mol        Cal/Mol-Kelvin    Cal/Mol-Kelvin
 Total                  207.996             64.128            132.724
 Electronic               0.000              0.000              0.000
 Translational            0.889              2.981             41.772
 Rotational               0.889              2.981             32.043
 Vibrational            206.218             58.166             58.909
 Vibration     1          0.594              1.984              5.814
 Vibration     2          0.596              1.974              4.524
 Vibration     3          0.598              1.970              4.264
 Vibration     4          0.602              1.954              3.592
 Vibration     5          0.604              1.950              3.490
 Vibration     6          0.607              1.938              3.210
 Vibration     7          0.611              1.926              2.993
 Vibration     8          0.616              1.909              2.748
 Vibration     9          0.628              1.872              2.371
 Vibration    10          0.633              1.854              2.231
 Vibration    11          0.646              1.813              1.975
 Vibration    12          0.656              1.783              1.821
 Vibration    13          0.658              1.777              1.793
 Vibration    14          0.660              1.771              1.765
 Vibration    15          0.666              1.753              1.690
 Vibration    16          0.680              1.711              1.534
 Vibration    17          0.700              1.651              1.352
 Vibration    18          0.732              1.563              1.139
 Vibration    19          0.751              1.511              1.035
 Vibration    20          0.767              1.467              0.958
 Vibration    21          0.783              1.425              0.890
 Vibration    22          0.790              1.408              0.864
 Vibration    23          0.820              1.334              0.760
 Vibration    24          0.838              1.291              0.706
 Vibration    25          0.858              1.244              0.651
 Vibration    26          0.880              1.196              0.599
 Vibration    27          0.944              1.060              0.473
 Vibration    28          0.958              1.032              0.450

 Optimization completed.
    -- Stationary point found.

 1\1\GINC-NODE108\Freq\RB3LYP\6-31G(d)\C9H21N5\VSC10255\10-Dec-2020\0\\
 #N Geom=AllCheck Guess=TCheck SCRF=Check GenChk RB3LYP/6-31G(d) Freq\\
 CID_131992428_JID_4525_neutraal\\0,1\C,0.9281370597,0.0355891264,0.084
 2806385\C,0.0973961685,-1.2485991714,-0.0025305132\C,0.2795632604,-2.1
 071765138,1.252975009\C,-1.3968250193,-0.9121224777,-0.2211368843\N,-1
 .5292950213,-0.0897470817,-1.4355327479\C,-2.5699057558,0.6540023211,-
 1.5760126594\C,-3.7044272729,0.7710082608,-0.5733308308\N,-2.716388191
 5,1.3706882697,-2.7595022702\C,-1.6179442238,1.2920475674,-3.711869942

 Normal termination of Gaussian 16 at Thu Dec 10 10:26:37 2020.

 ----------------------------------------------------------------------
 # B3LYP/6-311++G(d,p) empiricaldispersion=gd3bj scf=xqc pop=npa geom=c
 heck
 ----------------------------------------------------------------------

 ---------------------------------------
 CID_131992428_JID_4525_Energie_neutraal
 ---------------------------------------
 Structure from the checkpoint file:  "JID_4525.chk"
 Charge =  0 Multiplicity = 1

 SCF Done:  E(RB3LYP) =  -629.604263136     A.U. after   14 cycles
 Normal termination of Gaussian 16 at Thu Dec 10 10:32:33 2020.

 ----------------------------------------------------------------------
 # B3LYP/6-311++G(d,p) empiricaldispersion=gd3bj scf=xqc pop=npa geom=c
 heck
 ----------------------------------------------------------------------

 -------------------------------------
 CID_131992428_JID_4525_Energie_kation
 -------------------------------------
 Structure from the checkpoint file:  "JID_4525.chk"
 Charge =  1 Multiplicity = 2

 SCF Done:  E(UB3LYP) =  -629.331261658     A.U. after   26 cycles
 Normal termination of Gaussian 16 at Thu Dec 10 10:48:06 2020.
 Gaussian 16:  ES64L-G16RevA.03 25-Dec-2016

 ------------------------------------
 CID_131992428_JID_4525_Energie_anion
 ------------------------------------
 Structure from the checkpoint file:  "JID_4525.chk"
 Charge = -1 Multiplicity = 2

                         Standard orientation:
 ---------------------------------------------------------------------
 Center     Atomic      Atomic             Coordinates (Angstroms)
 Number     Number       Type             X           Y           Z
 ---------------------------------------------------------------------
      1          6           0        0.998593    2.841322   -0.459262
      2          6           0        1.707712    1.495349   -0.279497
      3          6           0        3.057175    1.674379    0.423020
      4          6           0        0.809330    0.511839    0.507472
      5          7           0       -0.474085    0.365768   -0.199716
      6          6           0       -1.507033   -0.032565    0.456117
      7          6           0       -1.527808   -0.369695    1.936696
      8          7           0       -2.695183   -0.234341   -0.239102
      9          6           0       -2.694484    0.118893   -1.651545
     10          6           0       -3.975165   -0.025745    0.423648
     11          7           0        1.463417   -0.763851    0.785705
     12          6           0        1.628088   -1.610856   -0.169945
     13          7           0        1.202198   -1.479991   -1.477818
     14          7           0        2.395080   -2.757106    0.072726
     15          1           0        0.792855    3.304309    0.515832
     16          1           0        0.045627    2.714707   -0.980147
     17          1           0        1.621927    3.538651   -1.031451
     18          1           0        1.884428    1.059889   -1.270888
     19          1           0        2.918731    2.096282    1.427616
     20          1           0        3.578042    0.719898    0.531669
     21          1           0        3.698887    2.362269   -0.140202
     22          1           0        0.636685    0.981209    1.488388
     23          1           0       -1.898010    0.469943    2.537403
     24          1           0       -2.171518   -1.231847    2.130291
     25          1           0       -0.521269   -0.625079    2.267382
     26          1           0       -3.643653   -0.201451   -2.090720
     27          1           0       -2.566793    1.199416   -1.812140
     28          1           0       -1.874814   -0.388706   -2.161638
     29          1           0       -3.963477   -0.427470    1.436562
     30          1           0       -4.249528    1.040817    0.480312
     31          1           0       -4.758511   -0.547433   -0.135108
     32          1           0        1.249552   -2.287792   -2.082324
     33          1           0        0.406506   -0.858675   -1.594495
     34          1           0        2.597784   -2.832604    1.063019
     35          1           0        1.998097   -3.617208   -0.292149
 ---------------------------------------------------------------------

 SCF Done:  E(UB3LYP) =  -629.595138704     A.U. after   29 cycles

 The electronic state is 2-A.
 Alpha  occ. eigenvalues --  -14.23101 -14.20954 -14.20864 -14.17243 -14.15895
 Alpha  occ. eigenvalues --  -10.15816 -10.13834 -10.11054 -10.09782 -10.08929
 Alpha  occ. eigenvalues --  -10.06854 -10.06549 -10.05620 -10.05599  -0.87287
 Alpha  occ. eigenvalues --   -0.85970  -0.79474  -0.76079  -0.73816  -0.68878
 Alpha  occ. eigenvalues --   -0.64155  -0.61335  -0.58254  -0.58081  -0.54894
 Alpha  occ. eigenvalues --   -0.48653  -0.46584  -0.44346  -0.42688  -0.41123
 Alpha  occ. eigenvalues --   -0.38833  -0.38157  -0.37092  -0.36031  -0.34589
 Alpha  occ. eigenvalues --   -0.33939  -0.33262  -0.32278  -0.31175  -0.30025
 Alpha  occ. eigenvalues --   -0.29417  -0.29121  -0.28528  -0.28327  -0.27968
 Alpha  occ. eigenvalues --   -0.27281  -0.24311  -0.23388  -0.22854  -0.21283
 Alpha  occ. eigenvalues --   -0.17574  -0.16493  -0.13309  -0.12268  -0.11110
 Alpha  occ. eigenvalues --    0.04046
 Alpha virt. eigenvalues --    0.06079   0.07364   0.07480   0.08790   0.08908
 Alpha virt. eigenvalues --    0.09396   0.09684   0.10153   0.10617   0.11404
 Alpha virt. eigenvalues --    0.11606   0.12358   0.12528   0.12682   0.13076

  Beta  occ. eigenvalues --  -14.23102 -14.20904 -14.20820 -14.17238 -14.15891
  Beta  occ. eigenvalues --  -10.15810 -10.13818 -10.11052 -10.09730 -10.08900
  Beta  occ. eigenvalues --  -10.06831 -10.06546 -10.05619 -10.05596  -0.87257
  Beta  occ. eigenvalues --   -0.85943  -0.79450  -0.75999  -0.73784  -0.68866
  Beta  occ. eigenvalues --   -0.64116  -0.61273  -0.58240  -0.58046  -0.54849
  Beta  occ. eigenvalues --   -0.48594  -0.46560  -0.44298  -0.42610  -0.41082
  Beta  occ. eigenvalues --   -0.38794  -0.38111  -0.37047  -0.35996  -0.34554
  Beta  occ. eigenvalues --   -0.33919  -0.33225  -0.32248  -0.31152  -0.29989
  Beta  occ. eigenvalues --   -0.29387  -0.29105  -0.28504  -0.28306  -0.27942
  Beta  occ. eigenvalues --   -0.27245  -0.24302  -0.23381  -0.22842  -0.21237
  Beta  occ. eigenvalues --   -0.17552  -0.16447  -0.13298  -0.12248  -0.11086
  Beta virt. eigenvalues --    0.06416   0.07431   0.07500   0.07963   0.09117
  Beta virt. eigenvalues --    0.09441   0.09727   0.10102   0.10409   0.10856
  Beta virt. eigenvalues --    0.11621   0.11837   0.12529   0.12744   0.12943

 Mulliken charges and spin densities:
               1          2
     1  C   -0.200776  -0.336323
     2  C    0.352483   0.200902
     3  C   -0.712437   0.044535
     4  C   -0.773299  -0.519850
     5  N   -0.077171   0.070843
     6  C   -0.295907   0.639271
     7  C    0.458521  -1.280700
     8  N   -0.114367   0.277817
     9  C    0.212130  -0.508091
    10  C    1.126598  -1.446902
    11  N    0.050539  -0.076047
    12  C    0.073353  -0.211490
    13  N   -0.171774  -0.179445
    14  N   -0.440606   0.192333
    15  H    0.086768   0.030623
    16  H    0.162166  -0.002633
    17  H    0.111899   0.024015
    18  H    0.084964   0.055872
    19  H    0.104843   0.010503
    20  H    0.130594   0.029898
    21  H    0.116273   0.010112
    22  H    0.172247  -0.004989
    23  H    0.086067   0.087286
    24  H   -0.237477   0.407149
    25  H    0.119420   0.095940
    26  H   -0.197766   0.341845
    27  H    0.079457   0.065087
    28  H   -0.516899   0.667352
    29  H   -0.234845   0.372573
    30  H   -0.303371   0.460264
    31  H   -0.464871   0.609854
    32  H   -0.309748   0.595612
    33  H    0.820881  -0.518993
    34  H    0.084007   0.175501
    35  H   -0.381895   0.620276
 Sum of Mulliken charges =  -1.00000   1.00000

 Dipole moment (field-independent basis, Debye):
    X=              3.4451    Y=              5.5064    Z=              1.3221  Tot=              6.6285
 Quadrupole moment (field-independent basis, Debye-Ang):
   XX=           -159.7600   YY=           -138.4621   ZZ=           -120.8883
   XY=              5.8863   XZ=              2.0339   YZ=             -5.3362

 Summary of Natural Population Analysis:

                                       Natural Population
                Natural  -----------------------------------------------
    Atom  No    Charge         Core      Valence    Rydberg      Total
 -----------------------------------------------------------------------
      C    1   -0.28513      0.99965     2.28067    0.00480     3.28513
      C    2   -0.11853      0.99959     2.11020    0.00874     3.11853
      C    3   -0.28361      0.99965     2.27915    0.00481     3.28361
      C    4    0.06734      0.99956     1.91444    0.01866     2.93266
      N    5   -0.31289      0.99963     2.80224    0.01101     3.81289
      C    6    0.25646      0.99954     1.72810    0.01590     2.74354
      C    7   -0.32754      0.99962     2.32218    0.00574     3.32754
      N    8   -0.25543      0.99967     2.74357    0.01219     3.75543
      C    9   -0.17354      0.99964     2.16517    0.00873     3.17354
      C   10   -0.17321      0.99963     2.16546    0.00812     3.17321
      N   11   -0.32542      0.99965     2.81523    0.01054     3.82542
      C   12    0.30820      0.99962     1.67491    0.01727     2.69180
      N   13   -0.41984      0.99970     2.91030    0.00985     3.91984
      N   14   -0.40816      0.99972     2.89839    0.01005     3.90816
      H   15    0.09165      0.00000     0.40741    0.00094     0.40835
      H   16    0.10932      0.00000     0.38972    0.00097     0.39068
      H   17    0.09272      0.00000     0.40649    0.00079     0.40728
      H   18    0.09907      0.00000     0.39902    0.00192     0.40093
      H   19    0.09224      0.00000     0.40687    0.00090     0.40776
      H   20    0.10815      0.00000     0.39108    0.00077     0.39185
      H   21    0.09193      0.00000     0.40724    0.00083     0.40807
      H   22    0.08039      0.00000     0.41739    0.00221     0.41961
      H   23    0.10606      0.00000     0.39306    0.00087     0.39394
      H   24    0.11013      0.00000     0.38867    0.00120     0.38987
      H   25    0.12038      0.00000     0.37846    0.00116     0.37962
      H   26    0.09416      0.00000     0.40468    0.00116     0.40584
      H   27    0.09097      0.00000     0.40783    0.00120     0.40903
      H   28    0.10297      0.00000     0.39525    0.00178     0.39703
      H   29    0.10117      0.00000     0.39724    0.00159     0.39883
      H   30    0.08703      0.00000     0.41125    0.00173     0.41297
      H   31    0.09829      0.00000     0.40000    0.00172     0.40171
      H   32    0.19196      0.00000     0.30467    0.00338     0.30804
      H   33    0.20689      0.00000     0.29031    0.00280     0.29311
      H   34    0.18970      0.00000     0.30817    0.00213     0.31030
      H   35    0.18613      0.00000     0.30801    0.00586     0.31387
 =======================================================================
   * Total *    0.00000     13.99486    40.82284    0.18230    55.00000

 Normal termination of Gaussian 16 at Thu Dec 10 11:05:02 2020.
