 Gaussian 16, Revision A.03,

 -----------------------------------------------------------
 # opt freq B3LYP/6-31G(d) empiricaldispersion=gd3bj scf=xqc
 -----------------------------------------------------------

 ------------------------------
 CID_62114902_JID_8093_neutraal
 ------------------------------
 Symbolic Z-matrix:
 Charge =  0 Multiplicity = 1

 SCF Done:  E(RB3LYP) =  -754.760696807     A.U. after   13 cycles
 SCF Done:  E(RB3LYP) =  -754.770828058     A.U. after   12 cycles
 SCF Done:  E(RB3LYP) =  -754.771358536     A.U. after   11 cycles
 SCF Done:  E(RB3LYP) =  -754.772201133     A.U. after   12 cycles
 SCF Done:  E(RB3LYP) =  -754.772473862     A.U. after   11 cycles
 SCF Done:  E(RB3LYP) =  -754.772647591     A.U. after   10 cycles
 SCF Done:  E(RB3LYP) =  -754.772774730     A.U. after   11 cycles
 SCF Done:  E(RB3LYP) =  -754.772872932     A.U. after   10 cycles
 SCF Done:  E(RB3LYP) =  -754.772957976     A.U. after   11 cycles
 SCF Done:  E(RB3LYP) =  -754.772973635     A.U. after   10 cycles
 SCF Done:  E(RB3LYP) =  -754.772986743     A.U. after    8 cycles
 SCF Done:  E(RB3LYP) =  -754.772986985     A.U. after    7 cycles
 SCF Done:  E(RB3LYP) =  -754.772987172     A.U. after    7 cycles
 SCF Done:  E(RB3LYP) =  -754.772987234     A.U. after    6 cycles
 SCF Done:  E(RB3LYP) =  -754.772987268     A.U. after    5 cycles
 Optimization completed.
    -- Stationary point found.
 Normal termination of Gaussian 16 at Fri Dec 11 18:55:21 2020.

 --------------------------------------------------------------------
 #N Geom=AllCheck Guess=TCheck SCRF=Check GenChk RB3LYP/6-31G(d) Freq
 --------------------------------------------------------------------

 Structure from the checkpoint file:  "JID_8093.chk"
 ------------------------------
 CID_62114902_JID_8093_neutraal
 ------------------------------
 Charge =  0 Multiplicity = 1

 SCF Done:  E(RB3LYP) =  -754.772987268     A.U. after    1 cycles

  Exact polarizability: 190.040 -15.527 151.497  -0.988   5.211 170.964
 Approx polarizability: 262.455 -34.171 209.960   3.154  11.206 268.668

                      1                      2                      3
                      A                      A                      A
 Frequencies --     25.2372                36.2534                50.2511
 Red. masses --      3.7914                 2.8139                 2.7292
 Frc consts  --      0.0014                 0.0022                 0.0041
 IR Inten    --      0.0247                 0.4764                 0.0975

                      4                      5                      6
                      A                      A                      A
 Frequencies --     60.5001                66.3941                68.7581
 Red. masses --      3.4092                 2.9563                 2.6601
 Frc consts  --      0.0074                 0.0077                 0.0074
 IR Inten    --      0.0656                 0.0620                 0.2072

                      7                      8                      9
                      A                      A                      A
 Frequencies --     82.2248               104.0995               126.1071
 Red. masses --      3.4133                 2.3476                 2.4288
 Frc consts  --      0.0136                 0.0150                 0.0228
 IR Inten    --      0.4467                 0.8355                 0.4494

                     10                     11                     12
                      A                      A                      A
 Frequencies --    159.3031               180.8130               211.5466
 Red. masses --      2.3934                 2.4348                 2.5972
 Frc consts  --      0.0358                 0.0469                 0.0685
 IR Inten    --      0.2168                 0.4279                 0.8668

                     13                     14                     15
                      A                      A                      A
 Frequencies --    223.3828               239.8067               262.5305
 Red. masses --      3.5170                 1.4634                 1.5220
 Frc consts  --      0.1034                 0.0496                 0.0618
 IR Inten    --      0.3261                 0.4229                 0.1356

                     16                     17                     18
                      A                      A                      A
 Frequencies --    270.8358               287.4038               328.8093
 Red. masses --      4.0218                 2.3921                 2.7513
 Frc consts  --      0.1738                 0.1164                 0.1753
 IR Inten    --      1.5697                 0.9040                 1.4780

                     19                     20                     21
                      A                      A                      A
 Frequencies --    356.3897               413.5492               418.1129
 Red. masses --      2.4308                 3.0178                 2.9774
 Frc consts  --      0.1819                 0.3041                 0.3067
 IR Inten    --      5.6963                 0.8532                 0.4518

                     22                     23                     24
                      A                      A                      A
 Frequencies --    456.3706               469.3319               502.0258
 Red. masses --      2.8878                 2.7841                 3.5399
 Frc consts  --      0.3544                 0.3613                 0.5256
 IR Inten    --      3.8491                 3.2097                 4.4702

                     25                     26                     27
                      A                      A                      A
 Frequencies --    528.8560               597.7559               636.7337
 Red. masses --      3.9660                 2.7996                 6.2942
 Frc consts  --      0.6535                 0.5894                 1.5035
 IR Inten    --      1.4662                 9.4746                 0.0907

                     28                     29                     30
                      A                      A                      A
 Frequencies --    688.4472               694.5715               714.9567
 Red. masses --      2.4417                 1.6595                 1.7445
 Frc consts  --      0.6818                 0.4717                 0.5254
 IR Inten    --      3.6689                 3.6480                33.6520

                     31                     32                     33
                      A                      A                      A
 Frequencies --    732.2206               747.1851               777.0146
 Red. masses --      1.7355                 1.3777                 1.4935
 Frc consts  --      0.5482                 0.4532                 0.5313
 IR Inten    --     84.1504                 1.1311                18.7688

                     34                     35                     36
                      A                      A                      A
 Frequencies --    778.5820               811.6950               820.4011
 Red. masses --      1.8695                 1.6779                 1.8280
 Frc consts  --      0.6677                 0.6513                 0.7249
 IR Inten    --     15.0597                19.5477                29.0039

                     37                     38                     39
                      A                      A                      A
 Frequencies --    860.0170               865.8245               897.1840
 Red. masses --      2.1903                 1.2835                 1.8558
 Frc consts  --      0.9545                 0.5669                 0.8801
 IR Inten    --      4.2214                 1.7266                 0.7818

                     40                     41                     42
                      A                      A                      A
 Frequencies --    898.4639               920.0201               931.4349
 Red. masses --      1.8765                 1.9152                 1.4759
 Frc consts  --      0.8925                 0.9551                 0.7544
 IR Inten    --     21.2293                 1.4298                 5.5654

                     43                     44                     45
                      A                      A                      A
 Frequencies --    941.3756               955.9638               963.0662
 Red. masses --      1.9069                 2.3775                 2.0594
 Frc consts  --      0.9956                 1.2801                 1.1254
 IR Inten    --      1.5568                 6.1483                 5.1576

                     46                     47                     48
                      A                      A                      A
 Frequencies --    972.5045               989.3920               995.8780
 Red. masses --      1.3460                 2.1128                 1.2654
 Frc consts  --      0.7500                 1.2185                 0.7394
 IR Inten    --      0.3394                 8.2941                 1.6902

                     49                     50                     51
                      A                      A                      A
 Frequencies --   1022.8111              1033.0797              1045.9838
 Red. masses --      6.0722                 2.6213                 3.0359
 Frc consts  --      3.7427                 1.6483                 1.9570
 IR Inten    --      0.5059                 4.3105                 3.4973

                     52                     53                     54
                      A                      A                      A
 Frequencies --   1060.9678              1066.1287              1082.0984
 Red. masses --      2.3263                 2.3199                 1.4076
 Frc consts  --      1.5429                 1.5536                 0.9711
 IR Inten    --      0.5192                 3.1820                11.5492

                     55                     56                     57
                      A                      A                      A
 Frequencies --   1102.2850              1113.5383              1119.2216
 Red. masses --      2.0543                 2.0925                 1.9277
 Frc consts  --      1.4706                 1.5287                 1.4227
 IR Inten    --     46.9275                78.8905                11.5632

                     58                     59                     60
                      A                      A                      A
 Frequencies --   1133.0107              1168.5608              1177.4986
 Red. masses --      1.7441                 2.3611                 2.7900
 Frc consts  --      1.3191                 1.8997                 2.2792
 IR Inten    --     14.0631                21.3586                84.3873

                     61                     62                     63
                      A                      A                      A
 Frequencies --   1185.3832              1193.0574              1196.5735
 Red. masses --      2.9626                 1.1005                 1.3284
 Frc consts  --      2.4527                 0.9229                 1.1206
 IR Inten    --     64.9897                 0.3028                 2.1048

                     64                     65                     66
                      A                      A                      A
 Frequencies --   1207.0292              1217.9612              1234.0066
 Red. masses --      2.2371                 1.1385                 2.5272
 Frc consts  --      1.9203                 0.9951                 2.2674
 IR Inten    --      2.0345                 1.6588                11.2955

                     67                     68                     69
                      A                      A                      A
 Frequencies --   1256.6969              1269.3641              1274.1037
 Red. masses --      1.3514                 1.2667                 1.3046
 Frc consts  --      1.2575                 1.2025                 1.2477
 IR Inten    --     28.2032                 2.0810                 0.7705

                     70                     71                     72
                      A                      A                      A
 Frequencies --   1290.1584              1303.4128              1303.7323
 Red. masses --      1.3712                 1.4828                 1.4465
 Frc consts  --      1.3447                 1.4842                 1.4486
 IR Inten    --      0.6343                 0.5637                 2.3691

                     73                     74                     75
                      A                      A                      A
 Frequencies --   1307.0759              1323.9917              1356.0853
 Red. masses --      1.3581                 1.8671                 1.2980
 Frc consts  --      1.3670                 1.9284                 1.4064
 IR Inten    --      2.1640                 3.5694                10.3836

                     76                     77                     78
                      A                      A                      A
 Frequencies --   1368.4873              1372.1433              1385.7810
 Red. masses --      2.1388                 1.2252                 1.3869
 Frc consts  --      2.3600                 1.3591                 1.5693
 IR Inten    --      2.3624                22.7971                38.8918

                     79                     80                     81
                      A                      A                      A
 Frequencies --   1397.2237              1402.2684              1415.0652
 Red. masses --      1.4725                 1.2680                 1.3182
 Frc consts  --      1.6937                 1.4690                 1.5552
 IR Inten    --     22.3784                 9.3585                14.2744

                     82                     83                     84
                      A                      A                      A
 Frequencies --   1436.5433              1437.7733              1442.8774
 Red. masses --      1.2483                 1.2776                 1.2985
 Frc consts  --      1.5178                 1.5561                 1.5927
 IR Inten    --     11.9778                 4.3496                11.3771

                     85                     86                     87
                      A                      A                      A
 Frequencies --   1490.6657              1502.1963              1503.1725
 Red. masses --      1.0906                 1.1211                 1.3569
 Frc consts  --      1.4278                 1.4906                 1.8064
 IR Inten    --      2.1446                10.6368                11.9147

                     88                     89                     90
                      A                      A                      A
 Frequencies --   1506.1833              1514.8713              1521.1717
 Red. masses --      1.5833                 1.0906                 1.0626
 Frc consts  --      2.1163                 1.4746                 1.4487
 IR Inten    --     17.3458                 4.2788                 1.2912

                     91                     92                     93
                      A                      A                      A
 Frequencies --   1526.0651              1530.3161              1530.8246
 Red. masses --      1.0733                 1.1295                 1.0582
 Frc consts  --      1.4727                 1.5584                 1.4610
 IR Inten    --      7.8082                 4.4449                 3.8839

                     94                     95                     96
                      A                      A                      A
 Frequencies --   1538.2795              1542.4849              1544.7094
 Red. masses --      1.0875                 1.0953                 1.9904
 Frc consts  --      1.5162                 1.5354                 2.7982
 IR Inten    --      5.4329                 7.4541                10.0672

                     97                     98                     99
                      A                      A                      A
 Frequencies --   1643.9117              1664.6757              2996.1055
 Red. masses --      5.4212                 5.5198                 1.0835
 Frc consts  --      8.6318                 9.0123                 5.7304
 IR Inten    --      0.6392                 2.2933                29.2771

                    100                    101                    102
                      A                      A                      A
 Frequencies --   3023.9067              3028.1134              3042.5193
 Red. masses --      1.0648                 1.0854                 1.0445
 Frc consts  --      5.7369                 5.8640                 5.6968
 IR Inten    --     61.4214                47.4216                34.0906

                    103                    104                    105
                      A                      A                      A
 Frequencies --   3044.8688              3049.9397              3057.3191
 Red. masses --      1.0714                 1.0479                 1.0612
 Frc consts  --      5.8525                 5.7435                 5.8441
 IR Inten    --      6.4837                48.9178                27.5976

                    106                    107                    108
                      A                      A                      A
 Frequencies --   3067.2790              3072.6607              3077.1607
 Red. masses --      1.0979                 1.0615                 1.0582
 Frc consts  --      6.0856                 5.9045                 5.9034
 IR Inten    --     31.4313                44.7450                37.3033

                    109                    110                    111
                      A                      A                      A
 Frequencies --   3082.7116              3095.8867              3099.5387
 Red. masses --      1.0640                 1.1002                 1.1013
 Frc consts  --      5.9574                 6.2131                 6.2337
 IR Inten    --     22.8717                12.5420                48.0462

                    112                    113                    114
                      A                      A                      A
 Frequencies --   3114.1473              3120.2795              3130.5441
 Red. masses --      1.1007                 1.1078                 1.1017
 Frc consts  --      6.2893                 6.3545                 6.3611
 IR Inten    --     37.7279                 4.0898                42.9486

                    115                    116                    117
                      A                      A                      A
 Frequencies --   3135.9681              3145.2047              3157.0654
 Red. masses --      1.1068                 1.1057                 1.0974
 Frc consts  --      6.4133                 6.4442                 6.4442
 IR Inten    --     25.3355                62.6433                23.0490

                    118                    119                    120
                      A                      A                      A
 Frequencies --   3168.1846              3181.3219              3191.7858
 Red. masses --      1.0868                 1.0867                 1.0918
 Frc consts  --      6.4271                 6.4799                 6.5533
 IR Inten    --     10.5313                 0.7439                32.4020

                    121                    122                    123
                      A                      A                      A
 Frequencies --   3206.1773              3232.2887              3529.0219
 Red. masses --      1.0968                 1.0918                 1.0732
 Frc consts  --      6.6430                 6.7204                 7.8750
 IR Inten    --     32.2046                 3.3068                 3.9375

 - Thermochemistry -
 -------------------
 Temperature   298.150 Kelvin.  Pressure   1.00000 Atm.
 Atom     1 has atomic number  6 and mass  12.00000

 Molecular mass:   247.19361 amu.
 Principal axes and moments of inertia in atomic units:
                           1         2         3
     Eigenvalues --  3386.093546431.661066744.20339
           X            0.99981   0.01799   0.00787
           Y           -0.01678   0.99096  -0.13309
           Z           -0.01019   0.13293   0.99107
 This molecule is an asymmetric top.
 Rotational symmetry number  1.
 Warning -- assumption of classical behavior for rotation
           may cause significant error
 Rotational temperatures (Kelvin)      0.02558     0.01347     0.01284
 Rotational constants (GHZ):           0.53299     0.28060     0.26760
 Zero-point vibrational energy    1013423.0 (Joules/Mol)
                                  242.21390 (Kcal/Mol)
 Warning -- explicit consideration of  26 degrees of freedom as
           vibrations may cause significant error
 Vibrational temperatures:     36.31    52.16    72.30    87.05    95.53
          (Kelvin)             98.93   118.30   149.78   181.44   229.20
                              260.15   304.37   321.40   345.03   377.72
                              389.67   413.51   473.08   512.77   595.01
                              601.57   656.62   675.26   722.30   760.91
                              860.04   916.12   990.52   999.33  1028.66
                             1053.50  1075.03  1117.95  1120.21  1167.85
                             1180.37  1237.37  1245.73  1290.85  1292.69
                             1323.70  1340.13  1354.43  1375.42  1385.64
                             1399.22  1423.51  1432.85  1471.60  1486.37
                             1504.94  1526.50  1533.92  1556.90  1585.94
                             1602.13  1610.31  1630.15  1681.30  1694.16
                             1705.50  1716.54  1721.60  1736.65  1752.37
                             1775.46  1808.11  1826.33  1833.15  1856.25
                             1875.32  1875.78  1880.59  1904.93  1951.10
                             1968.95  1974.21  1993.83  2010.29  2017.55
                             2035.96  2066.87  2068.64  2075.98  2144.74
                             2161.33  2162.73  2167.06  2179.56  2188.63
                             2195.67  2201.78  2202.52  2213.24  2219.29
                             2222.49  2365.22  2395.10  4310.73  4350.73
                             4356.78  4377.51  4380.89  4388.18  4398.80
                             4413.13  4420.87  4427.35  4435.33  4454.29
                             4459.54  4480.56  4489.39  4504.15  4511.96
                             4525.25  4542.31  4558.31  4577.21  4592.27
                             4612.97  4650.54  5077.48

 Zero-point correction=                           0.385992 (Hartree/Particle)
 Thermal correction to Energy=                    0.404787
 Thermal correction to Enthalpy=                  0.405731
 Thermal correction to Gibbs Free Energy=         0.337383
 Sum of electronic and zero-point Energies=           -754.386995
 Sum of electronic and thermal Energies=              -754.368201
 Sum of electronic and thermal Enthalpies=            -754.367257
 Sum of electronic and thermal Free Energies=         -754.435604

                     E (Thermal)             CV                S
                      KCal/Mol        Cal/Mol-Kelvin    Cal/Mol-Kelvin
 Total                  254.007             71.139            143.849
 Electronic               0.000              0.000              0.000
 Translational            0.889              2.981             42.416
 Rotational               0.889              2.981             33.351
 Vibrational            252.230             65.177             68.083
 Vibration     1          0.593              1.985              6.172
 Vibration     2          0.594              1.982              5.454
 Vibration     3          0.595              1.977              4.807
 Vibration     4          0.597              1.973              4.441
 Vibration     5          0.598              1.970              4.258
 Vibration     6          0.598              1.969              4.189
 Vibration     7          0.600              1.961              3.837
 Vibration     8          0.605              1.946              3.376
 Vibration     9          0.611              1.927              3.005
 Vibration    10          0.621              1.892              2.558
 Vibration    11          0.630              1.866              2.320
 Vibration    12          0.643              1.823              2.030
 Vibration    13          0.649              1.805              1.932
 Vibration    14          0.657              1.780              1.804
 Vibration    15          0.670              1.741              1.645
 Vibration    16          0.675              1.727              1.591
 Vibration    17          0.685              1.697              1.489
 Vibration    18          0.712              1.618              1.266
 Vibration    19          0.732              1.562              1.138
 Vibration    20          0.777              1.441              0.914
 Vibration    21          0.781              1.431              0.898
 Vibration    22          0.815              1.347              0.777
 Vibration    23          0.826              1.318              0.739
 Vibration    24          0.857              1.246              0.653
 Vibration    25          0.884              1.186              0.590
 Vibration    26          0.956              1.037              0.454

                           ! Non-Optimized Parameters !
 Normal termination of Gaussian 16 at Fri Dec 11 19:20:01 2020.

 ----------------------------------------------------------------------
 # B3LYP/6-311++G(d,p) empiricaldispersion=gd3bj scf=xqc pop=npa geom=c
 heck
 ----------------------------------------------------------------------

 --------------------------------------
 CID_62114902_JID_8093_Energie_neutraal
 --------------------------------------
 Structure from the checkpoint file:  "JID_8093.chk"
 Charge =  0 Multiplicity = 1

 SCF Done:  E(RB3LYP) =  -754.978943920     A.U. after   14 cycles
 Normal termination of Gaussian 16 at Fri Dec 11 19:31:00 2020.

 ----------------------------------------------------------------------
 # B3LYP/6-311++G(d,p) empiricaldispersion=gd3bj scf=xqc pop=npa geom=c
 heck
 ----------------------------------------------------------------------

 ------------------------------------
 CID_62114902_JID_8093_Energie_kation
 ------------------------------------
 Structure from the checkpoint file:  "JID_8093.chk"
 Charge =  1 Multiplicity = 2

 SCF Done:  E(UB3LYP) =  -754.696213179     A.U. after   26 cycles
 Normal termination of Gaussian 16 at Fri Dec 11 20:00:11 2020.
 Gaussian 16:  ES64L-G16RevA.03 25-Dec-2016

 ----------------------------------------------------------------------
 # B3LYP/6-311++G(d,p) empiricaldispersion=gd3bj scf=xqc pop=npa geom=c
 heck
 ----------------------------------------------------------------------

 -----------------------------------
 CID_62114902_JID_8093_Energie_anion
 -----------------------------------
 Structure from the checkpoint file:  "JID_8093.chk"
 Charge = -1 Multiplicity = 2

                         Standard orientation:
 ---------------------------------------------------------------------
 Center     Atomic      Atomic             Coordinates (Angstroms)
 Number     Number       Type             X           Y           Z
 ---------------------------------------------------------------------
      1          6           0       -0.164975   -2.293580    2.489795
      2          6           0       -0.939779   -1.692372    1.313510
      3          6           0       -0.845589   -0.165041    1.235473
      4          6           0        0.593186    0.375191    1.124639
      5          6           0        1.413608   -0.291542    0.022744
      6          6           0        2.647650   -0.869780    0.338154
      7          6           0        3.457536   -1.430667   -0.651420
      8          6           0        3.035313   -1.425795   -1.979841
      9          6           0        1.799345   -0.861347   -2.306687
     10          6           0        0.996761   -0.298037   -1.317184
     11          7           0        0.507787    1.833145    1.074106
     12          6           0        1.759947    2.585971    1.087824
     13          6           0        2.478908    2.772594   -0.256962
     14          8           0       -1.565658    0.365707    0.118510
     15          6           0       -2.978311    0.286558    0.191688
     16          6           0       -3.602830    1.275726   -0.820863
     17          6           0       -3.843032    0.096946   -1.802083
     18          6           0       -3.589398   -0.888220   -0.628981
     19          1           0        0.915999   -2.189157    2.354644
     20          1           0       -0.381807   -3.362272    2.590111
     21          1           0       -0.436109   -1.808698    3.435920
     22          1           0       -0.582780   -2.116996    0.368608
     23          1           0       -1.998038   -1.964056    1.404335
     24          1           0       -1.271268    0.272475    2.152676
     25          1           0        1.083247    0.129469    2.075291
     26          1           0        2.985454   -0.867811    1.372404
     27          1           0        4.415928   -1.867554   -0.383796
     28          1           0        3.661232   -1.859032   -2.755064
     29          1           0        1.460942   -0.858676   -3.339602
     30          1           0        0.037184    0.136318   -1.572415
     31          1           0       -0.086242    2.106096    0.295716
     32          1           0        1.541862    3.578544    1.506152
     33          1           0        2.431907    2.095731    1.803936
     34          1           0        1.801574    3.223219   -0.993521
     35          1           0        3.335912    3.447579   -0.139292
     36          1           0        2.839465    1.827351   -0.667818
     37          1           0       -3.297818    0.378465    1.239004
     38          1           0       -4.534277    1.711831   -0.446283
     39          1           0       -2.936756    2.080454   -1.144826
     40          1           0       -3.064806    0.033504   -2.568075
     41          1           0       -4.819939    0.047258   -2.291587
     42          1           0       -2.922066   -1.731574   -0.819811
     43          1           0       -4.518097   -1.259755   -0.182340
 ---------------------------------------------------------------------

 SCF Done:  E(UB3LYP) =  -754.964046295     A.U. after   33 cycles
 SCF Done:  E(UB3LYP) =  -754.964046295     a.u. after    1 cycles

 The electronic state is 2-A.
 Alpha  occ. eigenvalues --  -19.03333 -14.20171 -10.13022 -10.12991 -10.11205
 Alpha  occ. eigenvalues --  -10.10310 -10.08665 -10.08390 -10.08363 -10.08309
 Alpha  occ. eigenvalues --  -10.08174 -10.07759 -10.07618 -10.07565 -10.07438
 Alpha  occ. eigenvalues --  -10.07333 -10.07090 -10.06678  -0.94916  -0.81773
 Alpha  occ. eigenvalues --   -0.76379  -0.74886  -0.70238  -0.66956  -0.65535
 Alpha  occ. eigenvalues --   -0.64788  -0.60900  -0.57449  -0.56380  -0.54883
 Alpha  occ. eigenvalues --   -0.52518  -0.51365  -0.50431  -0.47937  -0.46058
 Alpha  occ. eigenvalues --   -0.42658  -0.41618  -0.40455  -0.38937  -0.37889
 Alpha  occ. eigenvalues --   -0.37113  -0.36189  -0.35613  -0.34692  -0.34142
 Alpha  occ. eigenvalues --   -0.33450  -0.33066  -0.31599  -0.30640  -0.30512
 Alpha  occ. eigenvalues --   -0.29672  -0.28891  -0.28392  -0.27735  -0.27477
 Alpha  occ. eigenvalues --   -0.26661  -0.25882  -0.25570  -0.24967  -0.24848
 Alpha  occ. eigenvalues --   -0.24442  -0.22535  -0.22205  -0.20892  -0.16644
 Alpha  occ. eigenvalues --   -0.16408  -0.16015  -0.12938   0.04096
 Alpha virt. eigenvalues --    0.05592   0.06164   0.06593   0.07216   0.07313
 Alpha virt. eigenvalues --    0.07574   0.07745   0.08091   0.08437   0.09182
 Alpha virt. eigenvalues --    0.09520   0.09685   0.10265   0.10741   0.11267

  Beta  occ. eigenvalues --  -19.03326 -14.20168 -10.13017 -10.12983 -10.11200
  Beta  occ. eigenvalues --  -10.10302 -10.08666 -10.08378 -10.08350 -10.08297
  Beta  occ. eigenvalues --  -10.08162 -10.07755 -10.07602 -10.07550 -10.07431
  Beta  occ. eigenvalues --  -10.07317 -10.07069 -10.06669  -0.94905  -0.81764
  Beta  occ. eigenvalues --   -0.76361  -0.74863  -0.70221  -0.66937  -0.65510
  Beta  occ. eigenvalues --   -0.64770  -0.60875  -0.57411  -0.56352  -0.54845
  Beta  occ. eigenvalues --   -0.52491  -0.51335  -0.50399  -0.47908  -0.46020
  Beta  occ. eigenvalues --   -0.42621  -0.41584  -0.40426  -0.38905  -0.37872
  Beta  occ. eigenvalues --   -0.37087  -0.36166  -0.35590  -0.34673  -0.34121
  Beta  occ. eigenvalues --   -0.33433  -0.33038  -0.31575  -0.30618  -0.30495
  Beta  occ. eigenvalues --   -0.29644  -0.28870  -0.28377  -0.27704  -0.27456
  Beta  occ. eigenvalues --   -0.26634  -0.25861  -0.25550  -0.24942  -0.24833
  Beta  occ. eigenvalues --   -0.24415  -0.22510  -0.22187  -0.20859  -0.16630
  Beta  occ. eigenvalues --   -0.16396  -0.16003  -0.12928
  Beta virt. eigenvalues --    0.05960   0.06609   0.06682   0.06872   0.07291
  Beta virt. eigenvalues --    0.07582   0.07919   0.08135   0.08336   0.08715
  Beta virt. eigenvalues --    0.09523   0.09657   0.09991   0.10570   0.10979

 Mulliken charges and spin densities:
               1          2
     1  C    0.227937  -0.976789
     2  C   -0.998760   0.762289
     3  C    0.828560  -1.097131
     4  C   -0.338415  -0.136534
     5  C    0.672008   0.225159
     6  C   -0.723894   0.491397
     7  C    0.032755  -0.486475
     8  C    1.252586  -1.592757
     9  C   -0.591546  -0.025952
    10  C   -0.728572   0.540188
    11  N    0.062918  -0.068038
    12  C   -0.123741   0.101694
    13  C   -0.183841  -0.379531
    14  O    0.027497  -0.000660
    15  C   -0.056432   0.219061
    16  C    0.189348  -0.562118
    17  C    0.212979  -0.573282
    18  C    0.122210  -0.389429
    19  H    0.027261   0.114926
    20  H   -0.266067   0.408704
    21  H   -0.056368   0.196490
    22  H    0.232029  -0.081172
    23  H   -0.029885   0.197471
    24  H    0.184934   0.052902
    25  H    0.151970   0.088029
    26  H   -0.196753   0.361414
    27  H   -0.738222   0.930902
    28  H   -0.232473   0.391938
    29  H   -0.360097   0.539199
    30  H    0.624228  -0.372492
    31  H    0.326278  -0.117314
    32  H    0.049082   0.130368
    33  H   -0.024806   0.117258
    34  H   -0.029765   0.149487
    35  H   -0.039209   0.164076
    36  H    0.290265  -0.119700
    37  H   -0.158374   0.309391
    38  H   -0.250012   0.399499
    39  H   -0.022283   0.143568
    40  H   -0.057389   0.179470
    41  H   -0.073502   0.227191
    42  H    0.053828   0.097361
    43  H   -0.288267   0.439942
 Sum of Mulliken charges =  -1.00000   1.00000

 Dipole moment (field-independent basis, Debye):
    X=              0.0970    Y=              2.7400    Z=              0.2749  Tot=              2.7554
 Quadrupole moment (field-independent basis, Debye-Ang):
   XX=           -209.6528   YY=           -159.2130   ZZ=           -159.6032
   XY=              9.2046   XZ=              3.1154   YZ=              0.8037

 Summary of Natural Population Analysis:

                                       Natural Population
                Natural  -----------------------------------------------
    Atom  No    Charge         Core      Valence    Rydberg      Total
 -----------------------------------------------------------------------
      C    1   -0.28703      0.99966     2.28241    0.00496     3.28703
      C    2   -0.20647      0.99961     2.19851    0.00835     3.20647
      C    3    0.07759      0.99951     1.90826    0.01464     2.92241
      C    4   -0.02160      0.99952     2.00727    0.01481     3.02160
      C    5   -0.02581      0.99949     2.01276    0.01357     3.02581
      C    6   -0.10314      0.99950     2.09328    0.01036     3.10314
      C    7   -0.09890      0.99956     2.08859    0.01075     3.09890
      C    8   -0.10483      0.99956     2.09516    0.01011     3.10483
      C    9   -0.09951      0.99956     2.08978    0.01017     3.09951
      C   10   -0.10303      0.99950     2.09359    0.00995     3.10303
      N   11   -0.33898      0.99974     2.82818    0.01106     3.83898
      C   12   -0.08555      0.99964     2.07652    0.00939     3.08555
      C   13   -0.29459      0.99966     2.29076    0.00417     3.29459
      O   14   -0.31806      0.99986     3.30626    0.01193     4.31806
      C   15    0.06958      0.99955     1.91624    0.01462     2.93042
      C   16   -0.19457      0.99963     2.18645    0.00849     3.19457
      C   17   -0.19188      0.99965     2.18450    0.00773     3.19188
      C   18   -0.20195      0.99963     2.19412    0.00821     3.20195
      H   19    0.09960      0.00000     0.39921    0.00119     0.40040
      H   20    0.10096      0.00000     0.39830    0.00074     0.39904
      H   21    0.09598      0.00000     0.40306    0.00096     0.40402
      H   22    0.10301      0.00000     0.39558    0.00141     0.39699
      H   23    0.09948      0.00000     0.39913    0.00139     0.40052
      H   24    0.08586      0.00000     0.41201    0.00212     0.41414
      H   25    0.09889      0.00000     0.39915    0.00196     0.40111
      H   26    0.09980      0.00000     0.39818    0.00202     0.40020
      H   27    0.10310      0.00000     0.39527    0.00163     0.39690
      H   28    0.10171      0.00000     0.39714    0.00115     0.39829
      H   29    0.10062      0.00000     0.39845    0.00093     0.39938
      H   30    0.11179      0.00000     0.38619    0.00201     0.38821
      H   31    0.17892      0.00000     0.31803    0.00305     0.32108
      H   32    0.08744      0.00000     0.41146    0.00110     0.41256
      H   33    0.08978      0.00000     0.40892    0.00129     0.41022
      H   34    0.09336      0.00000     0.40540    0.00124     0.40664
      H   35    0.09503      0.00000     0.40394    0.00102     0.40497
      H   36    0.10526      0.00000     0.39326    0.00148     0.39474
      H   37    0.08261      0.00000     0.41566    0.00173     0.41739
      H   38    0.10047      0.00000     0.39817    0.00135     0.39953
      H   39    0.10076      0.00000     0.39813    0.00111     0.39924
      H   40    0.09669      0.00000     0.40192    0.00139     0.40331
      H   41    0.09620      0.00000     0.40252    0.00128     0.40380
      H   42    0.10166      0.00000     0.39707    0.00127     0.39834
      H   43    0.09971      0.00000     0.39872    0.00157     0.40029
 =======================================================================
   * Total *   -0.00000     17.99281    49.78751    0.21968    68.00000

 Normal termination of Gaussian 16 at Fri Dec 11 20:37:23 2020.
