 Gaussian 16, Revision A.03,

 -----------------------------------------------------------
 # opt freq B3LYP/6-31G(d) empiricaldispersion=gd3bj scf=xqc
 -----------------------------------------------------------

 -------------------------------
 CID_123359010_JID_6996_neutraal
 -------------------------------
 Symbolic Z-matrix:
 Charge =  0 Multiplicity = 1

 SCF Done:  E(RB3LYP) =  -1025.18238892     A.U. after   16 cycles
 SCF Done:  E(RB3LYP) =  -1025.19689561     A.U. after   15 cycles
 SCF Done:  E(RB3LYP) =  -1025.19974652     A.U. after   13 cycles
 SCF Done:  E(RB3LYP) =  -1025.20093207     A.U. after   14 cycles
 SCF Done:  E(RB3LYP) =  -1025.20355899     A.U. after   15 cycles
 SCF Done:  E(RB3LYP) =  -1025.20551168     A.U. after   12 cycles
 SCF Done:  E(RB3LYP) =  -1025.20637208     A.U. after   13 cycles
 SCF Done:  E(RB3LYP) =  -1025.20645439     A.U. after   11 cycles
 SCF Done:  E(RB3LYP) =  -1025.20648108     A.U. after   11 cycles
 SCF Done:  E(RB3LYP) =  -1025.20649618     A.U. after   11 cycles
 SCF Done:  E(RB3LYP) =  -1025.20650259     A.U. after    9 cycles
 SCF Done:  E(RB3LYP) =  -1025.20650295     A.U. after    7 cycles
 SCF Done:  E(RB3LYP) =  -1025.20650457     A.U. after    9 cycles
 Optimization completed.
    -- Stationary point found.
 Normal termination of Gaussian 16 at Sun Dec 13 12:24:25 2020.

 --------------------------------------------------------------------
 #N Geom=AllCheck Guess=TCheck SCRF=Check GenChk RB3LYP/6-31G(d) Freq
 --------------------------------------------------------------------

 Structure from the checkpoint file:  "JID_6996.chk"
 -------------------------------
 CID_123359010_JID_6996_neutraal
 -------------------------------
 Charge =  0 Multiplicity = 1

 SCF Done:  E(RB3LYP) =  -1025.20650457     A.U. after    1 cycles

  Exact polarizability: 397.689  -0.001 134.651   0.598   0.001  61.950
 Approx polarizability: 557.311  -0.011 246.967   0.570   0.001  95.347

 ******    1 imaginary frequencies (negative Signs) ******

                      1                      2                      3
                      A                      A                      A
 Frequencies --    -32.1986                16.4616                25.8342
 Red. masses --     10.9661                 1.0227                 8.0416
 Frc consts  --      0.0067                 0.0002                 0.0032
 IR Inten    --      0.0305                 0.4286                 0.0014

                      4                      5                      6
                      A                      A                      A
 Frequencies --     58.2895                65.7318               120.2908
 Red. masses --      4.4161                 6.1097                 5.0789
 Frc consts  --      0.0088                 0.0156                 0.0433
 IR Inten    --      0.0061                 1.5193                 0.7061

                      7                      8                      9
                      A                      A                      A
 Frequencies --    142.0506               232.5096               275.8572
 Red. masses --      6.1140                10.2348                 5.0817
 Frc consts  --      0.0727                 0.3260                 0.2278
 IR Inten    --      0.9516                 0.4889                 0.8995

                     10                     11                     12
                      A                      A                      A
 Frequencies --    303.3941               366.9054               384.0919
 Red. masses --      3.3484                 5.4819                 5.9977
 Frc consts  --      0.1816                 0.4348                 0.5213
 IR Inten    --      0.3078                 0.4341                 2.5168

                     13                     14                     15
                      A                      A                      A
 Frequencies --    413.9174               420.2334               423.5962
 Red. masses --      4.1532                 3.2332                12.3298
 Frc consts  --      0.4192                 0.3364                 1.3035
 IR Inten    --      0.0282                 0.0196                 2.9640

                     16                     17                     18
                      A                      A                      A
 Frequencies --    428.4977               451.4854               487.3366
 Red. masses --     10.4617                 7.4067                 3.0364
 Frc consts  --      1.1317                 0.8895                 0.4249
 IR Inten    --      8.0223                20.1287                 2.9750

                     19                     20                     21
                      A                      A                      A
 Frequencies --    490.4038               566.1869               622.0093
 Red. masses --      4.7412                 2.4451                 5.6661
 Frc consts  --      0.6718                 0.4618                 1.2916
 IR Inten    --      0.2865                 1.4265                 6.0036

                     22                     23                     24
                      A                      A                      A
 Frequencies --    652.0837               673.5507               732.1665
 Red. masses --      7.3901                 9.1180                 4.2836
 Frc consts  --      1.8514                 2.4372                 1.3529
 IR Inten    --      0.8489                 6.6778                 0.2258

                     25                     26                     27
                      A                      A                      A
 Frequencies --    752.1329               819.5818               848.2246
 Red. masses --      6.7528                 3.7631                 1.2462
 Frc consts  --      2.2507                 1.4893                 0.5283
 IR Inten    --     26.1396                43.6882                 0.0000

                     28                     29                     30
                      A                      A                      A
 Frequencies --    849.6546               875.7763               936.7481
 Red. masses --      7.8955                 1.9336                 1.4080
 Frc consts  --      3.3582                 0.8738                 0.7279
 IR Inten    --     18.1387                22.9519                 3.1225

                     31                     32                     33
                      A                      A                      A
 Frequencies --    949.2490               987.4265               993.8867
 Red. masses --      8.3475                 1.3189                 1.3231
 Frc consts  --      4.4317                 0.7577                 0.7701
 IR Inten    --     96.9738                 0.0000                 0.2046

                     34                     35                     36
                      A                      A                      A
 Frequencies --    996.3980              1022.3790              1037.3622
 Red. masses --      1.3674                 1.4147                 2.9212
 Frc consts  --      0.7999                 0.8712                 1.8522
 IR Inten    --      0.0042                 4.0855                 3.8137

                     37                     38                     39
                      A                      A                      A
 Frequencies --   1063.0500              1080.7030              1097.6632
 Red. masses --      4.0913                 1.5464                 3.5128
 Frc consts  --      2.7241                 1.0641                 2.4937
 IR Inten    --      4.0548                12.5328                 6.8576

                     40                     41                     42
                      A                      A                      A
 Frequencies --   1138.5439              1202.8780              1262.8119
 Red. masses --      1.3036                 1.1437                 5.7453
 Frc consts  --      0.9956                 0.9750                 5.3981
 IR Inten    --      6.8787                26.8104                 0.5224

                     43                     44                     45
                      A                      A                      A
 Frequencies --   1273.4466              1289.0906              1310.3721
 Red. masses --      2.5800                 2.4323                 4.2487
 Frc consts  --      2.4651                 2.3814                 4.2983
 IR Inten    --      3.3980                 5.9177                 2.5621

                     46                     47                     48
                      A                      A                      A
 Frequencies --   1334.1343              1356.1542              1369.7960
 Red. masses --      1.5339                 3.1743                 3.2101
 Frc consts  --      1.6086                 3.4397                 3.5488
 IR Inten    --      2.2620                 0.0011                61.3894

                     49                     50                     51
                      A                      A                      A
 Frequencies --   1432.1205              1446.1499              1463.2866
 Red. masses --      2.3009                 1.2374                 3.2383
 Frc consts  --      2.7804                 1.5248                 4.0853
 IR Inten    --      5.2441                11.0451                 1.4954

                     52                     53                     54
                      A                      A                      A
 Frequencies --   1482.1204              1515.0588              1519.5405
 Red. masses --      3.4894                 1.0481                 1.1375
 Frc consts  --      4.5161                 1.4175                 1.5474
 IR Inten    --    470.2763                 6.6510                 1.8616

                     55                     56                     57
                      A                      A                      A
 Frequencies --   1555.6941              1590.4136              1623.1319
 Red. masses --      2.8095                 5.0253                 7.1209
 Frc consts  --      4.0061                 7.4892                11.0533
 IR Inten    --      3.4472                43.2119                25.1030

                     58                     59                     60
                      A                      A                      A
 Frequencies --   1646.7386              1666.4040              2262.0606
 Red. masses --      5.2545                 5.8742                12.8698
 Frc consts  --      8.3952                 9.6108                38.8000
 IR Inten    --    167.5964                15.9082              2349.1603

                     61                     62                     63
                      A                      A                      A
 Frequencies --   3047.2827              3105.5039              3130.4769
 Red. masses --      1.0394                 1.0971                 1.1029
 Frc consts  --      5.6865                 6.2340                 6.3681
 IR Inten    --     32.7754                16.3477                10.1579

                     64                     65                     66
                      A                      A                      A
 Frequencies --   3156.8109              3159.3007              3218.2994
 Red. masses --      1.0907                 1.0916                 1.0899
 Frc consts  --      6.4041                 6.4191                 6.6513
 IR Inten    --     35.1305                52.9745                 5.9439

                     67                     68                     69
                      A                      A                      A
 Frequencies --   3219.0042              3239.4008              3240.4914
 Red. masses --      1.0901                 1.0925                 1.0937
 Frc consts  --      6.6554                 6.7546                 6.7668
 IR Inten    --      3.7162                 1.8039                 0.9904

 - Thermochemistry -
 -------------------
 Temperature   298.150 Kelvin.  Pressure   1.00000 Atm.
 Atom     1 has atomic number  6 and mass  12.00000

 Molecular mass:   227.05172 amu.
 Principal axes and moments of inertia in atomic units:
                           1         2         3
     Eigenvalues --   623.83479********************
           X            1.00000   0.00000   0.00022
           Y           -0.00000   1.00000   0.00001
           Z           -0.00022  -0.00001   1.00000
 This molecule is an asymmetric top.
 Rotational symmetry number  1.
 Warning -- assumption of classical behavior for rotation
           may cause significant error
 Rotational temperatures (Kelvin)      0.13884     0.00705     0.00672
 Rotational constants (GHZ):           2.89298     0.14693     0.13995
    1 imaginary frequencies ignored.
 Zero-point vibrational energy     489988.2 (Joules/Mol)
                                  117.11000 (Kcal/Mol)
 Warning -- explicit consideration of  19 degrees of freedom as
           vibrations may cause significant error
 Vibrational temperatures:     23.68    37.17    83.87    94.57   173.07
          (Kelvin)            204.38   334.53   396.90   436.52   527.90
                              552.62   595.53   604.62   609.46   616.51
                              649.59   701.17   705.58   814.62   894.93
                              938.20   969.09  1053.42  1082.15  1179.20
                             1220.41  1222.46  1260.05  1347.77  1365.76
                             1420.69  1429.98  1433.59  1470.98  1492.53
                             1529.49  1554.89  1579.29  1638.11  1730.67
                             1816.90  1832.21  1854.71  1885.33  1919.52
                             1951.20  1970.83  2060.50  2080.69  2105.34
                             2132.44  2179.83  2186.28  2238.30  2288.25
                             2335.32  2369.29  2397.58  3254.60  4384.36
                             4468.13  4504.06  4541.95  4545.53  4630.42
                             4631.43  4660.78  4662.34

 Zero-point correction=                           0.186627 (Hartree/Particle)
 Thermal correction to Energy=                    0.199712
 Thermal correction to Enthalpy=                  0.200656
 Thermal correction to Gibbs Free Energy=         0.143783
 Sum of electronic and zero-point Energies=          -1025.019878
 Sum of electronic and thermal Energies=             -1025.006793
 Sum of electronic and thermal Enthalpies=           -1025.005848
 Sum of electronic and thermal Free Energies=        -1025.062722

                     E (Thermal)             CV                S
                      KCal/Mol        Cal/Mol-Kelvin    Cal/Mol-Kelvin
 Total                  125.321             49.061            119.700
 Electronic               0.000              0.000              0.000
 Translational            0.889              2.981             42.162
 Rotational               0.889              2.981             32.957
 Vibrational            123.544             43.100             44.580
 Vibration     1          0.593              1.986              7.021
 Vibration     2          0.593              1.985              6.126
 Vibration     3          0.596              1.974              4.514
 Vibration     4          0.597              1.971              4.277
 Vibration     5          0.609              1.932              3.096
 Vibration     6          0.616              1.911              2.776
 Vibration     7          0.653              1.791              1.859
 Vibration     8          0.677              1.718              1.559
 Vibration     9          0.695              1.667              1.398
 Vibration    10          0.740              1.540              1.093
 Vibration    11          0.753              1.504              1.023
 Vibration    12          0.778              1.440              0.913
 Vibration    13          0.783              1.426              0.891
 Vibration    14          0.786              1.419              0.880
 Vibration    15          0.790              1.408              0.864
 Vibration    16          0.810              1.358              0.791
 Vibration    17          0.843              1.278              0.691
 Vibration    18          0.846              1.271              0.683
 Vibration    19          0.922              1.104              0.512

                           ! Non-Optimized Parameters !
 Normal termination of Gaussian 16 at Sun Dec 13 12:31:07 2020.

 ----------------------------------------------------------------------
 # B3LYP/6-311++G(d,p) empiricaldispersion=gd3bj scf=xqc pop=npa geom=c
 heck
 ----------------------------------------------------------------------

 ---------------------------------------
 CID_123359010_JID_6996_Energie_neutraal
 ---------------------------------------
 Structure from the checkpoint file:  "JID_6996.chk"
 Charge =  0 Multiplicity = 1

 SCF Done:  E(RB3LYP) =  -1025.38721636     A.U. after   15 cycles
 Normal termination of Gaussian 16 at Sun Dec 13 12:34:12 2020.

 ----------------------------------------------------------------------
 # B3LYP/6-311++G(d,p) empiricaldispersion=gd3bj scf=xqc pop=npa geom=c
 heck
 ----------------------------------------------------------------------

 -------------------------------------
 CID_123359010_JID_6996_Energie_kation
 -------------------------------------
 Structure from the checkpoint file:  "JID_6996.chk"
 Charge =  1 Multiplicity = 2

 SCF Done:  E(UB3LYP) =  -1025.10042733     A.U. after   22 cycles
 Normal termination of Gaussian 16 at Sun Dec 13 12:40:37 2020.
 Gaussian 16:  ES64L-G16RevA.03 25-Dec-2016

 ----------------------------------------------------------------------
 # B3LYP/6-311++G(d,p) empiricaldispersion=gd3bj scf=xqc pop=npa geom=c
 heck
 ----------------------------------------------------------------------

 ------------------------------------
 CID_123359010_JID_6996_Energie_anion
 ------------------------------------
 Structure from the checkpoint file:  "JID_6996.chk"
 Charge = -1 Multiplicity = 2

                         Standard orientation:
 ---------------------------------------------------------------------
 Center     Atomic      Atomic             Coordinates (Angstroms)
 Number     Number       Type             X           Y           Z
 ---------------------------------------------------------------------
      1          6           0        6.233921    0.000176    0.033723
      2          6           0        4.730657    0.000083    0.001645
      3          6           0        3.974113    1.175979   -0.008472
      4          7           0        2.642051    1.191848   -0.012920
      5          6           0        2.018910   -0.000034   -0.009743
      6          7           0        2.642139   -1.191843   -0.012465
      7          6           0        3.974220   -1.175852   -0.008041
      8          6           0        0.539480   -0.000080   -0.007507
      9          6           0       -0.172029    1.209734   -0.005750
     10          6           0       -1.559383    1.217147   -0.002432
     11          6           0       -2.260069   -0.000168   -0.000951
     12          6           0       -1.559305   -1.217441   -0.002826
     13          6           0       -0.171953   -1.209939   -0.006122
     14          7           0       -3.629645   -0.000191    0.002316
     15          6           0       -4.815455   -0.000229    0.005264
     16         16           0       -6.409215    0.000295    0.008824
     17          1           0        6.642180    0.884581   -0.466035
     18          1           0        6.609565    0.004025    1.064956
     19          1           0        6.642065   -0.887951   -0.459451
     20          1           0        4.467782    2.147949   -0.017507
     21          1           0        4.467992   -2.147771   -0.016707
     22          1           0        0.382783    2.140507   -0.007152
     23          1           0       -2.114225    2.149136   -0.001018
     24          1           0       -2.114088   -2.149466   -0.001741
     25          1           0        0.382919   -2.140676   -0.007775
 ---------------------------------------------------------------------

 SCF Done:  E(UB3LYP) =  -1025.41678817     A.U. after   21 cycles

 The electronic state is 2-A.
 Alpha  occ. eigenvalues --  -88.71310 -14.23673 -14.18157 -14.18151 -10.14013
 Alpha  occ. eigenvalues --  -10.09642 -10.09631 -10.09630 -10.09322 -10.08162
 Alpha  occ. eigenvalues --  -10.06191 -10.05039 -10.05038 -10.04094 -10.04090
 Alpha  occ. eigenvalues --  -10.03767  -7.80050  -5.76468  -5.75746  -5.75732
 Alpha  occ. eigenvalues --   -0.85710  -0.85196  -0.75926  -0.73547  -0.70015
 Alpha  occ. eigenvalues --   -0.66734  -0.63220  -0.62428  -0.59724  -0.54114
 Alpha  occ. eigenvalues --   -0.53788  -0.49315  -0.48497  -0.43322  -0.40899
 Alpha  occ. eigenvalues --   -0.40062  -0.34453  -0.34151  -0.33661  -0.32026
 Alpha  occ. eigenvalues --   -0.31583  -0.31341  -0.30812  -0.30632  -0.30057
 Alpha  occ. eigenvalues --   -0.29794  -0.28799  -0.26959  -0.24289  -0.24058
 Alpha  occ. eigenvalues --   -0.22023  -0.19604  -0.18244  -0.18042  -0.14645
 Alpha  occ. eigenvalues --   -0.13632  -0.13251  -0.12281  -0.09821   0.02117
 Alpha virt. eigenvalues --    0.06505   0.07263   0.08892   0.09100   0.09254
 Alpha virt. eigenvalues --    0.09895   0.10570   0.10782   0.11234   0.11244
 Alpha virt. eigenvalues --    0.11875   0.12685   0.13289   0.13733   0.14071

  Beta  occ. eigenvalues --  -88.71280 -14.23786 -14.18025 -14.18018 -10.13732
  Beta  occ. eigenvalues --  -10.09667 -10.09666 -10.09404 -10.09014 -10.08184
  Beta  occ. eigenvalues --  -10.05922 -10.05046 -10.05046 -10.04011 -10.04008
  Beta  occ. eigenvalues --  -10.03604  -7.80024  -5.76463  -5.75729  -5.75629
  Beta  occ. eigenvalues --   -0.85381  -0.85025  -0.75618  -0.73217  -0.69617
  Beta  occ. eigenvalues --   -0.66336  -0.62963  -0.62194  -0.59515  -0.53755
  Beta  occ. eigenvalues --   -0.53711  -0.49019  -0.48414  -0.43088  -0.40754
  Beta  occ. eigenvalues --   -0.39917  -0.34274  -0.34041  -0.33295  -0.31674
  Beta  occ. eigenvalues --   -0.31148  -0.30814  -0.30777  -0.30448  -0.30009
  Beta  occ. eigenvalues --   -0.28955  -0.28757  -0.26850  -0.24066  -0.23234
  Beta  occ. eigenvalues --   -0.21926  -0.18878  -0.17787  -0.16958  -0.13749
  Beta  occ. eigenvalues --   -0.13252  -0.12933  -0.12105  -0.08762
  Beta virt. eigenvalues --    0.06466   0.06950   0.07423   0.08834   0.09075
  Beta virt. eigenvalues --    0.09723   0.09862   0.10531   0.11220   0.11464
  Beta virt. eigenvalues --    0.11982   0.12188   0.12677   0.13257   0.13696

 Mulliken charges and spin densities:
               1          2
     1  C   -0.653772  -0.021848
     2  C    0.333663   0.161169
     3  C   -0.035195  -0.008798
     4  N    0.004312   0.061991
     5  C   -0.486373   0.125357
     6  N    0.004197   0.062609
     7  C   -0.036238  -0.009285
     8  C    0.527982   0.040854
     9  C   -0.338071   0.101338
    10  C   -0.379544   0.022593
    11  C   -0.305715   0.144329
    12  C   -0.379592   0.022470
    13  C   -0.338222   0.101475
    14  N    0.304096  -0.054453
    15  C    0.088032   0.156667
    16  S   -0.649970   0.069345
    17  H    0.124188   0.004390
    18  H    0.124779   0.023712
    19  H    0.124278   0.004278
    20  H    0.151934   0.001006
    21  H    0.151730   0.001035
    22  H    0.181511  -0.004177
    23  H    0.150228  -0.000936
    24  H    0.150219  -0.000928
    25  H    0.181542  -0.004193
 Sum of Mulliken charges =  -1.00000   1.00000

 Dipole moment (field-independent basis, Debye):
    X=              6.8446    Y=             -0.0002    Z=              0.0088  Tot=              6.8446
 Quadrupole moment (field-independent basis, Debye-Ang):
   XX=           -189.8881   YY=           -107.8521   ZZ=           -109.5893
   XY=             -0.0006   XZ=             -0.0673   YZ=              0.0015

 Summary of Natural Population Analysis:

                                       Natural Population
                Natural  -----------------------------------------------
    Atom  No    Charge         Core      Valence    Rydberg      Total
 -----------------------------------------------------------------------
      C    1   -0.29348      0.99965     2.28905    0.00478     3.29348
      C    2   -0.02716      0.99951     2.02031    0.00734     3.02716
      C    3    0.03264      0.99955     1.95404    0.01377     2.96736
      N    4   -0.22897      0.99969     2.71807    0.01121     3.72897
      C    5    0.24884      0.99946     1.73443    0.01726     2.75116
      N    6   -0.22881      0.99969     2.71791    0.01122     3.72881
      C    7    0.03254      0.99955     1.95414    0.01377     2.96746
      C    8   -0.02399      0.99949     2.01406    0.01044     3.02399
      C    9   -0.06832      0.99954     2.06024    0.00854     3.06832
      C   10   -0.10776      0.99954     2.10015    0.00807     3.10776
      C   11    0.10029      0.99945     1.89078    0.00948     2.89971
      C   12   -0.10779      0.99954     2.10018    0.00807     3.10779
      C   13   -0.06830      0.99954     2.06022    0.00854     3.06830
      N   14   -0.21335      0.99948     2.70238    0.01150     3.71335
      C   15    0.16139      0.99950     1.82675    0.01236     2.83861
      S   16   -0.07581      4.99951     3.05873    0.01757     8.07581
      H   17    0.09878      0.00000     0.40020    0.00102     0.40122
      H   18    0.10098      0.00000     0.39801    0.00101     0.39902
      H   19    0.09875      0.00000     0.40022    0.00102     0.40125
      H   20    0.08019      0.00000     0.41861    0.00121     0.41981
      H   21    0.08019      0.00000     0.41861    0.00121     0.41981
      H   22    0.10721      0.00000     0.39154    0.00125     0.39279
      H   23    0.09738      0.00000     0.40161    0.00102     0.40262
      H   24    0.09738      0.00000     0.40161    0.00102     0.40262
      H   25    0.10721      0.00000     0.39153    0.00125     0.39279
 =======================================================================
   * Total *    0.00000     19.99272    38.82337    0.18391    59.00000

 Normal termination of Gaussian 16 at Sun Dec 13 12:46:42 2020.
