 Gaussian 16, Revision A.03,

 -----------------------------------------------------------
 # opt freq B3LYP/6-31G(d) empiricaldispersion=gd3bj scf=xqc
 -----------------------------------------------------------

 -------------------------------
 CID_107467797_JID_8325_neutraal
 -------------------------------
 Symbolic Z-matrix:
 Charge =  0 Multiplicity = 1

 SCF Done:  E(RB3LYP) =  -820.362617668     A.U. after   16 cycles
 SCF Done:  E(RB3LYP) =  -820.369448497     A.U. after   13 cycles
 SCF Done:  E(RB3LYP) =  -820.366354078     A.U. after   16 cycles
 SCF Done:  E(RB3LYP) =  -820.370936804     A.U. after   13 cycles
 SCF Done:  E(RB3LYP) =  -820.372367854     A.U. after   13 cycles
 SCF Done:  E(RB3LYP) =  -820.373151439     A.U. after   13 cycles
 SCF Done:  E(RB3LYP) =  -820.374135926     A.U. after   13 cycles
 SCF Done:  E(RB3LYP) =  -820.374469906     A.U. after   12 cycles
 SCF Done:  E(RB3LYP) =  -820.374826221     A.U. after   12 cycles
 SCF Done:  E(RB3LYP) =  -820.374927306     A.U. after   12 cycles
 SCF Done:  E(RB3LYP) =  -820.375048173     A.U. after   11 cycles
 SCF Done:  E(RB3LYP) =  -820.375055201     A.U. after   10 cycles
 SCF Done:  E(RB3LYP) =  -820.375060956     A.U. after   10 cycles
 SCF Done:  E(RB3LYP) =  -820.375061827     A.U. after    8 cycles
 SCF Done:  E(RB3LYP) =  -820.375062031     A.U. after    8 cycles
 SCF Done:  E(RB3LYP) =  -820.375062073     A.U. after    7 cycles
 Optimization completed.
    -- Stationary point found.
 Normal termination of Gaussian 16 at Fri Dec 11 20:16:18 2020.

 --------------------------------------------------------------------
 #N Geom=AllCheck Guess=TCheck SCRF=Check GenChk RB3LYP/6-31G(d) Freq
 --------------------------------------------------------------------

 Structure from the checkpoint file:  "JID_8325.chk"
 -------------------------------
 CID_107467797_JID_8325_neutraal
 -------------------------------
 Charge =  0 Multiplicity = 1

 SCF Done:  E(RB3LYP) =  -820.375062073     A.U. after    1 cycles

  Exact polarizability: 176.349  -7.974 168.483  28.233  12.798 127.584
 Approx polarizability: 250.088 -11.598 264.972  63.713  38.285 216.340

                      1                      2                      3
                      A                      A                      A
 Frequencies --     20.2948                36.0277                54.1694
 Red. masses --      4.0731                 5.2274                 4.9281
 Frc consts  --      0.0010                 0.0040                 0.0085
 IR Inten    --      0.9590                 2.3208                 0.0996

                      4                      5                      6
                      A                      A                      A
 Frequencies --     63.6751                75.4864                88.7957
 Red. masses --      6.4813                 2.5912                 3.1549
 Frc consts  --      0.0155                 0.0087                 0.0147
 IR Inten    --      2.5605                 1.9048                 0.6750

                      7                      8                      9
                      A                      A                      A
 Frequencies --    110.9024               132.0309               153.2133
 Red. masses --      4.2388                 3.0044                 1.6974
 Frc consts  --      0.0307                 0.0309                 0.0235
 IR Inten    --      1.5972                 3.0475                 1.1046

                     10                     11                     12
                      A                      A                      A
 Frequencies --    159.7035               176.1846               200.7085
 Red. masses --      1.7909                 3.0677                 4.2467
 Frc consts  --      0.0269                 0.0561                 0.1008
 IR Inten    --      1.2848                 2.4319                 3.3173

                     13                     14                     15
                      A                      A                      A
 Frequencies --    234.9299               237.8084               266.3704
 Red. masses --      2.0767                 2.6195                 2.1505
 Frc consts  --      0.0675                 0.0873                 0.0899
 IR Inten    --      0.6495                 1.1769                 0.4942

                     16                     17                     18
                      A                      A                      A
 Frequencies --    292.7050               335.6070               341.7945
 Red. masses --      5.6528                 1.3166                 3.4287
 Frc consts  --      0.2853                 0.0874                 0.2360
 IR Inten    --      1.0811                46.6632                16.8761

                     19                     20                     21
                      A                      A                      A
 Frequencies --    371.8803               396.8322               424.7201
 Red. masses --      5.2187                 3.2237                 2.6031
 Frc consts  --      0.4252                 0.2991                 0.2767
 IR Inten    --      8.8353                15.3121                12.0420

                     22                     23                     24
                      A                      A                      A
 Frequencies --    435.5618               458.6189               479.4209
 Red. masses --      6.8465                 4.5084                 3.3253
 Frc consts  --      0.7653                 0.5587                 0.4503
 IR Inten    --      1.1926                 7.4244                14.3441

                     25                     26                     27
                      A                      A                      A
 Frequencies --    502.3608               508.6738               548.8949
 Red. masses --      1.9062                 3.7574                 6.5404
 Frc consts  --      0.2834                 0.5728                 1.1610
 IR Inten    --     76.0392                 3.1760                10.1317

                     28                     29                     30
                      A                      A                      A
 Frequencies --    561.5658               579.7573               619.9122
 Red. masses --      4.0152                 1.9079                 6.1024
 Frc consts  --      0.7460                 0.3778                 1.3817
 IR Inten    --      0.5855                48.4442                 1.4679

                     31                     32                     33
                      A                      A                      A
 Frequencies --    650.6969               694.5272               734.0591
 Red. masses --      5.5063                 3.9687                 3.7810
 Frc consts  --      1.3736                 1.1279                 1.2004
 IR Inten    --      3.6949                26.9878                14.0804

                     34                     35                     36
                      A                      A                      A
 Frequencies --    763.1878               800.4234               806.7256
 Red. masses --      2.3274                 3.0229                 1.6217
 Frc consts  --      0.7987                 1.1411                 0.6218
 IR Inten    --      6.2960                 7.9248                21.4138

                     37                     38                     39
                      A                      A                      A
 Frequencies --    820.8140               863.6792               912.2590
 Red. masses --      2.1275                 2.0627                 2.1935
 Frc consts  --      0.8445                 0.9066                 1.0756
 IR Inten    --     16.6885                 3.0078                38.5731

                     40                     41                     42
                      A                      A                      A
 Frequencies --    922.2892               927.7503               959.2580
 Red. masses --      2.9610                 1.5187                 5.0689
 Frc consts  --      1.4840                 0.7702                 2.7481
 IR Inten    --      7.5658                 0.2154                14.3316

                     43                     44                     45
                      A                      A                      A
 Frequencies --    962.4653               978.6242               992.3221
 Red. masses --      1.7348                 1.3000                 1.5478
 Frc consts  --      0.9468                 0.7336                 0.8980
 IR Inten    --     60.4194                 0.8306                58.0075

                     46                     47                     48
                      A                      A                      A
 Frequencies --   1055.4188              1067.7371              1076.8869
 Red. masses --      2.3396                 6.2049                 1.7291
 Frc consts  --      1.5354                 4.1678                 1.1814
 IR Inten    --      3.0786               111.3838                 1.7287

                     49                     50                     51
                      A                      A                      A
 Frequencies --   1104.5390              1117.7383              1184.0734
 Red. masses --      1.8484                 1.7930                 1.7394
 Frc consts  --      1.3286                 1.3198                 1.4368
 IR Inten    --      5.7314                 4.0235                 6.8029

                     52                     53                     54
                      A                      A                      A
 Frequencies --   1184.6781              1198.0211              1204.2252
 Red. masses --      1.2608                 1.1831                 1.4799
 Frc consts  --      1.0426                 1.0004                 1.2644
 IR Inten    --      3.4392                 3.7880                89.2309

                     55                     56                     57
                      A                      A                      A
 Frequencies --   1218.7291              1255.1228              1265.5200
 Red. masses --      1.4584                 2.0239                 1.6508
 Frc consts  --      1.2763                 1.8785                 1.5577
 IR Inten    --      1.6585                54.4612                 1.5476

                     58                     59                     60
                      A                      A                      A
 Frequencies --   1273.2683              1286.3512              1302.9243
 Red. masses --      2.4956                 2.0331                 1.7022
 Frc consts  --      2.3838                 1.9821                 1.7025
 IR Inten    --     12.9724                97.4678                61.3893

                     61                     62                     63
                      A                      A                      A
 Frequencies --   1321.1079              1337.4569              1360.1846
 Red. masses --      2.2211                 8.7493                 1.2681
 Frc consts  --      2.2839                 9.2211                 1.3823
 IR Inten    --    160.9292                34.0835                 5.6486

                     64                     65                     66
                      A                      A                      A
 Frequencies --   1407.8271              1415.1535              1436.3757
 Red. masses --      1.4813                 1.5487                 1.2889
 Frc consts  --      1.7298                 1.8274                 1.5668
 IR Inten    --     18.7471               100.8829                 0.4187

                     67                     68                     69
                      A                      A                      A
 Frequencies --   1444.8766              1454.2695              1489.0265
 Red. masses --      1.2966                 1.8143                 1.2796
 Frc consts  --      1.5948                 2.2607                 1.6716
 IR Inten    --      3.1925                10.2030                26.5974

                     70                     71                     72
                      A                      A                      A
 Frequencies --   1491.7610              1515.1952              1519.4233
 Red. masses --      1.2103                 1.3155                 1.6950
 Frc consts  --      1.5869                 1.7794                 2.3056
 IR Inten    --     13.0845                61.4763                85.5783

                     73                     74                     75
                      A                      A                      A
 Frequencies --   1522.4979              1525.2977              1531.5316
 Red. masses --      1.1569                 2.1284                 1.0456
 Frc consts  --      1.5800                 2.9175                 1.4450
 IR Inten    --     14.6948                11.8849                 6.1612

                     76                     77                     78
                      A                      A                      A
 Frequencies --   1535.5927              1537.0448              1633.7345
 Red. masses --      1.0845                 1.0745                 5.8159
 Frc consts  --      1.5067                 1.4957                 9.1460
 IR Inten    --     13.1822                 2.9281                11.2067

                     79                     80                     81
                      A                      A                      A
 Frequencies --   1645.7450              1689.4016              1779.5834
 Red. masses --      6.2208                 1.1443                 5.9676
 Frc consts  --      9.9271                 1.9243                11.1350
 IR Inten    --      5.8805               123.4928               272.3618

                     82                     83                     84
                      A                      A                      A
 Frequencies --   2348.8956              3017.5488              3034.7409
 Red. masses --     12.6761                 1.0845                 1.0646
 Frc consts  --     41.2061                 5.8181                 5.7765
 IR Inten    --     22.8008                31.8027                37.1186

                     85                     86                     87
                      A                      A                      A
 Frequencies --   3046.8680              3046.8932              3078.6330
 Red. masses --      1.0362                 1.0384                 1.0968
 Frc consts  --      5.6675                 5.6797                 6.1251
 IR Inten    --     59.4875                15.2116                16.2336

                     88                     89                     90
                      A                      A                      A
 Frequencies --   3097.7656              3112.7866              3119.7909
 Red. masses --      1.0637                 1.0992                 1.1037
 Frc consts  --      6.0139                 6.2752                 6.3295
 IR Inten    --      4.2219                38.1884                24.5241

                     91                     92                     93
                      A                      A                      A
 Frequencies --   3124.8446              3153.8796              3170.6655
 Red. masses --      1.1014                 1.0996                 1.1036
 Frc consts  --      6.3367                 6.4444                 6.5370
 IR Inten    --     47.0435                10.9992                17.3128

                     94                     95                     96
                      A                      A                      A
 Frequencies --   3208.9439              3222.3135              3231.3285
 Red. masses --      1.0873                 1.0921                 1.0967
 Frc consts  --      6.5966                 6.6813                 6.7470
 IR Inten    --      2.5139                 3.2866                 6.1200

                     97                     98                     99
                      A                      A                      A
 Frequencies --   3456.2238              3544.8849              3563.5109
 Red. masses --      1.0494                 1.0921                 1.0756
 Frc consts  --      7.3857                 8.0860                 8.0472
 IR Inten    --     17.4430                 5.2081                35.4225

 - Thermochemistry -
 -------------------
 Temperature   298.150 Kelvin.  Pressure   1.00000 Atm.
 Atom     1 has atomic number  6 and mass  12.00000

 Molecular mass:   247.13208 amu.
 Principal axes and moments of inertia in atomic units:
                           1         2         3
     Eigenvalues --  3291.901325290.790856649.61493
           X            0.99933   0.03556  -0.00879
           Y           -0.03594   0.99821  -0.04776
           Z            0.00707   0.04804   0.99882
 This molecule is an asymmetric top.
 Rotational symmetry number  1.
 Warning -- assumption of classical behavior for rotation
           may cause significant error
 Rotational temperatures (Kelvin)      0.02631     0.01637     0.01303
 Rotational constants (GHZ):           0.54824     0.34111     0.27141
 Zero-point vibrational energy     763376.2 (Joules/Mol)
                                  182.45128 (Kcal/Mol)
 Warning -- explicit consideration of  30 degrees of freedom as
           vibrations may cause significant error
 Vibrational temperatures:     29.20    51.84    77.94    91.61   108.61
          (Kelvin)            127.76   159.56   189.96   220.44   229.78
                              253.49   288.77   338.01   342.15   383.25
                              421.14   482.86   491.77   535.05   570.95
                              611.08   626.68   659.85   689.78   722.79
                              731.87   789.74   807.97   834.14   891.92
                              936.21   999.27  1056.15  1098.06  1151.63
                             1160.70  1180.97  1242.64  1312.54  1326.97
                             1334.83  1380.16  1384.77  1408.02  1427.73
                             1518.51  1536.24  1549.40  1589.19  1608.18
                             1703.62  1704.49  1723.69  1732.61  1753.48
                             1805.84  1820.80  1831.95  1850.77  1874.62
                             1900.78  1924.30  1957.00  2025.55  2036.09
                             2066.62  2078.86  2092.37  2142.38  2146.31
                             2180.03  2186.11  2190.53  2194.56  2203.53
                             2209.38  2211.46  2350.58  2367.86  2430.67
                             2560.42  3379.54  4341.58  4366.32  4383.76
                             4383.80  4429.47  4456.99  4478.61  4488.68
                             4495.95  4537.73  4561.88  4616.95  4636.19
                             4649.16  4972.74  5100.30  5127.10

 Zero-point correction=                           0.290755 (Hartree/Particle)
 Thermal correction to Energy=                    0.309262
 Thermal correction to Enthalpy=                  0.310206
 Thermal correction to Gibbs Free Energy=         0.242957
 Sum of electronic and zero-point Energies=           -820.084307
 Sum of electronic and thermal Energies=              -820.065800
 Sum of electronic and thermal Enthalpies=            -820.064856
 Sum of electronic and thermal Free Energies=         -820.132105

                     E (Thermal)             CV                S
                      KCal/Mol        Cal/Mol-Kelvin    Cal/Mol-Kelvin
 Total                  194.065             68.316            141.537
 Electronic               0.000              0.000              0.000
 Translational            0.889              2.981             42.415
 Rotational               0.889              2.981             33.115
 Vibrational            192.287             62.354             66.007
 Vibration     1          0.593              1.986              6.605
 Vibration     2          0.594              1.982              5.466
 Vibration     3          0.596              1.976              4.659
 Vibration     4          0.597              1.972              4.340
 Vibration     5          0.599              1.965              4.005
 Vibration     6          0.602              1.957              3.686
 Vibration     7          0.607              1.940              3.253
 Vibration     8          0.612              1.921              2.916
 Vibration     9          0.619              1.899              2.632
 Vibration    10          0.622              1.892              2.553
 Vibration    11          0.628              1.872              2.368
 Vibration    12          0.638              1.839              2.127
 Vibration    13          0.655              1.787              1.841
 Vibration    14          0.656              1.783              1.819
 Vibration    15          0.672              1.735              1.620
 Vibration    16          0.688              1.687              1.458
 Vibration    17          0.717              1.604              1.233
 Vibration    18          0.721              1.592              1.204
 Vibration    19          0.744              1.530              1.072
 Vibration    20          0.763              1.477              0.974
 Vibration    21          0.787              1.416              0.876
 Vibration    22          0.796              1.393              0.841
 Vibration    23          0.817              1.342              0.770
 Vibration    24          0.836              1.296              0.712
 Vibration    25          0.858              1.245              0.652
 Vibration    26          0.864              1.231              0.637
 Vibration    27          0.904              1.142              0.546
 Vibration    28          0.917              1.114              0.521
 Vibration    29          0.936              1.075              0.486
 Vibration    30          0.980              0.990              0.417

                           ! Non-Optimized Parameters !
 Normal termination of Gaussian 16 at Fri Dec 11 20:35:19 2020.

 ----------------------------------------------------------------------
 # B3LYP/6-311++G(d,p) empiricaldispersion=gd3bj scf=xqc pop=npa geom=c
 heck
 ----------------------------------------------------------------------

 ---------------------------------------
 CID_107467797_JID_8325_Energie_neutraal
 ---------------------------------------
 Structure from the checkpoint file:  "JID_8325.chk"
 Charge =  0 Multiplicity = 1

 SCF Done:  E(RB3LYP) =  -820.611432610     A.U. after   16 cycles
 Normal termination of Gaussian 16 at Fri Dec 11 20:43:54 2020.

 ----------------------------------------------------------------------
 # B3LYP/6-311++G(d,p) empiricaldispersion=gd3bj scf=xqc pop=npa geom=c
 heck
 ----------------------------------------------------------------------

 -------------------------------------
 CID_107467797_JID_8325_Energie_kation
 -------------------------------------
 Structure from the checkpoint file:  "JID_8325.chk"
 Charge =  1 Multiplicity = 2

 SCF Done:  E(UB3LYP) =  -820.303310564     A.U. after   27 cycles
 Normal termination of Gaussian 16 at Fri Dec 11 21:05:20 2020.
 Gaussian 16:  ES64L-G16RevA.03 25-Dec-2016

 ----------------------------------------------------------------------
 # B3LYP/6-311++G(d,p) empiricaldispersion=gd3bj scf=xqc pop=npa geom=c
 heck
 ----------------------------------------------------------------------

 ------------------------------------
 CID_107467797_JID_8325_Energie_anion
 ------------------------------------
 Structure from the checkpoint file:  "JID_8325.chk"
 Charge = -1 Multiplicity = 2

                         Standard orientation:
 ---------------------------------------------------------------------
 Center     Atomic      Atomic             Coordinates (Angstroms)
 Number     Number       Type             X           Y           Z
 ---------------------------------------------------------------------
      1          6           0       -1.733063   -2.129767    1.365633
      2          6           0       -2.870513   -1.357664    0.689349
      3          6           0       -2.871981    0.158766    0.973318
      4          6           0       -1.554680    0.846260    0.553299
      5          6           0       -1.213354    0.569367   -0.896770
      6          8           0       -2.033390    0.642020   -1.803274
      7          7           0        0.076393    0.149677   -1.208029
      8          6           0        1.191848    0.024552   -0.364085
      9          6           0        1.887762   -1.201879   -0.287727
     10          6           0        3.014811   -1.342288    0.535387
     11          6           0        3.442029   -0.266417    1.305440
     12          6           0        2.771008    0.954591    1.229473
     13          6           0        1.669343    1.113273    0.389001
     14          8           0        1.039297    2.329629    0.348986
     15          6           0        1.252451    3.081122   -0.854205
     16          6           0        1.415569   -2.308573   -1.061961
     17          7           0        1.019190   -3.193820   -1.704224
     18          7           0       -3.997636    0.886917    0.377792
     19          1           0       -0.753640   -1.844899    0.967150
     20          1           0       -1.842135   -3.208153    1.210447
     21          1           0       -1.717974   -1.946483    2.447556
     22          1           0       -2.840952   -1.517282   -0.395777
     23          1           0       -3.833806   -1.759593    1.032628
     24          1           0       -2.941235    0.291457    2.062808
     25          1           0       -1.679026    1.926468    0.674517
     26          1           0       -0.743242    0.533826    1.211380
     27          1           0        0.138686   -0.256447   -2.136179
     28          1           0        3.528531   -2.296422    0.571685
     29          1           0        4.303304   -0.372625    1.956786
     30          1           0        3.096169    1.814121    1.806448
     31          1           0        0.875605    2.545319   -1.731080
     32          1           0        0.697559    4.011773   -0.727601
     33          1           0        2.319107    3.300254   -0.984538
     34          1           0       -4.864677    0.393190    0.587788
     35          1           0       -3.882543    0.864827   -0.635404
 ---------------------------------------------------------------------

 SCF Done:  E(UB3LYP) =  -820.632660789     A.U. after   24 cycles

 The electronic state is 2-A.
 Alpha  occ. eigenvalues --  -19.02671 -18.97414 -14.22187 -14.18382 -14.15007
 Alpha  occ. eigenvalues --  -10.15616 -10.11510 -10.09829 -10.09675 -10.07508
 Alpha  occ. eigenvalues --  -10.06093 -10.05974 -10.05300 -10.05256 -10.04812
 Alpha  occ. eigenvalues --  -10.04286 -10.03997 -10.02532  -0.94358  -0.92726
 Alpha  occ. eigenvalues --   -0.81213  -0.78392  -0.75503  -0.71710  -0.67062
 Alpha  occ. eigenvalues --   -0.63853  -0.62994  -0.61879  -0.57759  -0.54249
 Alpha  occ. eigenvalues --   -0.51481  -0.50001  -0.47827  -0.44016  -0.42610
 Alpha  occ. eigenvalues --   -0.39684  -0.39577  -0.37641  -0.36953  -0.35706
 Alpha  occ. eigenvalues --   -0.34948  -0.34758  -0.33664  -0.32851  -0.31891
 Alpha  occ. eigenvalues --   -0.30777  -0.30027  -0.28472  -0.27400  -0.26872
 Alpha  occ. eigenvalues --   -0.25810  -0.25636  -0.25174  -0.24838  -0.23907
 Alpha  occ. eigenvalues --   -0.23113  -0.22325  -0.21767  -0.20381  -0.18690
 Alpha  occ. eigenvalues --   -0.17795  -0.16308  -0.15142  -0.13508  -0.12178
 Alpha  occ. eigenvalues --   -0.10867   0.03796
 Alpha virt. eigenvalues --    0.07531   0.08091   0.08958   0.09649   0.09894
 Alpha virt. eigenvalues --    0.10597   0.10852   0.11179   0.11863   0.12207
 Alpha virt. eigenvalues --    0.12498   0.13159   0.13575   0.13978   0.14285

  Beta  occ. eigenvalues --  -19.02676 -18.97336 -14.22241 -14.18381 -14.14621
  Beta  occ. eigenvalues --  -10.15530 -10.11518 -10.09941 -10.09666 -10.07208
  Beta  occ. eigenvalues --  -10.06093 -10.05979 -10.05315 -10.05254 -10.04471
  Beta  occ. eigenvalues --  -10.04196 -10.03974 -10.02119  -0.94368  -0.92586
  Beta  occ. eigenvalues --   -0.81017  -0.78384  -0.74947  -0.71283  -0.67047
  Beta  occ. eigenvalues --   -0.63474  -0.62887  -0.61434  -0.57506  -0.54219
  Beta  occ. eigenvalues --   -0.50649  -0.49888  -0.47755  -0.43914  -0.42431
  Beta  occ. eigenvalues --   -0.39626  -0.39352  -0.37505  -0.36871  -0.35634
  Beta  occ. eigenvalues --   -0.34893  -0.34632  -0.33644  -0.32613  -0.31759
  Beta  occ. eigenvalues --   -0.30694  -0.29875  -0.28343  -0.27266  -0.26675
  Beta  occ. eigenvalues --   -0.25755  -0.25320  -0.25034  -0.24169  -0.23634
  Beta  occ. eigenvalues --   -0.22910  -0.22274  -0.21191  -0.19124  -0.18417
  Beta  occ. eigenvalues --   -0.17320  -0.15952  -0.15095  -0.13488  -0.10477
  Beta  occ. eigenvalues --   -0.09618
  Beta virt. eigenvalues --    0.07502   0.08066   0.08914   0.09335   0.09722
  Beta virt. eigenvalues --    0.10271   0.10687   0.11113   0.11258   0.11869
  Beta virt. eigenvalues --    0.12223   0.12504   0.13508   0.13557   0.13956

 Mulliken charges and spin densities:
               1          2
     1  C   -0.640260  -0.000498
     2  C   -0.021674  -0.001823
     3  C   -0.707652  -0.010073
     4  C    0.105342  -0.003055
     5  C   -0.209702   0.055637
     6  O   -0.325903   0.029338
     7  N   -0.128396  -0.035117
     8  C    0.240556   0.186470
     9  C    1.258272   0.303120
    10  C   -0.288170   0.107639
    11  C   -0.377093   0.021529
    12  C   -0.255571   0.331845
    13  C   -0.385738  -0.076319
    14  O   -0.048156   0.007090
    15  C   -0.221257  -0.003164
    16  C   -1.264136  -0.142230
    17  N   -0.312980   0.204015
    18  N   -0.281217   0.001369
    19  H    0.145922  -0.002263
    20  H    0.126684   0.001657
    21  H    0.112380   0.001892
    22  H    0.188283   0.002225
    23  H    0.117448  -0.000139
    24  H    0.176377   0.002962
    25  H    0.231679   0.016038
    26  H    0.181030   0.003556
    27  H    0.307503   0.023900
    28  H    0.147277  -0.002320
    29  H    0.122077  -0.002410
    30  H    0.130167  -0.027725
    31  H    0.165046   0.000595
    32  H    0.134226   0.001364
    33  H    0.121358   0.004939
    34  H    0.193827   0.000333
    35  H    0.262453  -0.000377
 Sum of Mulliken charges =  -1.00000   1.00000

 Dipole moment (field-independent basis, Debye):
    X=             -1.7274    Y=              3.7430    Z=              2.8309  Tot=              5.0008
 Quadrupole moment (field-independent basis, Debye-Ang):
   XX=           -139.2651   YY=           -142.0416   ZZ=           -127.6190
   XY=             12.9145   XZ=             -4.4472   YZ=            -14.2877

 Summary of Natural Population Analysis:

                                       Natural Population
                Natural  -----------------------------------------------
    Atom  No    Charge         Core      Valence    Rydberg      Total
 -----------------------------------------------------------------------
      C    1   -0.28938      0.99966     2.28502    0.00470     3.28938
      C    2   -0.19963      0.99962     2.19280    0.00721     3.19963
      C    3   -0.00412      0.99961     1.99378    0.01073     3.00412
      C    4   -0.24443      0.99956     2.23346    0.01141     3.24443
      C    5    0.36131      0.99967     1.61593    0.02309     2.63869
      O    6   -0.33072      0.99987     3.32496    0.00588     4.33072
      N    7   -0.32192      0.99964     2.81161    0.01067     3.82192
      C    8    0.11364      0.99940     1.87520    0.01176     2.88636
      C    9   -0.04554      0.99939     2.03558    0.01057     3.04554
      C   10   -0.06510      0.99955     2.05776    0.00780     3.06510
      C   11   -0.10890      0.99958     2.10070    0.00863     3.10890
      C   12   -0.03956      0.99952     2.03128    0.00875     3.03956
      C   13    0.11778      0.99933     1.86814    0.01475     2.88222
      O   14   -0.29689      0.99986     3.28553    0.01150     4.29689
      C   15   -0.09695      0.99960     2.09012    0.00723     3.09695
      C   16    0.13560      0.99965     1.84586    0.01890     2.86440
      N   17   -0.15026      0.99979     2.63890    0.01157     3.65026
      N   18   -0.42950      0.99977     2.91952    0.01021     3.92950
      H   19    0.10992      0.00000     0.38918    0.00090     0.39008
      H   20    0.09878      0.00000     0.40028    0.00094     0.40122
      H   21    0.08963      0.00000     0.40941    0.00096     0.41037
      H   22    0.10369      0.00000     0.39524    0.00107     0.39631
      H   23    0.08664      0.00000     0.41210    0.00126     0.41336
      H   24    0.08279      0.00000     0.41544    0.00177     0.41721
      H   25    0.11941      0.00000     0.37912    0.00147     0.38059
      H   26    0.11504      0.00000     0.38369    0.00127     0.38496
      H   27    0.20301      0.00000     0.29545    0.00155     0.29699
      H   28    0.09625      0.00000     0.40285    0.00090     0.40375
      H   29    0.09165      0.00000     0.40734    0.00101     0.40835
      H   30    0.09195      0.00000     0.40653    0.00152     0.40805
      H   31    0.08793      0.00000     0.41105    0.00101     0.41207
      H   32    0.08463      0.00000     0.41453    0.00084     0.41537
      H   33    0.07974      0.00000     0.41907    0.00119     0.42026
      H   34    0.16513      0.00000     0.33328    0.00159     0.33487
      H   35    0.18840      0.00000     0.30993    0.00167     0.31160
 =======================================================================
   * Total *   -0.00000     17.99308    47.79064    0.21629    66.00000

 Normal termination of Gaussian 16 at Fri Dec 11 21:23:49 2020.
