 Gaussian 16, Revision A.03,

 -----------------------------------------------------------
 # opt freq B3LYP/6-31G(d) empiricaldispersion=gd3bj scf=xqc
 -----------------------------------------------------------

 -------------------------------
 CID_127017316_JID_4705_neutraal
 -------------------------------
 Symbolic Z-matrix:
 Charge =  0 Multiplicity = 1

 SCF Done:  E(RB3LYP) =  -612.380461719     A.U. after   14 cycles
 SCF Done:  E(RB3LYP) =  -612.384834190     A.U. after   12 cycles
 SCF Done:  E(RB3LYP) =  -612.385143043     A.U. after   12 cycles
 SCF Done:  E(RB3LYP) =  -612.385228237     A.U. after   11 cycles
 SCF Done:  E(RB3LYP) =  -612.385381844     A.U. after   11 cycles
 SCF Done:  E(RB3LYP) =  -612.385405707     A.U. after   10 cycles
 SCF Done:  E(RB3LYP) =  -612.385420286     A.U. after   11 cycles
 SCF Done:  E(RB3LYP) =  -612.385424787     A.U. after    9 cycles
 SCF Done:  E(RB3LYP) =  -612.385430433     A.U. after    9 cycles
 SCF Done:  E(RB3LYP) =  -612.385434537     A.U. after    9 cycles
 SCF Done:  E(RB3LYP) =  -612.386266655     A.U. after   10 cycles
 SCF Done:  E(RB3LYP) =  -612.386278299     A.U. after   10 cycles
 SCF Done:  E(RB3LYP) =  -612.386282588     A.U. after   10 cycles
 SCF Done:  E(RB3LYP) =  -612.386283481     A.U. after    8 cycles
 SCF Done:  E(RB3LYP) =  -612.386283815     A.U. after    8 cycles
 Optimization completed.
    -- Stationary point found.
 Normal termination of Gaussian 16 at Thu Dec 10 10:40:46 2020.

 --------------------------------------------------------------------
 #N Geom=AllCheck Guess=TCheck SCRF=Check GenChk RB3LYP/6-31G(d) Freq
 --------------------------------------------------------------------

 Structure from the checkpoint file:  "JID_4705.chk"
 -------------------------------
 CID_127017316_JID_4705_neutraal
 -------------------------------
 Charge =  0 Multiplicity = 1

 SCF Done:  E(RB3LYP) =  -612.386283815     A.U. after    1 cycles

  Exact polarizability: 177.833   0.202 139.015   0.383  -0.114  73.346
 Approx polarizability: 248.355  -3.895 209.608   1.409   0.466 113.226

                      1                      2                      3
                      A                      A                      A
 Frequencies --     44.0945                57.1819                60.4745
 Red. masses --      4.8601                 1.3696                 1.1162
 Frc consts  --      0.0056                 0.0026                 0.0024
 IR Inten    --      2.3462                 0.8549                 1.3667

                      4                      5                      6
                      A                      A                      A
 Frequencies --     66.7618               119.3986               126.4887
 Red. masses --      1.7259                 2.7744                 3.6638
 Frc consts  --      0.0045                 0.0233                 0.0345
 IR Inten    --      0.1684                 4.5204                 2.4829

                      7                      8                      9
                      A                      A                      A
 Frequencies --    140.2793               197.2588               222.5818
 Red. masses --      2.1370                 3.1720                 3.0021
 Frc consts  --      0.0248                 0.0727                 0.0876
 IR Inten    --      6.2940                 3.2617                 0.0316

                     10                     11                     12
                      A                      A                      A
 Frequencies --    243.3975               262.3576               313.6625
 Red. masses --      5.6743                 2.9602                 4.2231
 Frc consts  --      0.1981                 0.1200                 0.2448
 IR Inten    --      8.7700                 2.0906                 3.1707

                     13                     14                     15
                      A                      A                      A
 Frequencies --    345.4550               466.2362               480.7019
 Red. masses --      4.4284                 2.3745                 3.5697
 Frc consts  --      0.3114                 0.3041                 0.4860
 IR Inten    --      3.4956                 2.5133                 5.0162

                     16                     17                     18
                      A                      A                      A
 Frequencies --    530.9881               563.3633               566.6485
 Red. masses --      3.5539                 4.4185                 2.9906
 Frc consts  --      0.5904                 0.8262                 0.5658
 IR Inten    --      3.2505                 0.9199                 0.0332

                     19                     20                     21
                      A                      A                      A
 Frequencies --    571.8539               613.8395               627.1134
 Red. masses --      4.9272                 3.8585                 4.4729
 Frc consts  --      0.9493                 0.8566                 1.0364
 IR Inten    --      5.4447                 0.5309                 4.3575

                     22                     23                     24
                      A                      A                      A
 Frequencies --    715.7710               741.7927               782.6720
 Red. masses --      3.8015                 2.5455                 2.1130
 Frc consts  --      1.1475                 0.8253                 0.7626
 IR Inten    --      0.8141                 0.2349                 3.0948

                     25                     26                     27
                      A                      A                      A
 Frequencies --    833.6103               839.3866               840.6055
 Red. masses --      1.8685                 1.8756                 1.5023
 Frc consts  --      0.7650                 0.7786                 0.6254
 IR Inten    --      4.7252                21.1981                 8.9847

                     28                     29                     30
                      A                      A                      A
 Frequencies --    886.7823               947.0069               984.7151
 Red. masses --      3.1016                 1.4474                 3.2490
 Frc consts  --      1.4371                 0.7648                 1.8562
 IR Inten    --      4.9238                 1.3243                 2.2987

                     31                     32                     33
                      A                      A                      A
 Frequencies --    994.5294              1012.8239              1029.9266
 Red. masses --      2.1851                 3.3036                 1.9790
 Frc consts  --      1.2734                 1.9966                 1.2368
 IR Inten    --     16.4831                 3.2342                 1.7018

                     34                     35                     36
                      A                      A                      A
 Frequencies --   1064.7598              1069.8031              1075.6381
 Red. masses --      1.7478                 1.5719                 1.5711
 Frc consts  --      1.1675                 1.0599                 1.0710
 IR Inten    --      1.3800                 9.8950                 0.0011

                     37                     38                     39
                      A                      A                      A
 Frequencies --   1100.3962              1104.3963              1170.1069
 Red. masses --      1.8801                 1.9087                 3.4237
 Frc consts  --      1.3413                 1.3717                 2.7619
 IR Inten    --      6.9054                27.0611                41.4925

                     40                     41                     42
                      A                      A                      A
 Frequencies --   1191.5004              1213.5304              1229.3336
 Red. masses --      1.4345                 1.8764                 1.5301
 Frc consts  --      1.1998                 1.6281                 1.3624
 IR Inten    --     86.7343                19.4495                25.4305

                     43                     44                     45
                      A                      A                      A
 Frequencies --   1248.9463              1266.7166              1274.1413
 Red. masses --      1.6831                 1.8250                 1.6525
 Frc consts  --      1.5469                 1.7253                 1.5806
 IR Inten    --     32.8669                19.0864                10.8891

                     46                     47                     48
                      A                      A                      A
 Frequencies --   1308.5398              1313.0864              1359.3097
 Red. masses --      2.2776                 1.6784                 2.0081
 Frc consts  --      2.2977                 1.7051                 2.1861
 IR Inten    --      3.1996                 8.9596                 4.3731

                     49                     50                     51
                      A                      A                      A
 Frequencies --   1401.0906              1425.2361              1434.9153
 Red. masses --      1.4872                 1.5962                 1.2392
 Frc consts  --      1.7201                 1.9104                 1.5033
 IR Inten    --     34.6442                55.7613                 1.3034

                     52                     53                     54
                      A                      A                      A
 Frequencies --   1455.6612              1478.8549              1482.1980
 Red. masses --      2.8080                 1.6070                 1.4383
 Frc consts  --      3.5056                 2.0708                 1.8617
 IR Inten    --     36.8883                 1.6974                18.5853

                     55                     56                     57
                      A                      A                      A
 Frequencies --   1489.0950              1505.3542              1505.7237
 Red. masses --      1.8829                 1.0459                 1.0453
 Frc consts  --      2.4599                 1.3965                 1.3963
 IR Inten    --     13.2581                 9.5715                 0.0170

                     58                     59                     60
                      A                      A                      A
 Frequencies --   1517.0233              1527.7276              1541.8434
 Red. masses --      1.0838                 1.2445                 1.6325
 Frc consts  --      1.4695                 1.7114                 2.2865
 IR Inten    --     55.5913                21.4952               109.4898

                     61                     62                     63
                      A                      A                      A
 Frequencies --   1559.5836              1608.7899              1661.3092
 Red. masses --      1.1118                 8.7183                 5.0532
 Frc consts  --      1.5932                13.2947                 8.2171
 IR Inten    --     10.7744               116.5104               410.0255

                     64                     65                     66
                      A                      A                      A
 Frequencies --   1864.1499              2997.3023              3003.0120
 Red. masses --     12.6221                 1.0685                 1.0717
 Frc consts  --     25.8430                 5.6555                 5.6941
 IR Inten    --    278.1310                44.8858                52.1151

                     67                     68                     69
                      A                      A                      A
 Frequencies --   3051.3041              3055.2580              3055.8789
 Red. masses --      1.0935                 1.0356                 1.0357
 Frc consts  --      5.9983                 5.6958                 5.6984
 IR Inten    --     17.1710                29.2199                14.8462

                     70                     71                     72
                      A                      A                      A
 Frequencies --   3063.7312              3096.1980              3115.7667
 Red. masses --      1.0689                 1.0916                 1.1007
 Frc consts  --      5.9114                 6.1653                 6.2960
 IR Inten    --      9.2853                20.5055                 0.0122

                     73                     74                     75
                      A                      A                      A
 Frequencies --   3115.9432              3134.4628              3135.2888
 Red. masses --      1.1008                 1.1034                 1.1033
 Frc consts  --      6.2968                 6.3870                 6.3899
 IR Inten    --     28.5474                20.3965                18.2853

                     76                     77                     78
                      A                      A                      A
 Frequencies --   3141.0733              3221.2930              3224.8660
 Red. masses --      1.0963                 1.0900                 1.0897
 Frc consts  --      6.3731                 6.6639                 6.6773
 IR Inten    --      8.8774                10.5528                11.8886

 - Thermochemistry -
 -------------------
 Temperature   298.150 Kelvin.  Pressure   1.00000 Atm.
 Atom     1 has atomic number  6 and mass  12.00000

 Molecular mass:   190.11061 amu.
 Principal axes and moments of inertia in atomic units:
                           1         2         3
     Eigenvalues --  1284.720944797.685056006.46431
           X            0.99994   0.01117   0.00224
           Y           -0.01116   0.99993  -0.00255
           Z           -0.00227   0.00252   0.99999
 This molecule is an asymmetric top.
 Rotational symmetry number  1.
 Warning -- assumption of classical behavior for rotation
           may cause significant error
 Rotational temperatures (Kelvin)      0.06742     0.01805     0.01442
 Rotational constants (GHZ):           1.40477     0.37617     0.30047
 Zero-point vibrational energy     616614.5 (Joules/Mol)
                                  147.37441 (Kcal/Mol)
 Warning -- explicit consideration of  20 degrees of freedom as
           vibrations may cause significant error
 Vibrational temperatures:     63.44    82.27    87.01    96.06   171.79
          (Kelvin)            181.99   201.83   283.81   320.25   350.19
                              377.47   451.29   497.03   670.81   691.62
                              763.97   810.55   815.28   822.77   883.18
                              902.28  1029.83  1067.27  1126.09  1199.38
                             1207.69  1209.44  1275.88  1362.53  1416.79
                             1430.91  1457.23  1481.83  1531.95  1539.21
                             1547.60  1583.22  1588.98  1683.52  1714.30
                             1746.00  1768.74  1796.96  1822.52  1833.21
                             1882.70  1889.24  1955.74  2015.86  2050.60
                             2064.52  2094.37  2127.74  2132.55  2142.48
                             2165.87  2166.40  2182.66  2198.06  2218.37
                             2243.89  2314.69  2390.25  2682.10  4312.45
                             4320.66  4390.15  4395.83  4396.73  4408.03
                             4454.74  4482.89  4483.15  4509.79  4510.98
                             4519.30  4634.72  4639.86

 Zero-point correction=                           0.234856 (Hartree/Particle)
 Thermal correction to Energy=                    0.248448
 Thermal correction to Enthalpy=                  0.249392
 Thermal correction to Gibbs Free Energy=         0.193294
 Sum of electronic and zero-point Energies=           -612.151428
 Sum of electronic and thermal Energies=              -612.137836
 Sum of electronic and thermal Enthalpies=            -612.136891
 Sum of electronic and thermal Free Energies=         -612.192989

                     E (Thermal)             CV                S
                      KCal/Mol        Cal/Mol-Kelvin    Cal/Mol-Kelvin
 Total                  155.904             49.908            118.068
 Electronic               0.000              0.000              0.000
 Translational            0.889              2.981             41.633
 Rotational               0.889              2.981             31.982
 Vibrational            154.126             43.947             44.453
 Vibration     1          0.595              1.980              5.066
 Vibration     2          0.596              1.975              4.552
 Vibration     3          0.597              1.973              4.442
 Vibration     4          0.598              1.970              4.247
 Vibration     5          0.609              1.933              3.110
 Vibration     6          0.611              1.927              2.999
 Vibration     7          0.615              1.913              2.800
 Vibration     8          0.637              1.844              2.159
 Vibration     9          0.648              1.807              1.938
 Vibration    10          0.659              1.774              1.778
 Vibration    11          0.670              1.742              1.646
 Vibration    12          0.702              1.648              1.343
 Vibration    13          0.724              1.585              1.187
 Vibration    14          0.824              1.325              0.748
 Vibration    15          0.837              1.293              0.708
 Vibration    16          0.886              1.181              0.585
 Vibration    17          0.919              1.111              0.517
 Vibration    18          0.923              1.103              0.511
 Vibration    19          0.928              1.092              0.501
 Vibration    20          0.973              1.003              0.426

                           ! Non-Optimized Parameters !
 Normal termination of Gaussian 16 at Thu Dec 10 10:48:50 2020.

 ----------------------------------------------------------------------
 # B3LYP/6-311++G(d,p) empiricaldispersion=gd3bj scf=xqc pop=npa geom=c
 heck
 ----------------------------------------------------------------------

 ---------------------------------------
 CID_127017316_JID_4705_Energie_neutraal
 ---------------------------------------
 Structure from the checkpoint file:  "JID_4705.chk"
 Charge =  0 Multiplicity = 1

 SCF Done:  E(RB3LYP) =  -612.552032381     A.U. after   15 cycles
 Normal termination of Gaussian 16 at Thu Dec 10 10:52:39 2020.

 ----------------------------------------------------------------------
 # B3LYP/6-311++G(d,p) empiricaldispersion=gd3bj scf=xqc pop=npa geom=c
 heck
 ----------------------------------------------------------------------

 -------------------------------------
 CID_127017316_JID_4705_Energie_kation
 -------------------------------------
 Structure from the checkpoint file:  "JID_4705.chk"
 Charge =  1 Multiplicity = 2

 SCF Done:  E(UB3LYP) =  -612.263057953     A.U. after   23 cycles
 Normal termination of Gaussian 16 at Thu Dec 10 11:00:54 2020.
 Gaussian 16:  ES64L-G16RevA.03 25-Dec-2016

 ----------------------------------------------------------------------
 # B3LYP/6-311++G(d,p) empiricaldispersion=gd3bj scf=xqc pop=npa geom=c
 heck
 ----------------------------------------------------------------------

 ------------------------------------
 CID_127017316_JID_4705_Energie_anion
 ------------------------------------
 Structure from the checkpoint file:  "JID_4705.chk"
 Charge = -1 Multiplicity = 2

                         Standard orientation:
 ---------------------------------------------------------------------
 Center     Atomic      Atomic             Coordinates (Angstroms)
 Number     Number       Type             X           Y           Z
 ---------------------------------------------------------------------
      1          6           0        2.971762    2.568771   -0.023366
      2          6           0        2.256256    1.241157   -0.026001
      3          6           0        0.865545    1.181049   -0.091316
      4          6           0        0.226788   -0.073719   -0.095427
      5          6           0        1.053485   -1.210583   -0.018444
      6          6           0        2.436266   -1.047264    0.043168
      7          7           0        3.039442    0.152320    0.040053
      8          6           0        3.350915   -2.243834    0.124373
      9          7           0       -1.143853   -0.178543   -0.181660
     10          6           0       -1.836976   -1.454915    0.021645
     11          6           0       -3.314501   -1.124732   -0.204725
     12          6           0       -3.421025    0.373021    0.061062
     13          8           0       -4.433381    1.002185    0.257212
     14          6           0       -2.012400    0.962744    0.035401
     15          1           0        3.578882    2.669776    0.883031
     16          1           0        3.658072    2.630388   -0.875183
     17          1           0        2.273872    3.409834   -0.073937
     18          1           0        0.291697    2.098618   -0.144358
     19          1           0        0.633198   -2.208743   -0.001317
     20          1           0        4.043463   -2.248736   -0.724617
     21          1           0        3.960997   -2.193405    1.032980
     22          1           0        2.793736   -3.185469    0.127395
     23          1           0       -1.465785   -2.202244   -0.685578
     24          1           0       -1.665135   -1.844792    1.037476
     25          1           0       -4.004289   -1.686015    0.429651
     26          1           0       -3.606269   -1.296413   -1.248815
     27          1           0       -1.935909    1.708349   -0.767371
     28          1           0       -1.815298    1.484764    0.985967
 ---------------------------------------------------------------------

 SCF Done:  E(UB3LYP) =  -612.547587103     A.U. after   33 cycles
 SCF Done:  E(UB3LYP) =  -612.547587103     a.u. after    1 cycles

 The electronic state is 2-A.
 Alpha  occ. eigenvalues --  -18.97787 -14.23196 -14.18540 -10.11976 -10.11781
 Alpha  occ. eigenvalues --  -10.10677 -10.10668 -10.09925 -10.09429 -10.07088
 Alpha  occ. eigenvalues --  -10.06662 -10.06334 -10.06259 -10.06155  -0.91695
 Alpha  occ. eigenvalues --   -0.85885  -0.83023  -0.70561  -0.69186  -0.64719
 Alpha  occ. eigenvalues --   -0.62580  -0.61798  -0.58198  -0.53166  -0.49437
 Alpha  occ. eigenvalues --   -0.46901  -0.44122  -0.41267  -0.39110  -0.38340
 Alpha  occ. eigenvalues --   -0.36188  -0.33821  -0.33439  -0.33200  -0.31843
 Alpha  occ. eigenvalues --   -0.31601  -0.31238  -0.30513  -0.30090  -0.29276
 Alpha  occ. eigenvalues --   -0.28579  -0.28198  -0.26512  -0.25850  -0.24684
 Alpha  occ. eigenvalues --   -0.22721  -0.20185  -0.15205  -0.14530  -0.12753
 Alpha  occ. eigenvalues --   -0.10883   0.04561
 Alpha virt. eigenvalues --    0.06759   0.07093   0.07885   0.08714   0.09142
 Alpha virt. eigenvalues --    0.09379   0.09796   0.10048   0.10773   0.11178
 Alpha virt. eigenvalues --    0.11917   0.12190   0.12487   0.13040   0.13489

  Beta  occ. eigenvalues --  -18.97534 -14.23203 -14.18518 -10.11972 -10.11454
  Beta  occ. eigenvalues --  -10.10672 -10.10660 -10.09889 -10.09449 -10.07082
  Beta  occ. eigenvalues --  -10.06647 -10.06330 -10.06275 -10.06133  -0.91183
  Beta  occ. eigenvalues --   -0.85853  -0.82988  -0.70452  -0.69161  -0.64652
  Beta  occ. eigenvalues --   -0.62484  -0.61656  -0.58145  -0.53067  -0.49387
  Beta  occ. eigenvalues --   -0.46821  -0.43841  -0.41146  -0.38809  -0.38168
  Beta  occ. eigenvalues --   -0.36105  -0.33773  -0.33357  -0.33071  -0.31825
  Beta  occ. eigenvalues --   -0.31497  -0.31068  -0.30438  -0.29714  -0.28918
  Beta  occ. eigenvalues --   -0.28475  -0.28171  -0.26398  -0.25745  -0.24659
  Beta  occ. eigenvalues --   -0.21636  -0.20078  -0.15175  -0.14470  -0.12550
  Beta  occ. eigenvalues --   -0.10820
  Beta virt. eigenvalues --    0.06728   0.07433   0.08121   0.08468   0.08873
  Beta virt. eigenvalues --    0.09570   0.09940   0.10283   0.10347   0.10967
  Beta virt. eigenvalues --    0.11821   0.12202   0.12238   0.12682   0.13297

 Mulliken charges and spin densities:
               1          2
     1  C   -0.115177  -0.452694
     2  C   -1.038175   0.468475
     3  C    0.335573   0.419623
     4  C    0.493341  -1.133114
     5  C    0.456204   0.119528
     6  C   -0.879794   0.366760
     7  N   -0.018400   0.066329
     8  C    0.469790  -1.034014
     9  N    0.016125   0.203665
    10  C    0.783028  -0.882359
    11  C   -0.258899  -0.302259
    12  C    0.145915  -0.104371
    13  O   -0.389932   0.117389
    14  C   -0.130563  -0.019690
    15  H    0.112092   0.032083
    16  H    0.069489   0.081768
    17  H    0.011322   0.117746
    18  H    0.040623   0.140175
    19  H   -0.191073   0.377510
    20  H    0.055318   0.093567
    21  H    0.055868   0.088331
    22  H   -0.215077   0.355908
    23  H   -0.511690   0.673295
    24  H    0.009130   0.143615
    25  H    0.157232  -0.002506
    26  H   -0.433297   0.643330
    27  H   -0.251162   0.463660
    28  H    0.222187  -0.041751
 Sum of Mulliken charges =  -1.00000   1.00000

 Dipole moment (field-independent basis, Debye):
    X=              4.7286    Y=              1.7094    Z=              2.8291  Tot=              5.7693
 Quadrupole moment (field-independent basis, Debye-Ang):
   XX=           -160.8381   YY=           -120.2452   ZZ=           -106.0754
   XY=              6.4230   XZ=             -6.0766   YZ=             -3.7485

 Summary of Natural Population Analysis:

                                       Natural Population
                Natural  -----------------------------------------------
    Atom  No    Charge         Core      Valence    Rydberg      Total
 -----------------------------------------------------------------------
      C    1   -0.29515      0.99963     2.29006    0.00546     3.29515
      C    2    0.11695      0.99955     1.87131    0.01219     2.88305
      C    3   -0.15649      0.99948     2.14937    0.00765     3.15649
      C    4    0.12173      0.99950     1.86742    0.01135     2.87827
      C    5   -0.15345      0.99947     2.14582    0.00816     3.15345
      C    6    0.11530      0.99956     1.87211    0.01303     2.88470
      N    7   -0.27436      0.99965     2.76313    0.01159     3.77436
      C    8   -0.29670      0.99963     2.29055    0.00652     3.29670
      N    9   -0.24307      0.99964     2.73262    0.01080     3.74307
      C   10   -0.08038      0.99963     2.06976    0.01099     3.08038
      C   11   -0.24432      0.99960     2.23610    0.00863     3.24432
      C   12    0.33468      0.99968     1.64399    0.02164     2.66532
      O   13   -0.27152      0.99987     3.26518    0.00647     4.27152
      C   14   -0.13311      0.99958     2.12282    0.01071     3.13311
      H   15    0.10352      0.00000     0.39520    0.00128     0.39648
      H   16    0.10475      0.00000     0.39382    0.00143     0.39525
      H   17    0.09779      0.00000     0.40146    0.00075     0.40221
      H   18    0.10615      0.00000     0.39279    0.00105     0.39385
      H   19    0.10761      0.00000     0.39092    0.00147     0.39239
      H   20    0.10498      0.00000     0.39394    0.00108     0.39502
      H   21    0.10397      0.00000     0.39497    0.00106     0.39603
      H   22    0.10014      0.00000     0.39903    0.00083     0.39986
      H   23    0.10364      0.00000     0.39244    0.00392     0.39636
      H   24    0.08709      0.00000     0.41167    0.00124     0.41291
      H   25    0.10922      0.00000     0.38994    0.00084     0.39078
      H   26    0.11993      0.00000     0.37536    0.00472     0.38007
      H   27    0.11096      0.00000     0.38640    0.00264     0.38904
      H   28    0.10015      0.00000     0.39875    0.00111     0.39985
 =======================================================================
   * Total *   -0.00000     13.99448    36.83690    0.16862    51.00000

 Normal termination of Gaussian 16 at Thu Dec 10 11:12:34 2020.
