 Gaussian 16, Revision A.03,

 -----------------------------------------------------------
 # opt freq B3LYP/6-31G(d) empiricaldispersion=gd3bj scf=xqc
 -----------------------------------------------------------

 -------------------------------
 CID_143884957_JID_4622_neutraal
 -------------------------------
 Symbolic Z-matrix:
 Charge =  0 Multiplicity = 1

 SCF Done:  E(RB3LYP) =  -577.596739948     A.U. after   14 cycles
 SCF Done:  E(RB3LYP) =  -577.601578615     A.U. after   13 cycles
 SCF Done:  E(RB3LYP) =  -577.598495706     A.U. after   14 cycles
 SCF Done:  E(RB3LYP) =  -577.601518367     A.U. after   12 cycles
 SCF Done:  E(RB3LYP) =  -577.602429759     A.U. after   10 cycles
 SCF Done:  E(RB3LYP) =  -577.603464886     A.U. after   14 cycles
 SCF Done:  E(RB3LYP) =  -577.592379300     A.U. after   16 cycles
 SCF Done:  E(RB3LYP) =  -577.602841044     A.U. after   13 cycles
 SCF Done:  E(RB3LYP) =  -577.603619683     A.U. after   10 cycles
 SCF Done:  E(RB3LYP) =  -577.603600612     A.U. after   12 cycles
 SCF Done:  E(RB3LYP) =  -577.605512137     A.U. after    9 cycles
 SCF Done:  E(RB3LYP) =  -577.605512239     A.U. after    9 cycles
 SCF Done:  E(RB3LYP) =  -577.605512827     A.U. after    8 cycles
 SCF Done:  E(RB3LYP) =  -577.605513084     A.U. after    9 cycles
 SCF Done:  E(RB3LYP) =  -577.605513247     A.U. after    9 cycles
 SCF Done:  E(RB3LYP) =  -577.605513415     A.U. after    9 cycles
 Optimization completed.
    -- Stationary point found.
 Normal termination of Gaussian 16 at Thu Dec 10 11:06:10 2020.

 --------------------------------------------------------------------
 #N Geom=AllCheck Guess=TCheck SCRF=Check GenChk RB3LYP/6-31G(d) Freq
 --------------------------------------------------------------------

 Structure from the checkpoint file:  "JID_4622.chk"
 -------------------------------
 CID_143884957_JID_4622_neutraal
 -------------------------------
 Charge =  0 Multiplicity = 1

 SCF Done:  E(RB3LYP) =  -577.605513415     A.U. after    1 cycles

  Exact polarizability: 173.146  27.092 154.188 -30.205   3.244 118.076
 Approx polarizability: 263.502  61.826 236.229 -60.560  -6.856 191.217

                      1                      2                      3
                      A                      A                      A
 Frequencies --     18.4600                23.8280                39.9859
 Red. masses --      4.0726                 2.6700                 2.4547
 Frc consts  --      0.0008                 0.0009                 0.0023
 IR Inten    --      0.1281                 0.0504                 0.2176

                      4                      5                      6
                      A                      A                      A
 Frequencies --     46.3055                70.1422                72.4506
 Red. masses --      2.8868                 1.9944                 2.1810
 Frc consts  --      0.0036                 0.0058                 0.0067
 IR Inten    --      0.4125                 0.0109                 0.1882

                      7                      8                      9
                      A                      A                      A
 Frequencies --     85.4596                90.1265               112.4010
 Red. masses --      3.8283                 3.6389                 1.0921
 Frc consts  --      0.0165                 0.0174                 0.0081
 IR Inten    --      0.0780                 0.0359                 0.5526

                     10                     11                     12
                      A                      A                      A
 Frequencies --    131.8109               142.3639               153.3768
 Red. masses --      1.8052                 2.4480                 3.4843
 Frc consts  --      0.0185                 0.0292                 0.0483
 IR Inten    --      0.0332                 0.1034                 0.3853

                     13                     14                     15
                      A                      A                      A
 Frequencies --    190.2129               242.9763               291.5424
 Red. masses --      3.3255                 2.4739                 3.2088
 Frc consts  --      0.0709                 0.0861                 0.1607
 IR Inten    --      0.2392                 1.2686                 0.9916

                     16                     17                     18
                      A                      A                      A
 Frequencies --    322.0919               323.8483               372.0929
 Red. masses --      1.1990                 2.2704                 2.9722
 Frc consts  --      0.0733                 0.1403                 0.2425
 IR Inten    --      0.8286                 2.2321                 0.7833

                     19                     20                     21
                      A                      A                      A
 Frequencies --    403.5356               446.7655               534.4257
 Red. masses --      4.0382                 3.8010                 1.5753
 Frc consts  --      0.3874                 0.4470                 0.2651
 IR Inten    --      1.5329                 3.2141                46.8762

                     22                     23                     24
                      A                      A                      A
 Frequencies --    562.7821               637.9534               672.8648
 Red. masses --      1.8538                 2.7302                 3.8672
 Frc consts  --      0.3459                 0.6547                 1.0316
 IR Inten    --     20.4631                 8.1187                 7.2342

                     25                     26                     27
                      A                      A                      A
 Frequencies --    693.6360               715.9399               749.5812
 Red. masses --      2.9231                 2.2152                 3.3068
 Frc consts  --      0.8286                 0.6690                 1.0947
 IR Inten    --     21.4415                 7.9292                10.9248

                     28                     29                     30
                      A                      A                      A
 Frequencies --    801.0997               835.2810               838.3734
 Red. masses --      1.2420                 1.0620                 1.1828
 Frc consts  --      0.4696                 0.4366                 0.4898
 IR Inten    --     56.3790                 4.1873                 4.2235

                     31                     32                     33
                      A                      A                      A
 Frequencies --    838.5521               866.4629               880.4190
 Red. masses --      1.4029                 1.1951                 1.3078
 Frc consts  --      0.5812                 0.5286                 0.5973
 IR Inten    --     19.7984                 7.7375                 4.5131

                     34                     35                     36
                      A                      A                      A
 Frequencies --    922.1986               937.1295               946.3859
 Red. masses --      2.3682                 1.3728                 5.2801
 Frc consts  --      1.1866                 0.7103                 2.7863
 IR Inten    --      1.9045                35.6901                27.9447

                     37                     38                     39
                      A                      A                      A
 Frequencies --    969.9306               995.2586              1012.7445
 Red. masses --      2.4532                 1.2935                 1.9381
 Frc consts  --      1.3597                 0.7549                 1.1712
 IR Inten    --     23.9910                 2.5381                 3.0614

                     40                     41                     42
                      A                      A                      A
 Frequencies --   1013.6087              1056.3637              1063.2999
 Red. masses --      2.7739                 1.1123                 1.6907
 Frc consts  --      1.6791                 0.7313                 1.1262
 IR Inten    --      0.8344                12.3713                10.0950

                     43                     44                     45
                      A                      A                      A
 Frequencies --   1069.2167              1080.4714              1144.1518
 Red. masses --      1.5150                 1.9736                 2.6284
 Frc consts  --      1.0204                 1.3575                 2.0273
 IR Inten    --      0.6903                 1.6931                24.1280

                     46                     47                     48
                      A                      A                      A
 Frequencies --   1162.6339              1198.8255              1235.9246
 Red. masses --      2.0297                 2.4615                 1.4596
 Frc consts  --      1.6165                 2.0843                 1.3136
 IR Inten    --      2.8784                 1.1152                 0.3850

                     49                     50                     51
                      A                      A                      A
 Frequencies --   1238.4196              1272.8683              1295.5272
 Red. masses --      1.4600                 2.0387                 1.4226
 Frc consts  --      1.3193                 1.9461                 1.4068
 IR Inten    --      0.0366                 1.5070                14.0974

                     52                     53                     54
                      A                      A                      A
 Frequencies --   1322.9218              1342.6172              1358.2038
 Red. masses --      1.9512                 1.3053                 1.7179
 Frc consts  --      2.0119                 1.3863                 1.8672
 IR Inten    --     10.9964                 1.3469                 5.5625

                     55                     56                     57
                      A                      A                      A
 Frequencies --   1389.9899              1426.8227              1429.3387
 Red. masses --      2.1919                 1.4822                 1.2015
 Frc consts  --      2.4951                 1.7779                 1.4463
 IR Inten    --      9.7261                 1.3385                 1.0887

                     58                     59                     60
                      A                      A                      A
 Frequencies --   1439.2084              1452.9698              1455.9449
 Red. masses --      1.2795                 1.3850                 1.9940
 Frc consts  --      1.5614                 1.7227                 2.4903
 IR Inten    --      0.3775                 5.0119                 2.2410

                     61                     62                     63
                      A                      A                      A
 Frequencies --   1491.1798              1495.2361              1510.0593
 Red. masses --      3.1122                 1.5106                 1.1206
 Frc consts  --      4.0773                 1.9899                 1.5055
 IR Inten    --      4.5234                 1.2760                11.8695

                     64                     65                     66
                      A                      A                      A
 Frequencies --   1517.9468              1530.1885              1532.8873
 Red. masses --      1.0795                 1.0255                 1.0357
 Frc consts  --      1.4655                 1.4148                 1.4339
 IR Inten    --      4.3142                 5.7291                 0.7286

                     67                     68                     69
                      A                      A                      A
 Frequencies --   1538.2737              1541.6600              1609.4655
 Red. masses --      1.0525                 1.0529                 3.7771
 Frc consts  --      1.4674                 1.4744                 5.7646
 IR Inten    --      8.9387                 4.4831                 6.3917

                     70                     71                     72
                      A                      A                      A
 Frequencies --   1650.0985              1697.3451              1710.9978
 Red. masses --      5.0407                 5.6886                 4.5339
 Frc consts  --      8.0866                 9.6559                 7.8203
 IR Inten    --      8.2466                 2.0898                 0.3020

                     73                     74                     75
                      A                      A                      A
 Frequencies --   3033.2290              3047.3584              3051.5547
 Red. masses --      1.0409                 1.0357                 1.0372
 Frc consts  --      5.6425                 5.6666                 5.6904
 IR Inten    --     36.8416                17.1137                28.4660

                     76                     77                     78
                      A                      A                      A
 Frequencies --   3074.0004              3098.9294              3104.5691
 Red. masses --      1.0994                 1.1014                 1.1009
 Frc consts  --      6.1208                 6.2317                 6.2518
 IR Inten    --     17.9040                 4.4018                20.1550

                     79                     80                     81
                      A                      A                      A
 Frequencies --   3123.6445              3137.2572              3140.8254
 Red. masses --      1.1028                 1.1013                 1.0952
 Frc consts  --      6.3397                 6.3864                 6.3652
 IR Inten    --     67.4250                45.2035                10.0095

                     82                     83                     84
                      A                      A                      A
 Frequencies --   3149.9778              3162.5181              3176.3189
 Red. masses --      1.0861                 1.0610                 1.0887
 Frc consts  --      6.3492                 6.2523                 6.4718
 IR Inten    --      2.9637                11.0212                13.8271

                     85                     86                     87
                      A                      A                      A
 Frequencies --   3183.1458              3203.5051              3250.6164
 Red. masses --      1.0907                 1.0909                 1.1147
 Frc consts  --      6.5115                 6.5958                 6.9398
 IR Inten    --     23.1559                 3.2842                12.8710

                     88                     89                     90
                      A                      A                      A
 Frequencies --   3257.4864              3282.1897              3668.7013
 Red. masses --      1.0933                 1.1001                 1.0811
 Frc consts  --      6.8353                 6.9827                 8.5729
 IR Inten    --     10.3665                 2.0496                54.9414

 - Thermochemistry -
 -------------------
 Temperature   298.150 Kelvin.  Pressure   1.00000 Atm.
 Atom     1 has atomic number  6 and mass  12.00000

 Molecular mass:   190.14700 amu.
 Principal axes and moments of inertia in atomic units:
                           1         2         3
     Eigenvalues --  2647.426013373.301404422.03073
           X            0.99966   0.02493   0.00774
           Y           -0.02487   0.99966  -0.00798
           Z           -0.00794   0.00779   0.99994
 This molecule is an asymmetric top.
 Rotational symmetry number  1.
 Warning -- assumption of classical behavior for rotation
           may cause significant error
 Rotational temperatures (Kelvin)      0.03272     0.02568     0.01959
 Rotational constants (GHZ):           0.68170     0.53501     0.40812
 Zero-point vibrational energy     726200.8 (Joules/Mol)
                                  173.56615 (Kcal/Mol)
 Warning -- explicit consideration of  22 degrees of freedom as
           vibrations may cause significant error
 Vibrational temperatures:     26.56    34.28    57.53    66.62   100.92
          (Kelvin)            104.24   122.96   129.67   161.72   189.65
                              204.83   220.68   273.67   349.59   419.46
                              463.42   465.95   535.36   580.60   642.80
                              768.92   809.72   917.87   968.10   997.99
                             1030.08  1078.48  1152.60  1201.78  1206.23
                             1206.49  1246.65  1266.73  1326.84  1348.32
                             1361.64  1395.51  1431.96  1457.11  1458.36
                             1519.87  1529.85  1538.36  1554.56  1646.18
                             1672.77  1724.84  1778.22  1781.81  1831.37
                             1863.97  1903.39  1931.73  1954.15  1999.89
                             2052.88  2056.50  2070.70  2090.50  2094.78
                             2145.48  2151.31  2172.64  2183.99  2201.60
                             2205.48  2213.23  2218.10  2315.66  2374.12
                             2442.10  2461.74  4364.14  4384.47  4390.51
                             4422.80  4458.67  4466.78  4494.23  4513.81
                             4518.95  4532.12  4550.16  4570.01  4579.84
                             4609.13  4676.91  4686.80  4722.34  5278.44

 Zero-point correction=                           0.276595 (Hartree/Particle)
 Thermal correction to Energy=                    0.293890
 Thermal correction to Enthalpy=                  0.294834
 Thermal correction to Gibbs Free Energy=         0.228133
 Sum of electronic and zero-point Energies=           -577.328918
 Sum of electronic and thermal Energies=              -577.311624
 Sum of electronic and thermal Enthalpies=            -577.310680
 Sum of electronic and thermal Free Energies=         -577.377380

                     E (Thermal)             CV                S
                      KCal/Mol        Cal/Mol-Kelvin    Cal/Mol-Kelvin
 Total                  184.419             59.506            140.384
 Electronic               0.000              0.000              0.000
 Translational            0.889              2.981             41.634
 Rotational               0.889              2.981             32.046
 Vibrational            182.641             53.544             66.704
 Vibration     1          0.593              1.986              6.793
 Vibration     2          0.593              1.985              6.287
 Vibration     3          0.594              1.981              5.260
 Vibration     4          0.595              1.979              4.969
 Vibration     5          0.598              1.968              4.149
 Vibration     6          0.599              1.967              4.086
 Vibration     7          0.601              1.959              3.761
 Vibration     8          0.602              1.956              3.657
 Vibration     9          0.607              1.939              3.227
 Vibration    10          0.612              1.922              2.919
 Vibration    11          0.616              1.911              2.772
 Vibration    12          0.619              1.899              2.630
 Vibration    13          0.634              1.853              2.226
 Vibration    14          0.659              1.774              1.781
 Vibration    15          0.687              1.689              1.465
 Vibration    16          0.707              1.631              1.299
 Vibration    17          0.708              1.628              1.291
 Vibration    18          0.744              1.529              1.071
 Vibration    19          0.769              1.462              0.950
 Vibration    20          0.806              1.368              0.806
 Vibration    21          0.889              1.174              0.577
 Vibration    22          0.919              1.112              0.518

 Optimization completed.
    -- Stationary point found.
 Normal termination of Gaussian 16 at Thu Dec 10 11:16:02 2020.

 ----------------------------------------------------------------------
 # B3LYP/6-311++G(d,p) empiricaldispersion=gd3bj scf=xqc pop=npa geom=c
 heck
 ----------------------------------------------------------------------

 ---------------------------------------
 CID_143884957_JID_4622_Energie_neutraal
 ---------------------------------------
 Structure from the checkpoint file:  "JID_4622.chk"
 Charge =  0 Multiplicity = 1

 SCF Done:  E(RB3LYP) =  -577.767751933     A.U. after   16 cycles
 Normal termination of Gaussian 16 at Thu Dec 10 11:20:12 2020.

 ----------------------------------------------------------------------
 # B3LYP/6-311++G(d,p) empiricaldispersion=gd3bj scf=xqc pop=npa geom=c
 heck
 ----------------------------------------------------------------------

 -------------------------------------
 CID_143884957_JID_4622_Energie_kation
 -------------------------------------
 Structure from the checkpoint file:  "JID_4622.chk"
 Charge =  1 Multiplicity = 2

 SCF Done:  E(UB3LYP) =  -577.487550572     A.U. after   24 cycles
 Normal termination of Gaussian 16 at Thu Dec 10 11:27:48 2020.
 Gaussian 16:  ES64L-G16RevA.03 25-Dec-2016

 ----------------------------------------------------------------------
 # B3LYP/6-311++G(d,p) empiricaldispersion=gd3bj scf=xqc pop=npa geom=c
 heck
 ----------------------------------------------------------------------

 ------------------------------------
 CID_143884957_JID_4622_Energie_anion
 ------------------------------------
 Structure from the checkpoint file:  "JID_4622.chk"
 Charge = -1 Multiplicity = 2

                         Standard orientation:
 ---------------------------------------------------------------------
 Center     Atomic      Atomic             Coordinates (Angstroms)
 Number     Number       Type             X           Y           Z
 ---------------------------------------------------------------------
      1          6           0       -2.498136    0.218332   -2.133431
      2          6           0       -3.292910    0.521013   -0.862683
      3          6           0       -1.191905   -3.175341    1.100367
      4          6           0       -1.027270   -1.687892    1.127179
      5          6           0       -0.114002   -0.958714    0.445399
      6          6           0        0.794430   -1.562694   -0.546465
      7          6           0        2.062473   -1.197781   -0.846491
      8          6           0        2.878911   -0.184043   -0.197071
      9          6           0        4.120798    0.118228   -0.605922
     10          6           0       -0.083400    0.497321    0.643342
     11          6           0       -0.351003    1.298793    1.748046
     12          6           0       -0.215576    2.624575    1.282723
     13          7           0        0.114862    2.667996   -0.010295
     14          7           0        0.189131    1.370487   -0.369282
     15          1           0       -2.099112    1.137564   -2.577582
     16          1           0       -3.121476   -0.272512   -2.889967
     17          1           0       -1.653487   -0.446124   -1.920278
     18          1           0       -2.676545    1.044557   -0.125666
     19          1           0       -4.162520    1.151611   -1.080420
     20          1           0       -3.658369   -0.401282   -0.396330
     21          1           0       -0.444304   -3.674969    0.480009
     22          1           0       -2.189757   -3.452921    0.734030
     23          1           0       -1.108774   -3.587787    2.115146
     24          1           0       -1.716886   -1.147207    1.772341
     25          1           0        0.385125   -2.403728   -1.100435
     26          1           0        2.558003   -1.746992   -1.646878
     27          1           0        2.462316    0.329662    0.664376
     28          1           0        4.720624    0.868172   -0.100098
     29          1           0        4.574831   -0.376265   -1.462120
     30          1           0       -0.586499    0.960172    2.746074
     31          1           0       -0.336269    3.547954    1.833592
     32          1           0        0.430683    1.129930   -1.318712
 ---------------------------------------------------------------------

 SCF Done:  E(UB3LYP) =  -577.774357971     A.U. after   29 cycles

 The electronic state is 2-A.
 Alpha  occ. eigenvalues --  -14.24697 -14.20156 -10.07882 -10.06558 -10.04995
 Alpha  occ. eigenvalues --  -10.04769 -10.03788 -10.03466 -10.02941 -10.01489
 Alpha  occ. eigenvalues --  -10.01100 -10.00714 -10.00391 -10.00161  -0.91558
 Alpha  occ. eigenvalues --   -0.70390  -0.67142  -0.64560  -0.64387  -0.63354
 Alpha  occ. eigenvalues --   -0.58798  -0.54671  -0.50761  -0.48065  -0.47533
 Alpha  occ. eigenvalues --   -0.45634  -0.42221  -0.40121  -0.35393  -0.33519
 Alpha  occ. eigenvalues --   -0.32792  -0.32744  -0.31528  -0.30931  -0.30556
 Alpha  occ. eigenvalues --   -0.29456  -0.28630  -0.28147  -0.26073  -0.25415
 Alpha  occ. eigenvalues --   -0.24580  -0.23728  -0.23596  -0.23307  -0.21415
 Alpha  occ. eigenvalues --   -0.18972  -0.17948  -0.17097  -0.15265  -0.13352
 Alpha  occ. eigenvalues --   -0.10471  -0.07146   0.04975
 Alpha virt. eigenvalues --    0.07952   0.08996   0.09210   0.09748   0.10600
 Alpha virt. eigenvalues --    0.11172   0.11313   0.11375   0.11595   0.12342
 Alpha virt. eigenvalues --    0.12901   0.13867   0.14215   0.14913   0.15036

  Beta  occ. eigenvalues --  -14.24654 -14.20157 -10.07862 -10.06560 -10.04990
  Beta  occ. eigenvalues --  -10.04762 -10.03810 -10.03455 -10.02943 -10.01494
  Beta  occ. eigenvalues --  -10.00636 -10.00506 -10.00114  -9.99810  -0.91516
  Beta  occ. eigenvalues --   -0.70206  -0.66931  -0.64390  -0.64161  -0.62912
  Beta  occ. eigenvalues --   -0.58355  -0.54397  -0.50745  -0.48021  -0.47356
  Beta  occ. eigenvalues --   -0.44847  -0.41800  -0.39872  -0.35136  -0.33437
  Beta  occ. eigenvalues --   -0.32730  -0.32694  -0.31424  -0.30841  -0.30439
  Beta  occ. eigenvalues --   -0.29217  -0.28250  -0.27984  -0.26064  -0.25158
  Beta  occ. eigenvalues --   -0.24421  -0.23667  -0.23575  -0.23163  -0.21160
  Beta  occ. eigenvalues --   -0.18554  -0.17231  -0.16635  -0.14640  -0.13087
  Beta  occ. eigenvalues --   -0.09483  -0.05083
  Beta virt. eigenvalues --    0.07891   0.08929   0.09158   0.09689   0.10438
  Beta virt. eigenvalues --    0.10927   0.11278   0.11398   0.11484   0.12070
  Beta virt. eigenvalues --    0.12437   0.12859   0.13796   0.14213   0.14993

 Mulliken charges and spin densities:
               1          2
     1  C   -0.557976   0.003711
     2  C   -0.322659  -0.042352
     3  C   -0.560505  -0.194072
     4  C   -0.973746   0.408693
     5  C    1.419421   0.018630
     6  C   -0.782754   0.165792
     7  C   -0.462522   0.193200
     8  C    0.229943  -0.075009
     9  C   -0.852329   0.384834
    10  C   -0.212587  -0.007910
    11  C    0.077913   0.018404
    12  C   -0.287681  -0.012553
    13  N   -0.021617   0.007097
    14  N    0.076803   0.012608
    15  H    0.117054   0.001341
    16  H    0.103498  -0.000477
    17  H    0.231068   0.000719
    18  H    0.156942   0.012409
    19  H    0.105394   0.004992
    20  H    0.107331   0.017135
    21  H    0.084586   0.037105
    22  H    0.127950   0.000987
    23  H    0.065962   0.070032
    24  H    0.069979   0.008163
    25  H    0.115727   0.002871
    26  H    0.082665   0.000134
    27  H    0.144942  -0.001408
    28  H    0.094338  -0.016117
    29  H    0.070223  -0.015196
    30  H    0.152078  -0.001103
    31  H    0.126207   0.000042
    32  H    0.274354  -0.002701
 Sum of Mulliken charges =  -1.00000   1.00000

 Dipole moment (field-independent basis, Debye):
    X=             -4.7610    Y=              0.2326    Z=             -0.0592  Tot=              4.7671
 Quadrupole moment (field-independent basis, Debye-Ang):
   XX=           -128.0450   YY=           -115.9670   ZZ=            -97.3015
   XY=              0.2795   XZ=              2.3039   YZ=              5.5652

 Summary of Natural Population Analysis:

                                       Natural Population
                Natural  -----------------------------------------------
    Atom  No    Charge         Core      Valence    Rydberg      Total
 -----------------------------------------------------------------------
      C    1   -0.28870      0.99968     2.28479    0.00423     3.28870
      C    2   -0.28664      0.99968     2.28249    0.00447     3.28664
      C    3   -0.30388      0.99966     2.29908    0.00514     3.30388
      C    4    0.02004      0.99952     1.97210    0.00834     2.97996
      C    5   -0.07749      0.99943     2.06632    0.01173     3.07749
      C    6   -0.08069      0.99953     2.07153    0.00963     3.08069
      C    7   -0.06298      0.99954     2.05365    0.00978     3.06298
      C    8   -0.12199      0.99956     2.11306    0.00937     3.12199
      C    9   -0.12503      0.99960     2.11706    0.00837     3.12503
      C   10    0.08923      0.99952     1.89562    0.01564     2.91077
      C   11   -0.17100      0.99950     2.16449    0.00701     3.17100
      C   12   -0.02441      0.99965     2.01035    0.01441     3.02441
      N   13   -0.16591      0.99975     2.65431    0.01185     3.66591
      N   14   -0.16812      0.99965     2.65300    0.01547     3.66812
      H   15    0.09249      0.00000     0.40656    0.00095     0.40751
      H   16    0.08621      0.00000     0.41278    0.00101     0.41379
      H   17    0.10863      0.00000     0.39040    0.00097     0.39137
      H   18    0.10698      0.00000     0.39134    0.00168     0.39302
      H   19    0.08522      0.00000     0.41375    0.00103     0.41478
      H   20    0.09498      0.00000     0.40345    0.00157     0.40502
      H   21    0.10120      0.00000     0.39754    0.00127     0.39880
      H   22    0.09594      0.00000     0.40292    0.00115     0.40406
      H   23    0.09909      0.00000     0.39937    0.00154     0.40091
      H   24    0.07892      0.00000     0.41948    0.00160     0.42108
      H   25    0.08704      0.00000     0.41154    0.00142     0.41296
      H   26    0.08074      0.00000     0.41718    0.00208     0.41926
      H   27    0.09414      0.00000     0.40430    0.00157     0.40586
      H   28    0.08031      0.00000     0.41868    0.00102     0.41969
      H   29    0.07625      0.00000     0.42254    0.00121     0.42375
      H   30    0.10578      0.00000     0.39336    0.00086     0.39422
      H   31    0.08975      0.00000     0.40934    0.00091     0.41025
      H   32    0.20391      0.00000     0.29455    0.00154     0.29609
 =======================================================================
   * Total *    0.00000     13.99426    37.84693    0.15881    52.00000

 Normal termination of Gaussian 16 at Thu Dec 10 11:37:39 2020.
