 Gaussian 16, Revision A.03,

 -----------------------------------------------------------
 # opt freq B3LYP/6-31G(d) empiricaldispersion=gd3bj scf=xqc
 -----------------------------------------------------------

 -------------------------------
 CID_102884044_JID_2170_neutraal
 -------------------------------
 Symbolic Z-matrix:
 Charge =  0 Multiplicity = 1

 SCF Done:  E(RB3LYP) =  -949.329913268     A.U. after   14 cycles
 SCF Done:  E(RB3LYP) =  -949.340194638     A.U. after   12 cycles
 SCF Done:  E(RB3LYP) =  -949.341318691     A.U. after   12 cycles
 SCF Done:  E(RB3LYP) =  -949.341450918     A.U. after   11 cycles
 SCF Done:  E(RB3LYP) =  -949.341501202     A.U. after   11 cycles
 SCF Done:  E(RB3LYP) =  -949.341522374     A.U. after   10 cycles
 SCF Done:  E(RB3LYP) =  -949.341529267     A.U. after   10 cycles
 SCF Done:  E(RB3LYP) =  -949.341530762     A.U. after    8 cycles
 SCF Done:  E(RB3LYP) =  -949.341530996     A.U. after    7 cycles
 Optimization completed.
    -- Stationary point found.
 Normal termination of Gaussian 16 at Wed Dec  9 16:50:35 2020.

 --------------------------------------------------------------------
 #N Geom=AllCheck Guess=TCheck SCRF=Check GenChk RB3LYP/6-31G(d) Freq
 --------------------------------------------------------------------

 Structure from the checkpoint file:  "JID_2170.chk"
 -------------------------------
 CID_102884044_JID_2170_neutraal
 -------------------------------
 Charge =  0 Multiplicity = 1

 SCF Done:  E(RB3LYP) =  -949.341530997     A.U. after    1 cycles

  Exact polarizability: 110.602   2.164 106.277   3.971  -3.451  84.542
 Approx polarizability: 152.203   6.642 167.907   7.587   0.202 136.314

                      1                      2                      3
                      A                      A                      A
 Frequencies --     53.5803                96.8664               141.7617
 Red. masses --      5.0872                 4.6347                 4.6541
 Frc consts  --      0.0086                 0.0256                 0.0551
 IR Inten    --      2.1067                 3.3174                 2.0782

                      4                      5                      6
                      A                      A                      A
 Frequencies --    153.2911               221.8243               233.4995
 Red. masses --      4.1538                 2.1371                 4.5101
 Frc consts  --      0.0575                 0.0620                 0.1449
 IR Inten    --      5.5816                 2.1846                 1.6607

                      7                      8                      9
                      A                      A                      A
 Frequencies --    235.7639               269.5050               316.3952
 Red. masses --      1.4124                 3.6776                 3.2332
 Frc consts  --      0.0463                 0.1574                 0.1907
 IR Inten    --      2.5550                 5.2073                 1.1926

                     10                     11                     12
                      A                      A                      A
 Frequencies --    365.1514               382.2658               413.5644
 Red. masses --      3.0676                 3.1007                 3.7120
 Frc consts  --      0.2410                 0.2670                 0.3741
 IR Inten    --      1.1318                 2.9059                12.6258

                     13                     14                     15
                      A                      A                      A
 Frequencies --    435.1634               445.0809               465.3236
 Red. masses --      1.5961                 1.6302                 4.1250
 Frc consts  --      0.1781                 0.1903                 0.5262
 IR Inten    --     25.5436                25.3972                21.9651

                     16                     17                     18
                      A                      A                      A
 Frequencies --    495.4281               526.4163               582.3050
 Red. masses --      3.0620                 3.6704                 3.6055
 Frc consts  --      0.4428                 0.5993                 0.7203
 IR Inten    --      5.4717                 4.6233                10.9736

                     19                     20                     21
                      A                      A                      A
 Frequencies --    620.3994               647.8243               659.1890
 Red. masses --      3.7909                 1.8800                 3.0218
 Frc consts  --      0.8597                 0.4649                 0.7736
 IR Inten    --     38.7241               132.8750                 3.3267

                     22                     23                     24
                      A                      A                      A
 Frequencies --    715.4742               777.0792               783.8332
 Red. masses --      2.6624                 2.6311                 1.8677
 Frc consts  --      0.8030                 0.9361                 0.6761
 IR Inten    --     14.0711                 5.1179               135.6203

                     25                     26                     27
                      A                      A                      A
 Frequencies --    850.7730               876.8915               886.9135
 Red. masses --      1.4986                 2.2616                 2.2432
 Frc consts  --      0.6391                 1.0246                 1.0396
 IR Inten    --     50.8348                 8.0987                30.1764

                     28                     29                     30
                      A                      A                      A
 Frequencies --    938.0990               943.7821              1006.5096
 Red. masses --      2.1072                 2.0148                 2.1982
 Frc consts  --      1.0926                 1.0574                 1.3121
 IR Inten    --      2.0599                21.2103                29.1435

                     31                     32                     33
                      A                      A                      A
 Frequencies --   1039.7285              1060.9876              1096.7761
 Red. masses --      1.7822                 1.6767                 2.2039
 Frc consts  --      1.1351                 1.1121                 1.5620
 IR Inten    --     19.1509                10.9839                65.3420

                     34                     35                     36
                      A                      A                      A
 Frequencies --   1112.4853              1127.3014              1142.3232
 Red. masses --      2.2634                 1.9044                 1.7647
 Frc consts  --      1.6505                 1.4259                 1.3567
 IR Inten    --     87.7852                23.6876                90.5856

                     37                     38                     39
                      A                      A                      A
 Frequencies --   1181.8019              1199.6794              1234.8080
 Red. masses --      1.5586                 1.4916                 1.7117
 Frc consts  --      1.2826                 1.2648                 1.5377
 IR Inten    --     33.9014                32.1818                29.6392

                     40                     41                     42
                      A                      A                      A
 Frequencies --   1251.0710              1284.1007              1291.2346
 Red. masses --      1.7161                 1.7082                 2.6853
 Frc consts  --      1.5825                 1.6596                 2.6379
 IR Inten    --     40.1615                 6.9915                42.1700

                     43                     44                     45
                      A                      A                      A
 Frequencies --   1330.7371              1352.4655              1380.4713
 Red. masses --      2.3503                 1.3253                 1.3330
 Frc consts  --      2.4522                 1.4283                 1.4967
 IR Inten    --    133.2469                20.5513                 2.6051

                     46                     47                     48
                      A                      A                      A
 Frequencies --   1398.7448              1434.0168              1445.2549
 Red. masses --      1.3468                 1.3958                 1.2863
 Frc consts  --      1.5525                 1.6911                 1.5830
 IR Inten    --     53.7481                 8.4737                12.8983

                     49                     50                     51
                      A                      A                      A
 Frequencies --   1457.9519              1470.9153              1479.8775
 Red. masses --      2.3034                 1.1400                 1.0916
 Frc consts  --      2.8847                 1.4532                 1.4086
 IR Inten    --    220.9732                29.4808                11.1510

                     52                     53                     54
                      A                      A                      A
 Frequencies --   1516.4861              1526.3402              1546.0092
 Red. masses --      1.0655                 1.0647                 1.0584
 Frc consts  --      1.4437                 1.4614                 1.4904
 IR Inten    --      3.3469                21.5640                 7.0333

                     55                     56                     57
                      A                      A                      A
 Frequencies --   1647.6103              1728.1738              3067.3084
 Red. masses --      1.3683                 3.4494                 1.0383
 Frc consts  --      2.1885                 6.0698                 5.7556
 IR Inten    --    134.0103               197.0716                19.2488

                     58                     59                     60
                      A                      A                      A
 Frequencies --   3088.6358              3093.3955              3095.7805
 Red. masses --      1.0584                 1.0584                 1.0607
 Frc consts  --      5.9489                 5.9670                 5.9893
 IR Inten    --      1.2172                 1.6302                16.2274

                     61                     62                     63
                      A                      A                      A
 Frequencies --   3130.2491              3134.3307              3136.6012
 Red. masses --      1.0970                 1.0919                 1.1052
 Frc consts  --      6.3331                 6.3201                 6.4065
 IR Inten    --     10.6139                12.4804                 5.0343

                     64                     65                     66
                      A                      A                      A
 Frequencies --   3149.0548              3157.6361              3168.5558
 Red. masses --      1.1077                 1.1082                 1.0993
 Frc consts  --      6.4720                 6.5102                 6.5027
 IR Inten    --      1.6792                 3.2195                 6.1543

                     67                     68                     69
                      A                      A                      A
 Frequencies --   3519.9912              3526.4751              3631.7393
 Red. masses --      1.0724                 1.0511                 1.0959
 Frc consts  --      7.8285                 7.7017                 8.5161
 IR Inten    --     12.1147                11.2985                18.3017

 - Thermochemistry -
 -------------------
 Temperature   298.150 Kelvin.  Pressure   1.00000 Atm.
 Atom     1 has atomic number  6 and mass  12.00000

 Molecular mass:   191.07285 amu.
 Principal axes and moments of inertia in atomic units:
                           1         2         3
     Eigenvalues --  1279.856682885.787693314.97812
           X            0.99997  -0.00433   0.00653
           Y            0.00455   0.99939  -0.03472
           Z           -0.00637   0.03475   0.99938
 This molecule is an asymmetric top.
 Rotational symmetry number  1.
 Warning -- assumption of classical behavior for rotation
           may cause significant error
 Rotational temperatures (Kelvin)      0.06767     0.03001     0.02613
 Rotational constants (GHZ):           1.41011     0.62539     0.54442
 Zero-point vibrational energy     551341.3 (Joules/Mol)
                                  131.77372 (Kcal/Mol)
 Warning -- explicit consideration of  19 degrees of freedom as
           vibrations may cause significant error
 Vibrational temperatures:     77.09   139.37   203.96   220.55   319.16
          (Kelvin)            335.95   339.21   387.76   455.22   525.37
                              550.00   595.03   626.10   640.37   669.50
                              712.81   757.40   837.81   892.62   932.07
                              948.43  1029.41  1118.04  1127.76  1224.07
                             1261.65  1276.07  1349.72  1357.89  1448.14
                             1495.94  1526.52  1578.02  1600.62  1621.94
                             1643.55  1700.35  1726.07  1776.61  1800.01
                             1847.53  1857.80  1914.63  1945.90  1986.19
                             2012.48  2063.23  2079.40  2097.67  2116.32
                             2129.21  2181.89  2196.06  2224.36  2370.54
                             2486.46  4413.17  4443.86  4450.71  4454.14
                             4503.73  4509.60  4512.87  4530.79  4543.13
                             4558.85  5064.48  5073.81  5225.26

 Zero-point correction=                           0.209995 (Hartree/Particle)
 Thermal correction to Energy=                    0.221781
 Thermal correction to Enthalpy=                  0.222725
 Thermal correction to Gibbs Free Energy=         0.172663
 Sum of electronic and zero-point Energies=           -949.131536
 Sum of electronic and thermal Energies=              -949.119750
 Sum of electronic and thermal Enthalpies=            -949.118806
 Sum of electronic and thermal Free Energies=         -949.168868

                     E (Thermal)             CV                S
                      KCal/Mol        Cal/Mol-Kelvin    Cal/Mol-Kelvin
 Total                  139.170             46.430            105.366
 Electronic               0.000              0.000              0.000
 Translational            0.889              2.981             41.648
 Rotational               0.889              2.981             30.883
 Vibrational            137.392             40.468             32.835
 Vibration     1          0.596              1.976              4.681
 Vibration     2          0.603              1.951              3.516
 Vibration     3          0.615              1.911              2.780
 Vibration     4          0.619              1.899              2.631
 Vibration     5          0.648              1.808              1.944
 Vibration     6          0.654              1.790              1.852
 Vibration     7          0.655              1.786              1.835
 Vibration     8          0.674              1.729              1.599
 Vibration     9          0.703              1.642              1.329
 Vibration    10          0.738              1.544              1.100
 Vibration    11          0.752              1.508              1.030
 Vibration    12          0.777              1.441              0.914
 Vibration    13          0.796              1.394              0.842
 Vibration    14          0.804              1.372              0.811
 Vibration    15          0.823              1.327              0.751
 Vibration    16          0.851              1.260              0.670
 Vibration    17          0.881              1.192              0.595
 Vibration    18          0.939              1.070              0.481
 Vibration    19          0.980              0.989              0.416

 Optimization completed.
    -- Stationary point found.
 Normal termination of Gaussian 16 at Wed Dec  9 16:57:10 2020.

 ----------------------------------------------------------------------
 # B3LYP/6-311++G(d,p) empiricaldispersion=gd3bj scf=xqc pop=npa geom=c
 heck
 ----------------------------------------------------------------------

 ---------------------------------------
 CID_102884044_JID_2170_Energie_neutraal
 ---------------------------------------
 Structure from the checkpoint file:  "JID_2170.chk"
 Charge =  0 Multiplicity = 1

 SCF Done:  E(RB3LYP) =  -949.538537115     A.U. after   15 cycles
 Normal termination of Gaussian 16 at Wed Dec  9 17:00:11 2020.

 ----------------------------------------------------------------------
 # B3LYP/6-311++G(d,p) empiricaldispersion=gd3bj scf=xqc pop=npa geom=c
 heck
 ----------------------------------------------------------------------

 -------------------------------------
 CID_102884044_JID_2170_Energie_kation
 -------------------------------------
 Structure from the checkpoint file:  "JID_2170.chk"
 Charge =  1 Multiplicity = 2

 SCF Done:  E(UB3LYP) =  -949.213079933     A.U. after   24 cycles
 Normal termination of Gaussian 16 at Wed Dec  9 17:06:45 2020.
 Gaussian 16:  ES64L-G16RevA.03 25-Dec-2016

 ----------------------------------------------------------------------
 # B3LYP/6-311++G(d,p) empiricaldispersion=gd3bj scf=xqc pop=npa geom=c
 heck
 ----------------------------------------------------------------------

 ------------------------------------
 CID_102884044_JID_2170_Energie_anion
 ------------------------------------
 Structure from the checkpoint file:  "JID_2170.chk"
 Charge = -1 Multiplicity = 2

                         Standard orientation:
 ---------------------------------------------------------------------
 Center     Atomic      Atomic             Coordinates (Angstroms)
 Number     Number       Type             X           Y           Z
 ---------------------------------------------------------------------
      1          6           0       -0.115165    2.425627    0.597879
      2          6           0       -0.542371    1.257345   -0.294766
      3          6           0        0.605109    0.679566   -1.157534
      4         16           0        1.817280   -0.288865   -0.217432
      5          8           0        2.464638    0.596774    0.768720
      6          8           0        2.626295   -1.075984   -1.157964
      7          6           0        0.705880   -1.390864    0.696433
      8          6           0       -0.378006   -0.553926    1.395133
      9          7           0       -1.219054    0.189581    0.468270
     10          6           0       -2.320478   -0.477783   -0.090858
     11          7           0       -2.649494   -1.712348    0.036516
     12          7           0       -3.140172    0.353739   -0.863214
     13          1           0       -0.976333    2.783535    1.170369
     14          1           0        0.253494    3.247753   -0.024662
     15          1           0        0.687814    2.155621    1.286016
     16          1           0       -1.274732    1.625065   -1.013722
     17          1           0        0.209335    0.003155   -1.920719
     18          1           0        1.181874    1.469332   -1.648367
     19          1           0        1.340216   -1.925854    1.409464
     20          1           0        0.288996   -2.098843   -0.024609
     21          1           0        0.106361    0.151624    2.075130
     22          1           0       -1.014990   -1.200291    2.003727
     23          1           0       -1.918882   -2.269557    0.475168
     24          1           0       -3.396077    1.221782   -0.402837
     25          1           0       -3.959791   -0.164394   -1.160808
 ---------------------------------------------------------------------

 SCF Done:  E(UB3LYP) =  -949.532391781     A.U. after   28 cycles

 The electronic state is 2-A.
 Alpha  occ. eigenvalues --  -88.95117 -19.02330 -19.02070 -14.24361 -14.21282
 Alpha  occ. eigenvalues --  -14.17126 -10.17046 -10.13048 -10.12744 -10.12110
 Alpha  occ. eigenvalues --  -10.11755 -10.06318  -8.01635  -5.97900  -5.97783
 Alpha  occ. eigenvalues --   -5.97733  -1.01422  -0.91126  -0.89222  -0.81181
 Alpha  occ. eigenvalues --   -0.75112  -0.70935  -0.70709  -0.62911  -0.58488
 Alpha  occ. eigenvalues --   -0.53844  -0.51273  -0.46613  -0.44788  -0.41158
 Alpha  occ. eigenvalues --   -0.40579  -0.39585  -0.38960  -0.37335  -0.36024
 Alpha  occ. eigenvalues --   -0.35716  -0.34648  -0.33769  -0.30844  -0.30225
 Alpha  occ. eigenvalues --   -0.28901  -0.28136  -0.27316  -0.26600  -0.23840
 Alpha  occ. eigenvalues --   -0.22941  -0.21257  -0.19298  -0.17458  -0.16237
 Alpha  occ. eigenvalues --   -0.13840   0.04128
 Alpha virt. eigenvalues --    0.06584   0.07733   0.08288   0.09782   0.10058
 Alpha virt. eigenvalues --    0.10279   0.10842   0.11304   0.12734   0.13010
 Alpha virt. eigenvalues --    0.13182   0.13663   0.14463   0.14627   0.15512

  Beta  occ. eigenvalues --  -88.95116 -19.02329 -19.02060 -14.24361 -14.21213
  Beta  occ. eigenvalues --  -14.17101 -10.17040 -10.13029 -10.12711 -10.12083
  Beta  occ. eigenvalues --  -10.11730 -10.06275  -8.01634  -5.97898  -5.97782
  Beta  occ. eigenvalues --   -5.97734  -1.01411  -0.91114  -0.89193  -0.81125
  Beta  occ. eigenvalues --   -0.75036  -0.70890  -0.70664  -0.62853  -0.58416
  Beta  occ. eigenvalues --   -0.53782  -0.51221  -0.46518  -0.44730  -0.41123
  Beta  occ. eigenvalues --   -0.40550  -0.39536  -0.38917  -0.37286  -0.35979
  Beta  occ. eigenvalues --   -0.35656  -0.34613  -0.33730  -0.30804  -0.30179
  Beta  occ. eigenvalues --   -0.28856  -0.28091  -0.27270  -0.26550  -0.23815
  Beta  occ. eigenvalues --   -0.22933  -0.21238  -0.19271  -0.17421  -0.16187
  Beta  occ. eigenvalues --   -0.13819
  Beta virt. eigenvalues --    0.06775   0.07878   0.08640   0.08738   0.10181
  Beta virt. eigenvalues --    0.10547   0.10731   0.11423   0.11709   0.12982
  Beta virt. eigenvalues --    0.13269   0.13653   0.13928   0.14515   0.15003

 Mulliken charges and spin densities:
               1          2
     1  C    0.899147  -1.335842
     2  C   -1.307266   0.993640
     3  C    0.171792  -1.025914
     4  S    0.923496  -0.346397
     5  O   -0.226436   0.004090
     6  O   -0.142800   0.021340
     7  C   -0.802372   0.099929
     8  C    0.724055  -1.119814
     9  N    0.225630   0.047401
    10  C    0.538301  -0.568030
    11  N   -0.298277  -0.035137
    12  N   -0.332228  -0.028621
    13  H   -0.361537   0.541689
    14  H   -0.192162   0.342135
    15  H    0.024579   0.136726
    16  H   -0.471769   0.718519
    17  H    0.066762   0.205496
    18  H    0.018734   0.240578
    19  H   -0.108323   0.362520
    20  H    0.228705   0.002953
    21  H    0.183481   0.013150
    22  H   -0.456093   0.678570
    23  H    0.070808   0.116366
    24  H   -0.400397   0.666799
    25  H    0.024170   0.267855
 Sum of Mulliken charges =  -1.00000   1.00000

 Dipole moment (field-independent basis, Debye):
    X=              3.9890    Y=             -2.2686    Z=              0.0528  Tot=              4.5893
 Quadrupole moment (field-independent basis, Debye-Ang):
   XX=           -147.0916   YY=           -125.0718   ZZ=           -111.7758
   XY=              5.7976   XZ=              0.6173   YZ=              1.8916

 Summary of Natural Population Analysis:

                                       Natural Population
                Natural  -----------------------------------------------
    Atom  No    Charge         Core      Valence    Rydberg      Total
 -----------------------------------------------------------------------
      C    1   -0.29330      0.99963     2.28693    0.00674     3.29330
      C    2   -0.01888      0.99956     2.00331    0.01601     3.01888
      C    3   -0.29617      0.99955     2.28449    0.01213     3.29617
      S    4    1.02192      4.99925     1.88493    0.09390     6.97808
      O    5   -0.47225      0.99991     3.46693    0.00541     4.47225
      O    6   -0.46858      0.99991     3.46346    0.00521     4.46858
      C    7   -0.30043      0.99958     2.28888    0.01197     3.30043
      C    8   -0.10135      0.99959     2.08809    0.01366     3.10135
      N    9   -0.27962      0.99965     2.76299    0.01698     3.77962
      C   10    0.31124      0.99963     1.67062    0.01851     2.68876
      N   11   -0.38446      0.99971     2.87693    0.00783     3.88446
      N   12   -0.41305      0.99972     2.90280    0.01053     3.91305
      H   13    0.10772      0.00000     0.39040    0.00189     0.39228
      H   14    0.10396      0.00000     0.39485    0.00119     0.39604
      H   15    0.10822      0.00000     0.39057    0.00121     0.39178
      H   16    0.12298      0.00000     0.37259    0.00443     0.37702
      H   17    0.11913      0.00000     0.37971    0.00116     0.38087
      H   18    0.12242      0.00000     0.37635    0.00123     0.37758
      H   19    0.12116      0.00000     0.37735    0.00149     0.37884
      H   20    0.11548      0.00000     0.38319    0.00134     0.38452
      H   21    0.10961      0.00000     0.38894    0.00145     0.39039
      H   22    0.11400      0.00000     0.38390    0.00210     0.38600
      H   23    0.16310      0.00000     0.33440    0.00250     0.33690
      H   24    0.19363      0.00000     0.29658    0.00979     0.30637
      H   25    0.19353      0.00000     0.30438    0.00209     0.30647
 =======================================================================
   * Total *    0.00000     15.99569    34.75356    0.25075    51.00000

 Normal termination of Gaussian 16 at Wed Dec  9 17:14:36 2020.
