 Gaussian 16, Revision A.03,

 -----------------------------------------------------------
 # opt freq B3LYP/6-31G(d) empiricaldispersion=gd3bj scf=xqc
 -----------------------------------------------------------

 -------------------------------
 CID_130965385_JID_2090_neutraal
 -------------------------------
 Symbolic Z-matrix:
 Charge =  0 Multiplicity = 1

 SCF Done:  E(RB3LYP) =  -944.335658829     A.U. after   14 cycles
 SCF Done:  E(RB3LYP) =  -944.342085309     A.U. after   12 cycles
 SCF Done:  E(RB3LYP) =  -944.343874661     A.U. after   13 cycles
 SCF Done:  E(RB3LYP) =  -944.346437415     A.U. after   12 cycles
 SCF Done:  E(RB3LYP) =  -944.348554038     A.U. after   13 cycles
 SCF Done:  E(RB3LYP) =  -944.349391578     A.U. after   12 cycles
 SCF Done:  E(RB3LYP) =  -944.349820147     A.U. after   12 cycles
 SCF Done:  E(RB3LYP) =  -944.349965454     A.U. after   11 cycles
 SCF Done:  E(RB3LYP) =  -944.350070516     A.U. after   11 cycles
 SCF Done:  E(RB3LYP) =  -944.350150162     A.U. after   11 cycles
 SCF Done:  E(RB3LYP) =  -944.350186907     A.U. after   10 cycles
 SCF Done:  E(RB3LYP) =  -944.350224237     A.U. after   11 cycles
 SCF Done:  E(RB3LYP) =  -944.350230620     A.U. after   10 cycles
 SCF Done:  E(RB3LYP) =  -944.350234946     A.U. after   10 cycles
 SCF Done:  E(RB3LYP) =  -944.350235721     A.U. after    8 cycles
 SCF Done:  E(RB3LYP) =  -944.350235899     A.U. after    7 cycles
 Optimization completed.
    -- Stationary point found.
 Normal termination of Gaussian 16 at Wed Dec  9 16:49:04 2020.

 --------------------------------------------------------------------
 #N Geom=AllCheck Guess=TCheck SCRF=Check GenChk RB3LYP/6-31G(d) Freq
 --------------------------------------------------------------------

 Structure from the checkpoint file:  "JID_2090.chk"
 -------------------------------
 CID_130965385_JID_2090_neutraal
 -------------------------------
 Charge =  0 Multiplicity = 1

 SCF Done:  E(RB3LYP) =  -944.350235899     A.U. after    1 cycles

  Exact polarizability: 113.409   1.385 122.473 -13.265   0.262  73.282
 Approx polarizability: 145.644   3.785 203.264 -25.897   0.287 118.931

                      1                      2                      3
                      A                      A                      A
 Frequencies --     33.9183                55.0132                81.1581
 Red. masses --      4.7807                 7.6280                 7.7251
 Frc consts  --      0.0032                 0.0136                 0.0300
 IR Inten    --      1.3421                 1.2024                 6.3816

                      4                      5                      6
                      A                      A                      A
 Frequencies --     96.4321               148.4978               193.5746
 Red. masses --      5.4987                 3.4546                 3.2406
 Frc consts  --      0.0301                 0.0449                 0.0715
 IR Inten    --      0.1937                 4.9947                 4.3367

                      7                      8                      9
                      A                      A                      A
 Frequencies --    205.9695               238.5005               282.3931
 Red. masses --      1.1538                 4.4624                 3.6167
 Frc consts  --      0.0288                 0.1496                 0.1699
 IR Inten    --      1.4684                 0.9707                 0.4884

                     10                     11                     12
                      A                      A                      A
 Frequencies --    319.0556               375.9720               427.4985
 Red. masses --      2.8776                 4.4389                 4.0747
 Frc consts  --      0.1726                 0.3697                 0.4388
 IR Inten    --      6.7147                 7.4619                 3.3206

                     13                     14                     15
                      A                      A                      A
 Frequencies --    485.8382               493.5594               540.5543
 Red. masses --      4.6466                 2.6958                 4.7385
 Frc consts  --      0.6462                 0.3869                 0.8158
 IR Inten    --      2.6742                 7.9757                39.8513

                     16                     17                     18
                      A                      A                      A
 Frequencies --    562.8348               587.9283               622.2505
 Red. masses --      1.6733                 1.2909                 1.3362
 Frc consts  --      0.3123                 0.2629                 0.3048
 IR Inten    --    115.5141                88.2779                69.3104

                     19                     20                     21
                      A                      A                      A
 Frequencies --    692.9527               732.6438               757.1519
 Red. masses --      7.0655                 3.1832                 2.2947
 Frc consts  --      1.9990                 1.0067                 0.7751
 IR Inten    --      7.1103                95.0115                78.8898

                     22                     23                     24
                      A                      A                      A
 Frequencies --    767.4215               772.3317               856.2850
 Red. masses --      6.3991                 2.2960                 2.1169
 Frc consts  --      2.2204                 0.8069                 0.9145
 IR Inten    --     17.3598                60.2017                15.4826

                     25                     26                     27
                      A                      A                      A
 Frequencies --    904.0726               921.1128               984.2702
 Red. masses --      2.4396                 2.7425                 2.9098
 Frc consts  --      1.1748                 1.3709                 1.6609
 IR Inten    --     30.7315                67.6564                15.0551

                     28                     29                     30
                      A                      A                      A
 Frequencies --   1018.7600              1051.1536              1074.1300
 Red. masses --      2.3805                 6.2977                 2.1020
 Frc consts  --      1.4557                 4.0998                 1.4289
 IR Inten    --     26.7135                24.7719                10.7328

                     31                     32                     33
                      A                      A                      A
 Frequencies --   1094.7030              1115.0212              1156.8883
 Red. masses --      2.5819                 3.4063                 1.2945
 Frc consts  --      1.8230                 2.4952                 1.0208
 IR Inten    --     14.6235                23.7647                 3.6570

                     34                     35                     36
                      A                      A                      A
 Frequencies --   1172.1924              1176.9969              1230.4542
 Red. masses --      2.1433                 1.8112                 2.1391
 Frc consts  --      1.7351                 1.4783                 1.9081
 IR Inten    --      5.1668                64.2906               181.6933

                     37                     38                     39
                      A                      A                      A
 Frequencies --   1264.9429              1303.5141              1338.7364
 Red. masses --      1.7368                 1.6845                 1.4391
 Frc consts  --      1.6374                 1.6864                 1.5196
 IR Inten    --    138.9603                16.0955                17.3032

                     40                     41                     42
                      A                      A                      A
 Frequencies --   1378.0013              1391.7319              1412.1003
 Red. masses --      1.3543                 1.4635                 1.3868
 Frc consts  --      1.5151                 1.6701                 1.6293
 IR Inten    --     55.9533                31.3687                26.7530

                     43                     44                     45
                      A                      A                      A
 Frequencies --   1429.2107              1445.0464              1482.4637
 Red. masses --      1.8398                 1.6789                 1.2260
 Frc consts  --      2.2142                 2.0656                 1.5875
 IR Inten    --     33.9597               103.6431                52.2592

                     46                     47                     48
                      A                      A                      A
 Frequencies --   1499.5865              1510.8993              1521.7259
 Red. masses --      1.2450                 1.1271                 1.0634
 Frc consts  --      1.6496                 1.5159                 1.4508
 IR Inten    --     27.9351                 5.7960                 8.0384

                     49                     50                     51
                      A                      A                      A
 Frequencies --   1525.7241              1545.5402              1603.2194
 Red. masses --      1.3425                 1.0595                 1.7818
 Frc consts  --      1.8413                 1.4911                 2.6984
 IR Inten    --     67.4009                19.7290               253.2179

                     52                     53                     54
                      A                      A                      A
 Frequencies --   1863.7456              3047.9386              3094.4791
 Red. masses --     10.3992                 1.0415                 1.0716
 Frc consts  --     21.2824                 5.7004                 6.0456
 IR Inten    --    513.1863                43.0359                14.4652

                     55                     56                     57
                      A                      A                      A
 Frequencies --   3100.3932              3117.9319              3147.0750
 Red. masses --      1.0765                 1.0949                 1.1062
 Frc consts  --      6.0967                 6.2710                 6.4550
 IR Inten    --     28.9963                22.1312                24.1570

                     58                     59                     60
                      A                      A                      A
 Frequencies --   3157.7612              3465.9238              3564.2858
 Red. masses --      1.1052                 1.0760                 1.0801
 Frc consts  --      6.4928                 7.6154                 8.0849
 IR Inten    --      5.5152                 0.9816               135.4402

                     61                     62                     63
                      A                      A                      A
 Frequencies --   3578.1793              3579.4876              3621.9547
 Red. masses --      1.0758                 1.0779                 1.0772
 Frc consts  --      8.1150                 8.1368                 8.3257
 IR Inten    --     24.0449                20.1714                46.7988

 - Thermochemistry -
 -------------------
 Temperature   298.150 Kelvin.  Pressure   1.00000 Atm.
 Atom     1 has atomic number  6 and mass  12.00000

 Molecular mass:   189.06843 amu.
 Principal axes and moments of inertia in atomic units:
                           1         2         3
     Eigenvalues --  1347.924463444.997924368.91201
           X            0.99975   0.02253  -0.00044
           Y           -0.02253   0.99975   0.00111
           Z            0.00047  -0.00110   1.00000
 This molecule is an asymmetric top.
 Rotational symmetry number  1.
 Warning -- assumption of classical behavior for rotation
           may cause significant error
 Rotational temperatures (Kelvin)      0.06426     0.02514     0.01983
 Rotational constants (GHZ):           1.33890     0.52387     0.41309
 Zero-point vibrational energy     497772.7 (Joules/Mol)
                                  118.97052 (Kcal/Mol)
 Warning -- explicit consideration of  17 degrees of freedom as
           vibrations may cause significant error
 Vibrational temperatures:     48.80    79.15   116.77   138.74   213.66
          (Kelvin)            278.51   296.34   343.15   406.30   459.05
                              540.94   615.08   699.01   710.12   777.74
                              809.79   845.90   895.28   997.00  1054.11
                             1089.37  1104.15  1111.21  1232.00  1300.76
                             1325.28  1416.15  1465.77  1512.38  1545.43
                             1575.03  1604.27  1664.50  1686.52  1693.44
                             1770.35  1819.97  1875.47  1926.14  1982.64
                             2002.39  2031.70  2056.32  2079.10  2132.93
                             2157.57  2173.85  2189.42  2195.18  2223.69
                             2306.68  2681.51  4385.30  4452.27  4460.77
                             4486.01  4527.94  4543.31  4986.69  5128.21
                             5148.20  5150.08  5211.19

 Zero-point correction=                           0.189592 (Hartree/Particle)
 Thermal correction to Energy=                    0.201516
 Thermal correction to Enthalpy=                  0.202461
 Thermal correction to Gibbs Free Energy=         0.150160
 Sum of electronic and zero-point Energies=           -944.160644
 Sum of electronic and thermal Energies=              -944.148719
 Sum of electronic and thermal Enthalpies=            -944.147775
 Sum of electronic and thermal Free Energies=         -944.200076

                     E (Thermal)             CV                S
                      KCal/Mol        Cal/Mol-Kelvin    Cal/Mol-Kelvin
 Total                  126.453             43.853            110.076
 Electronic               0.000              0.000              0.000
 Translational            0.889              2.981             41.617
 Rotational               0.889              2.981             31.384
 Vibrational            124.676             37.891             37.076
 Vibration     1          0.594              1.983              5.586
 Vibration     2          0.596              1.976              4.629
 Vibration     3          0.600              1.962              3.863
 Vibration     4          0.603              1.952              3.525
 Vibration     5          0.618              1.904              2.691
 Vibration     6          0.635              1.849              2.193
 Vibration     7          0.640              1.831              2.079
 Vibration     8          0.656              1.782              1.814
 Vibration     9          0.681              1.706              1.519
 Vibration    10          0.705              1.637              1.315
 Vibration    11          0.747              1.521              1.055
 Vibration    12          0.789              1.410              0.867
 Vibration    13          0.842              1.281              0.694
 Vibration    14          0.849              1.264              0.674
 Vibration    15          0.896              1.160              0.564
 Vibration    16          0.919              1.112              0.518
 Vibration    17          0.945              1.058              0.471

                           ! Non-Optimized Parameters !
 Normal termination of Gaussian 16 at Wed Dec  9 16:54:09 2020.

 ----------------------------------------------------------------------
 # B3LYP/6-311++G(d,p) empiricaldispersion=gd3bj scf=xqc pop=npa geom=c
 heck
 ----------------------------------------------------------------------

 ---------------------------------------
 CID_130965385_JID_2090_Energie_neutraal
 ---------------------------------------
 Structure from the checkpoint file:  "JID_2090.chk"
 Charge =  0 Multiplicity = 1

 SCF Done:  E(RB3LYP) =  -944.549964614     A.U. after   14 cycles
 Normal termination of Gaussian 16 at Wed Dec  9 16:55:58 2020.

 ----------------------------------------------------------------------
 # B3LYP/6-311++G(d,p) empiricaldispersion=gd3bj scf=xqc pop=npa geom=c
 heck
 ----------------------------------------------------------------------

 -------------------------------------
 CID_130965385_JID_2090_Energie_kation
 -------------------------------------
 Structure from the checkpoint file:  "JID_2090.chk"
 Charge =  1 Multiplicity = 2

 SCF Done:  E(UB3LYP) =  -944.248272035     A.U. after   27 cycles
 Normal termination of Gaussian 16 at Wed Dec  9 17:00:54 2020.
 Gaussian 16:  ES64L-G16RevA.03 25-Dec-2016

 ----------------------------------------------------------------------
 # B3LYP/6-311++G(d,p) empiricaldispersion=gd3bj scf=xqc pop=npa geom=c
 heck
 ----------------------------------------------------------------------

 ------------------------------------
 CID_130965385_JID_2090_Energie_anion
 ------------------------------------
 Structure from the checkpoint file:  "JID_2090.chk"
 Charge = -1 Multiplicity = 2

                         Standard orientation:
 ---------------------------------------------------------------------
 Center     Atomic      Atomic             Coordinates (Angstroms)
 Number     Number       Type             X           Y           Z
 ---------------------------------------------------------------------
      1          6           0        2.891589    1.897555    0.093675
      2          7           0        2.595649    0.578373   -0.451438
      3          6           0        1.861507   -0.385443    0.155797
      4         16           0        2.017219   -2.011676   -0.246177
      5          7           0        0.962114    0.042550    1.115692
      6          6           0       -0.044359    1.066095    0.800056
      7          6           0       -0.808756    0.769293   -0.505993
      8          7           0       -1.328890   -0.589244   -0.560865
      9          6           0       -2.595573   -0.607932   -0.004362
     10          8           0       -3.202999   -1.548185    0.464763
     11          7           0       -3.075224    0.719326   -0.097875
     12          7           0       -2.030966    1.594202   -0.558016
     13          1           0        2.268218    2.681423   -0.353834
     14          1           0        3.939268    2.136252   -0.107129
     15          1           0        2.733472    1.890749    1.174738
     16          1           0        3.218157    0.215861   -1.160623
     17          1           0        0.550628   -0.765084    1.569176
     18          1           0       -0.754515    1.078745    1.631480
     19          1           0        0.400082    2.061950    0.740973
     20          1           0       -0.174751    0.988444   -1.369788
     21          1           0       -0.724624   -1.399655   -0.469269
     22          1           0       -3.545056    1.055392    0.735393
     23          1           0       -2.247618    1.774361   -1.537905
 ---------------------------------------------------------------------

 SCF Done:  E(UB3LYP) =  -944.547382870     A.U. after   31 cycles

 The electronic state is 2-A.
 Alpha  occ. eigenvalues --  -88.69249 -19.00696 -14.26870 -14.26147 -14.25048
 Alpha  occ. eigenvalues --  -14.24644 -14.24443 -10.21113 -10.18053 -10.15696
 Alpha  occ. eigenvalues --  -10.12323 -10.10394  -7.78020  -5.74420  -5.73857
 Alpha  occ. eigenvalues --   -5.73561  -0.98059  -0.92208  -0.89237  -0.82578
 Alpha  occ. eigenvalues --   -0.80854  -0.73498  -0.67129  -0.62361  -0.57991
 Alpha  occ. eigenvalues --   -0.54653  -0.54000  -0.51581  -0.45609  -0.43675
 Alpha  occ. eigenvalues --   -0.41201  -0.39611  -0.39064  -0.37671  -0.37139
 Alpha  occ. eigenvalues --   -0.36459  -0.35148  -0.33823  -0.32628  -0.30621
 Alpha  occ. eigenvalues --   -0.28577  -0.27584  -0.26016  -0.23387  -0.19448
 Alpha  occ. eigenvalues --   -0.18282  -0.17200  -0.15615  -0.12913  -0.11604
 Alpha  occ. eigenvalues --    0.03928
 Alpha virt. eigenvalues --    0.06367   0.06863   0.07296   0.08453   0.09403
 Alpha virt. eigenvalues --    0.10050   0.11404   0.11506   0.11722   0.12191
 Alpha virt. eigenvalues --    0.12822   0.13436   0.14239   0.15163   0.15576

  Beta  occ. eigenvalues --  -88.69247 -19.00695 -14.26865 -14.26121 -14.25019
  Beta  occ. eigenvalues --  -14.24616 -14.24438 -10.21112 -10.17926 -10.15673
  Beta  occ. eigenvalues --  -10.12302 -10.10303  -7.78018  -5.74422  -5.73848
  Beta  occ. eigenvalues --   -5.73560  -0.98050  -0.92191  -0.89114  -0.82525
  Beta  occ. eigenvalues --   -0.80808  -0.73458  -0.67004  -0.62268  -0.57889
  Beta  occ. eigenvalues --   -0.54594  -0.53982  -0.51491  -0.45548  -0.43638
  Beta  occ. eigenvalues --   -0.41142  -0.39575  -0.38927  -0.37562  -0.37078
  Beta  occ. eigenvalues --   -0.36407  -0.35023  -0.33796  -0.32581  -0.30553
  Beta  occ. eigenvalues --   -0.28497  -0.27449  -0.25758  -0.23365  -0.19435
  Beta  occ. eigenvalues --   -0.18181  -0.17176  -0.15563  -0.12816  -0.11568
  Beta virt. eigenvalues --    0.06420   0.07214   0.07896   0.08028   0.09063
  Beta virt. eigenvalues --    0.09751   0.10940   0.11590   0.11868   0.11996
  Beta virt. eigenvalues --    0.12648   0.12999   0.13712   0.14547   0.15320

 Mulliken charges and spin densities:
               1          2
     1  C    1.692726  -2.062081
     2  N   -0.463598   0.367952
     3  C   -0.038098  -0.040158
     4  S   -0.360108  -0.259299
     5  N   -0.014787   0.039464
     6  C    0.291658  -0.479994
     7  C    0.097176  -0.788064
     8  N   -0.218988   0.061835
     9  C    0.270200  -0.137132
    10  O   -0.380227   0.006738
    11  N   -0.146487   0.047885
    12  N   -0.130384   0.016741
    13  H   -0.637822   0.822383
    14  H   -0.899688   1.083874
    15  H   -0.262080   0.432455
    16  H   -0.050812   0.345904
    17  H    0.285292  -0.023486
    18  H    0.044721   0.134144
    19  H    0.094108   0.109258
    20  H   -0.596087   0.894677
    21  H    0.255108   0.026801
    22  H    0.225350   0.052480
    23  H   -0.057171   0.347621
 Sum of Mulliken charges =  -1.00000   1.00000

 Dipole moment (field-independent basis, Debye):
    X=             -5.3299    Y=             -2.0081    Z=              3.6553  Tot=              6.7677
 Quadrupole moment (field-independent basis, Debye-Ang):
   XX=           -150.1330   YY=           -133.2583   ZZ=           -104.3046
   XY=            -18.1649   XZ=              1.5483   YZ=              7.4764

 Summary of Natural Population Analysis:

                                       Natural Population
                Natural  -----------------------------------------------
    Atom  No    Charge         Core      Valence    Rydberg      Total
 -----------------------------------------------------------------------
      C    1   -0.18186      0.99963     2.17339    0.00883     3.18186
      N    2   -0.30555      0.99964     2.79054    0.01537     3.80555
      C    3    0.16515      0.99964     1.81051    0.02471     2.83485
      S    4   -0.15328      4.99957     3.14095    0.01277     8.15328
      N    5   -0.32805      0.99966     2.81728    0.01111     3.82805
      C    6   -0.09591      0.99958     2.08374    0.01259     3.09591
      C    7    0.07168      0.99962     1.91322    0.01548     2.92832
      N    8   -0.34639      0.99967     2.83683    0.00989     3.84639
      C    9    0.39691      0.99971     1.57900    0.02438     2.60309
      O   10   -0.32166      0.99987     3.31632    0.00547     4.32166
      N   11   -0.25688      0.99970     2.74450    0.01267     3.75688
      N   12   -0.24073      0.99974     2.72681    0.01418     3.74073
      H   13    0.09858      0.00000     0.39819    0.00323     0.40142
      H   14    0.10813      0.00000     0.38617    0.00570     0.39187
      H   15    0.10084      0.00000     0.39747    0.00169     0.39916
      H   16    0.20291      0.00000     0.29463    0.00247     0.29709
      H   17    0.19392      0.00000     0.30400    0.00208     0.30608
      H   18    0.09828      0.00000     0.40045    0.00127     0.40172
      H   19    0.10658      0.00000     0.39167    0.00175     0.39342
      H   20    0.10727      0.00000     0.38926    0.00347     0.39273
      H   21    0.21286      0.00000     0.28436    0.00278     0.28714
      H   22    0.18869      0.00000     0.30960    0.00171     0.31131
      H   23    0.17852      0.00000     0.31846    0.00303     0.32148
 =======================================================================
   * Total *   -0.00000     15.99602    33.80734    0.19664    50.00000

 Normal termination of Gaussian 16 at Wed Dec  9 17:06:36 2020.
