 Gaussian 16, Revision A.03,

 -----------------------------------------------------------
 # opt freq B3LYP/6-31G(d) empiricaldispersion=gd3bj scf=xqc
 -----------------------------------------------------------

 ------------------------------
 CID_80421268_JID_7460_neutraal
 ------------------------------
 Symbolic Z-matrix:
 Charge =  0 Multiplicity = 1

 SCF Done:  E(RB3LYP) =  -855.254821555     A.U. after   15 cycles
 SCF Done:  E(RB3LYP) =  -855.260084754     A.U. after   13 cycles
 SCF Done:  E(RB3LYP) =  -855.260909453     A.U. after   12 cycles
 SCF Done:  E(RB3LYP) =  -855.261391798     A.U. after   12 cycles
 SCF Done:  E(RB3LYP) =  -855.261871763     A.U. after   12 cycles
 SCF Done:  E(RB3LYP) =  -855.262054875     A.U. after   12 cycles
 SCF Done:  E(RB3LYP) =  -855.262184906     A.U. after   11 cycles
 SCF Done:  E(RB3LYP) =  -855.262286846     A.U. after   10 cycles
 SCF Done:  E(RB3LYP) =  -855.262430980     A.U. after   11 cycles
 SCF Done:  E(RB3LYP) =  -855.262549753     A.U. after   11 cycles
 SCF Done:  E(RB3LYP) =  -855.262593117     A.U. after   10 cycles
 SCF Done:  E(RB3LYP) =  -855.262597300     A.U. after   10 cycles
 SCF Done:  E(RB3LYP) =  -855.262598014     A.U. after    8 cycles
 SCF Done:  E(RB3LYP) =  -855.262598151     A.U. after    7 cycles
 SCF Done:  E(RB3LYP) =  -855.262598227     A.U. after    7 cycles
 Optimization completed.
    -- Stationary point found.
 Normal termination of Gaussian 16 at Fri Dec 11 12:09:13 2020.

 --------------------------------------------------------------------
 #N Geom=AllCheck Guess=TCheck SCRF=Check GenChk RB3LYP/6-31G(d) Freq
 --------------------------------------------------------------------

 Structure from the checkpoint file:  "JID_7460.chk"
 ------------------------------
 CID_80421268_JID_7460_neutraal
 ------------------------------
 Charge =  0 Multiplicity = 1

 SCF Done:  E(RB3LYP) =  -855.262598227     A.U. after    1 cycles

  Exact polarizability: 159.498  -3.533 111.821   2.751   3.835 111.586
 Approx polarizability: 204.507  -1.677 176.149   3.485  14.738 185.832

                      1                      2                      3
                      A                      A                      A
 Frequencies --     23.3486                32.4205                44.0554
 Red. masses --      6.0284                 5.2068                 5.7577
 Frc consts  --      0.0019                 0.0032                 0.0066
 IR Inten    --      0.4534                 1.5495                 0.3366

                      4                      5                      6
                      A                      A                      A
 Frequencies --     70.6892                72.2269                77.2925
 Red. masses --      5.1366                 4.5431                 6.3845
 Frc consts  --      0.0151                 0.0140                 0.0225
 IR Inten    --      0.3839                 0.6666                 1.4636

                      7                      8                      9
                      A                      A                      A
 Frequencies --    132.6034               145.6560               180.4684
 Red. masses --      1.1810                 3.6890                 3.6141
 Frc consts  --      0.0122                 0.0461                 0.0694
 IR Inten    --      0.0316                 0.9437                 3.0003

                     10                     11                     12
                      A                      A                      A
 Frequencies --    205.3423               224.8974               273.9282
 Red. masses --      3.8083                 4.0863                 4.0562
 Frc consts  --      0.0946                 0.1218                 0.1793
 IR Inten    --      3.9045                 4.0051                 1.9378

                     13                     14                     15
                      A                      A                      A
 Frequencies --    299.7864               341.8472               376.2861
 Red. masses --      2.2081                 3.9956                 3.6393
 Frc consts  --      0.1169                 0.2751                 0.3036
 IR Inten    --      1.2888                 3.1039                 1.1068

                     16                     17                     18
                      A                      A                      A
 Frequencies --    408.7940               427.8091               432.6319
 Red. masses --      2.4109                 2.9839                 5.4170
 Frc consts  --      0.2374                 0.3218                 0.5974
 IR Inten    --      9.9956                 0.5767                10.2617

                     19                     20                     21
                      A                      A                      A
 Frequencies --    459.1142               502.2172               547.7416
 Red. masses --      2.0409                 2.9346                 2.1218
 Frc consts  --      0.2535                 0.4361                 0.3751
 IR Inten    --      1.4568                15.4541                19.5733

                     22                     23                     24
                      A                      A                      A
 Frequencies --    569.0498               625.3075               638.4908
 Red. masses --      2.6398                 4.9070                 3.1116
 Frc consts  --      0.5036                 1.1305                 0.7474
 IR Inten    --     33.7698                 6.3010                30.1012

                     25                     26                     27
                      A                      A                      A
 Frequencies --    680.6493               697.9259               705.5029
 Red. masses --      5.1590                 3.4271                 1.5672
 Frc consts  --      1.4082                 0.9836                 0.4596
 IR Inten    --      4.9723                 0.6717                98.7147

                     28                     29                     30
                      A                      A                      A
 Frequencies --    730.8762               769.5577               820.5675
 Red. masses --      4.4603                 3.1787                 7.3448
 Frc consts  --      1.4038                 1.1091                 2.9138
 IR Inten    --     12.2533                22.2249                21.8429

                     31                     32                     33
                      A                      A                      A
 Frequencies --    872.3590               889.9911               903.6154
 Red. masses --      2.8755                 2.6101                 3.4239
 Frc consts  --      1.2893                 1.2181                 1.6472
 IR Inten    --      5.1474                 5.0499                 3.1666

                     34                     35                     36
                      A                      A                      A
 Frequencies --    909.6796               922.6582               952.7841
 Red. masses --      4.0834                 2.9752                 1.9479
 Frc consts  --      1.9909                 1.4923                 1.0419
 IR Inten    --     22.7365                10.2215                 2.6281

                     37                     38                     39
                      A                      A                      A
 Frequencies --    979.1202              1003.0417              1022.8766
 Red. masses --      2.2487                 3.1908                 3.0051
 Frc consts  --      1.2702                 1.8914                 1.8525
 IR Inten    --      3.1484                 4.9852                73.5593

                     40                     41                     42
                      A                      A                      A
 Frequencies --   1051.3369              1061.0459              1065.2769
 Red. masses --      2.8220                 2.4139                 4.5520
 Frc consts  --      1.8377                 1.6012                 3.0435
 IR Inten    --     15.4238                 6.9726                 3.7260

                     43                     44                     45
                      A                      A                      A
 Frequencies --   1084.5685              1103.6044              1132.8888
 Red. masses --      1.5584                 2.1053                 2.3061
 Frc consts  --      1.0800                 1.5107                 1.7438
 IR Inten    --      4.2071                17.6395                17.1329

                     46                     47                     48
                      A                      A                      A
 Frequencies --   1148.0169              1162.9047              1172.5801
 Red. masses --      3.7439                 2.4641                 2.2206
 Frc consts  --      2.9072                 1.9633                 1.7989
 IR Inten    --     96.1780                25.5539                98.5220

                     49                     50                     51
                      A                      A                      A
 Frequencies --   1191.3577              1234.5808              1270.9029
 Red. masses --      2.3514                 1.4054                 1.1908
 Frc consts  --      1.9664                 1.2621                 1.1333
 IR Inten    --    113.6713                49.6626                27.5056

                     52                     53                     54
                      A                      A                      A
 Frequencies --   1281.0857              1302.9595              1327.3197
 Red. masses --      1.9108                 1.9376                 1.5802
 Frc consts  --      1.8477                 1.9381                 1.6403
 IR Inten    --     19.3726                13.4808                 4.6217

                     55                     56                     57
                      A                      A                      A
 Frequencies --   1336.1755              1363.9276              1373.0394
 Red. masses --      1.2501                 1.8039                 2.0758
 Frc consts  --      1.3150                 1.9772                 2.3057
 IR Inten    --     16.8747                 2.0138                70.0609

                     58                     59                     60
                      A                      A                      A
 Frequencies --   1383.4214              1388.0620              1397.4292
 Red. masses --      1.3392                 1.2354                 1.6444
 Frc consts  --      1.5101                 1.4025                 1.8919
 IR Inten    --     31.1763                 8.7119                23.5630

                     61                     62                     63
                      A                      A                      A
 Frequencies --   1415.7195              1428.8261              1437.3483
 Red. masses --      1.3280                 2.0657                 1.4122
 Frc consts  --      1.5682                 2.4847                 1.7190
 IR Inten    --      3.9133                48.3639                27.4964

                     64                     65                     66
                      A                      A                      A
 Frequencies --   1445.2799              1447.2179              1493.5110
 Red. masses --      1.4702                 1.4395                 1.1053
 Frc consts  --      1.8093                 1.7764                 1.4525
 IR Inten    --     10.1173                39.9035                 4.6622

                     67                     68                     69
                      A                      A                      A
 Frequencies --   1497.1537              1501.3150              1504.8685
 Red. masses --      1.0981                 1.2153                 1.0443
 Frc consts  --      1.4501                 1.6139                 1.3933
 IR Inten    --     27.6059                19.0844                 7.8406

                     70                     71                     72
                      A                      A                      A
 Frequencies --   1512.3212              1521.6531              1531.4703
 Red. masses --      1.0938                 1.0832                 1.1055
 Frc consts  --      1.4739                 1.4777                 1.5277
 IR Inten    --      2.5735                 0.6972                 3.7410

                     73                     74                     75
                      A                      A                      A
 Frequencies --   1571.2736              1629.7555              1839.8504
 Red. masses --      5.4509                 7.0562                 9.5392
 Frc consts  --      7.9291                11.0425                19.0252
 IR Inten    --      0.5501                69.8857               229.7355

                     76                     77                     78
                      A                      A                      A
 Frequencies --   3017.7910              3021.9564              3032.8093
 Red. masses --      1.0679                 1.0686                 1.0661
 Frc consts  --      5.7303                 5.7499                 5.7776
 IR Inten    --     24.7941                31.0113                64.9309

                     79                     80                     81
                      A                      A                      A
 Frequencies --   3055.1722              3068.5123              3081.3737
 Red. masses --      1.0700                 1.0366                 1.0595
 Frc consts  --      5.8842                 5.7509                 5.9270
 IR Inten    --     10.5484                 8.7461                14.9814

                     82                     83                     84
                      A                      A                      A
 Frequencies --   3104.3737              3106.1633              3109.9513
 Red. masses --      1.0878                 1.0948                 1.0932
 Frc consts  --      6.1764                 6.2232                 6.2297
 IR Inten    --      6.2000                47.8680                21.7990

                     85                     86                     87
                      A                      A                      A
 Frequencies --   3111.2813              3128.2253              3134.4805
 Red. masses --      1.1013                 1.1014                 1.1065
 Frc consts  --      6.2808                 6.3504                 6.4052
 IR Inten    --     37.8984                 7.3578                 4.7555

                     88                     89                     90
                      A                      A                      A
 Frequencies --   3137.4711              3165.6867              3678.1646
 Red. masses --      1.0926                 1.1025                 1.0638
 Frc consts  --      6.3370                 6.5099                 8.4793
 IR Inten    --     11.0674                 5.6745                44.3947

 - Thermochemistry -
 -------------------
 Temperature   298.150 Kelvin.  Pressure   1.00000 Atm.
 Atom     1 has atomic number  6 and mass  12.00000

 Molecular mass:   241.10626 amu.
 Principal axes and moments of inertia in atomic units:
                           1         2         3
     Eigenvalues --  1935.480766376.550837101.76484
           X            0.99998  -0.00428  -0.00395
           Y            0.00428   0.99999  -0.00093
           Z            0.00396   0.00091   0.99999
 This molecule is an asymmetric top.
 Rotational symmetry number  1.
 Warning -- assumption of classical behavior for rotation
           may cause significant error
 Rotational temperatures (Kelvin)      0.04475     0.01358     0.01220
 Rotational constants (GHZ):           0.93245     0.28303     0.25413
 Zero-point vibrational energy     691062.8 (Joules/Mol)
                                  165.16796 (Kcal/Mol)
 Warning -- explicit consideration of  22 degrees of freedom as
           vibrations may cause significant error
 Vibrational temperatures:     33.59    46.65    63.39   101.71   103.92
          (Kelvin)            111.21   190.79   209.57   259.65   295.44
                              323.58   394.12   431.33   491.84   541.39
                              588.16   615.52   622.46   660.56   722.58
                              788.08   818.74   899.68   918.65   979.30
                             1004.16  1015.06  1051.57  1107.22  1180.61
                             1255.13  1280.50  1300.10  1308.83  1327.50
                             1370.84  1408.74  1443.15  1471.69  1512.64
                             1526.61  1532.70  1560.45  1587.84  1629.97
                             1651.74  1673.16  1687.08  1714.10  1776.29
                             1828.55  1843.20  1874.67  1909.72  1922.46
                             1962.39  1975.50  1990.43  1997.11  2010.59
                             2036.90  2055.76  2068.02  2079.44  2082.22
                             2148.83  2154.07  2160.06  2165.17  2175.89
                             2189.32  2203.44  2260.71  2344.85  2647.13
                             4341.93  4347.92  4363.54  4395.71  4414.90
                             4433.41  4466.50  4469.08  4474.53  4476.44
                             4500.82  4509.82  4514.12  4554.72  5292.06

 Zero-point correction=                           0.263212 (Hartree/Particle)
 Thermal correction to Energy=                    0.279035
 Thermal correction to Enthalpy=                  0.279979
 Thermal correction to Gibbs Free Energy=         0.217581
 Sum of electronic and zero-point Energies=           -854.999386
 Sum of electronic and thermal Energies=              -854.983563
 Sum of electronic and thermal Enthalpies=            -854.982619
 Sum of electronic and thermal Free Energies=         -855.045017

                     E (Thermal)             CV                S
                      KCal/Mol        Cal/Mol-Kelvin    Cal/Mol-Kelvin
 Total                  175.097             58.608            131.327
 Electronic               0.000              0.000              0.000
 Translational            0.889              2.981             42.341
 Rotational               0.889              2.981             32.838
 Vibrational            173.320             52.646             56.147
 Vibration     1          0.593              1.985              6.327
 Vibration     2          0.594              1.983              5.676
 Vibration     3          0.595              1.980              5.068
 Vibration     4          0.598              1.968              4.134
 Vibration     5          0.598              1.967              4.092
 Vibration     6          0.599              1.964              3.958
 Vibration     7          0.613              1.921              2.908
 Vibration     8          0.617              1.907              2.728
 Vibration     9          0.629              1.866              2.324
 Vibration    10          0.640              1.832              2.085
 Vibration    11          0.650              1.803              1.919
 Vibration    12          0.676              1.721              1.571
 Vibration    13          0.692              1.674              1.418
 Vibration    14          0.721              1.592              1.204
 Vibration    15          0.747              1.521              1.054
 Vibration    16          0.773              1.451              0.931
 Vibration    17          0.789              1.410              0.866
 Vibration    18          0.794              1.399              0.850
 Vibration    19          0.817              1.341              0.769
 Vibration    20          0.858              1.245              0.653
 Vibration    21          0.903              1.145              0.549
 Vibration    22          0.925              1.098              0.506

 Optimization completed.
    -- Stationary point found.
 Normal termination of Gaussian 16 at Fri Dec 11 12:21:42 2020.

 ----------------------------------------------------------------------
 # B3LYP/6-311++G(d,p) empiricaldispersion=gd3bj scf=xqc pop=npa geom=c
 heck
 ----------------------------------------------------------------------

 --------------------------------------
 CID_80421268_JID_7460_Energie_neutraal
 --------------------------------------
 Structure from the checkpoint file:  "JID_7460.chk"
 Charge =  0 Multiplicity = 1

 SCF Done:  E(RB3LYP) =  -855.510766017     A.U. after   16 cycles
 Normal termination of Gaussian 16 at Fri Dec 11 12:27:44 2020.

 ----------------------------------------------------------------------
 # B3LYP/6-311++G(d,p) empiricaldispersion=gd3bj scf=xqc pop=npa geom=c
 heck
 ----------------------------------------------------------------------

 ------------------------------------
 CID_80421268_JID_7460_Energie_kation
 ------------------------------------
 Structure from the checkpoint file:  "JID_7460.chk"
 Charge =  1 Multiplicity = 2

 SCF Done:  E(UB3LYP) =  -855.218769407     A.U. after   22 cycles
 Normal termination of Gaussian 16 at Fri Dec 11 12:41:07 2020.
 Gaussian 16:  ES64L-G16RevA.03 25-Dec-2016

 ----------------------------------------------------------------------
 # B3LYP/6-311++G(d,p) empiricaldispersion=gd3bj scf=xqc pop=npa geom=c
 heck
 ----------------------------------------------------------------------

 -----------------------------------
 CID_80421268_JID_7460_Energie_anion
 -----------------------------------
 Structure from the checkpoint file:  "JID_7460.chk"
 Charge = -1 Multiplicity = 2

                         Standard orientation:
 ---------------------------------------------------------------------
 Center     Atomic      Atomic             Coordinates (Angstroms)
 Number     Number       Type             X           Y           Z
 ---------------------------------------------------------------------
      1          6           0       -4.877142    0.101994    0.147123
      2          6           0       -3.500852   -0.443721   -0.022869
      3          7           0       -3.087615   -0.965828   -1.152011
      4          8           0       -1.756774   -1.345727   -0.862079
      5          6           0       -1.524616   -0.996302    0.416330
      6          7           0       -2.556435   -0.441708    0.988162
      7          6           0       -0.130433   -1.160581    0.956474
      8          7           0        0.755717   -0.038774    0.697522
      9          6           0        0.506244    1.204177    1.432443
     10          6           0       -0.261351    2.245899    0.618179
     11          8           0        0.384142    2.463374   -0.632735
     12          6           0        0.386320    1.265343   -1.398453
     13          6           0        1.179912    0.152684   -0.699424
     14          6           0        2.688990    0.420171   -0.717994
     15          6           0        3.431988   -0.759603   -0.133877
     16          8           0        3.081276   -1.918111   -0.206289
     17          8           0        4.584592   -0.387174    0.471207
     18          1           0       -5.397280   -0.429472    0.950729
     19          1           0       -4.832175    1.160027    0.425562
     20          1           0       -5.444626   -0.002454   -0.779787
     21          1           0       -0.210887   -1.302051    2.038083
     22          1           0        0.324486   -2.057551    0.526206
     23          1           0        1.473413    1.638833    1.720716
     24          1           0       -0.034886    0.965154    2.353112
     25          1           0       -1.300003    1.921025    0.454902
     26          1           0       -0.272288    3.210562    1.134655
     27          1           0        0.834446    1.515979   -2.364941
     28          1           0       -0.647149    0.929833   -1.574396
     29          1           0        1.001219   -0.786405   -1.230194
     30          1           0        3.040299    0.559874   -1.749437
     31          1           0        2.941030    1.333406   -0.173935
     32          1           0        5.002489   -1.211838    0.784595
 ---------------------------------------------------------------------

 SCF Done:  E(UB3LYP) =  -855.501509449     A.U. after   33 cycles
 SCF Done:  E(UB3LYP) =  -855.501509449     a.u. after    1 cycles

 The electronic state is 2-A.
 Alpha  occ. eigenvalues --  -19.09282 -19.06173 -19.02969 -19.00752 -14.24473
 Alpha  occ. eigenvalues --  -14.20862 -14.20299 -10.20048 -10.14421 -10.12930
 Alpha  occ. eigenvalues --  -10.11759 -10.11665 -10.10931 -10.10664 -10.09897
 Alpha  occ. eigenvalues --  -10.09094 -10.07935  -1.04342  -1.00237  -0.94595
 Alpha  occ. eigenvalues --   -0.91310  -0.83201  -0.82270  -0.76047  -0.70009
 Alpha  occ. eigenvalues --   -0.65914  -0.64368  -0.62199  -0.56782  -0.55777
 Alpha  occ. eigenvalues --   -0.50800  -0.50484  -0.48583  -0.44920  -0.41695
 Alpha  occ. eigenvalues --   -0.40218  -0.39669  -0.38628  -0.38246  -0.38057
 Alpha  occ. eigenvalues --   -0.37577  -0.36544  -0.35109  -0.34296  -0.34015
 Alpha  occ. eigenvalues --   -0.32801  -0.31602  -0.30818  -0.29804  -0.29400
 Alpha  occ. eigenvalues --   -0.28639  -0.28058  -0.27673  -0.26405  -0.24879
 Alpha  occ. eigenvalues --   -0.23052  -0.22116  -0.21877  -0.21273  -0.18832
 Alpha  occ. eigenvalues --   -0.18043  -0.17858  -0.17780  -0.11051   0.04655
 Alpha virt. eigenvalues --    0.06522   0.06577   0.07707   0.07773   0.08966
 Alpha virt. eigenvalues --    0.10026   0.10117   0.10594   0.10850   0.11254
 Alpha virt. eigenvalues --    0.11664   0.12010   0.12503   0.13347   0.14352

  Beta  occ. eigenvalues --  -19.09072 -19.06113 -19.02966 -19.00733 -14.24275
  Beta  occ. eigenvalues --  -14.20816 -14.20309 -10.20041 -10.14136 -10.12884
  Beta  occ. eigenvalues --  -10.11756 -10.11657 -10.10948 -10.10662 -10.09883
  Beta  occ. eigenvalues --  -10.09096 -10.07901  -1.03997  -1.00158  -0.94586
  Beta  occ. eigenvalues --   -0.91245  -0.83099  -0.82098  -0.75720  -0.69973
  Beta  occ. eigenvalues --   -0.65858  -0.64286  -0.62096  -0.56658  -0.55739
  Beta  occ. eigenvalues --   -0.50658  -0.50367  -0.48338  -0.44819  -0.41617
  Beta  occ. eigenvalues --   -0.40095  -0.39521  -0.38418  -0.38171  -0.37922
  Beta  occ. eigenvalues --   -0.37319  -0.36471  -0.35065  -0.34186  -0.33928
  Beta  occ. eigenvalues --   -0.32515  -0.31549  -0.30769  -0.29728  -0.29289
  Beta  occ. eigenvalues --   -0.28601  -0.27965  -0.27634  -0.26374  -0.24836
  Beta  occ. eigenvalues --   -0.22815  -0.21955  -0.21786  -0.20775  -0.18720
  Beta  occ. eigenvalues --   -0.17826  -0.17809  -0.16856  -0.10955
  Beta virt. eigenvalues --    0.06457   0.07346   0.08103   0.08532   0.09035
  Beta virt. eigenvalues --    0.09278   0.10074   0.10172   0.10573   0.11054
  Beta virt. eigenvalues --    0.11436   0.11636   0.12156   0.12547   0.13599

 Mulliken charges and spin densities:
               1          2
     1  C   -0.423656  -0.101801
     2  C    0.639490   0.099517
     3  N   -0.284520   0.112030
     4  O    0.198644   0.035246
     5  C   -0.534063   0.461226
     6  N    0.001954   0.003620
     7  C   -0.605584  -0.534919
     8  N    0.269163   0.034194
     9  C    0.257449  -0.371895
    10  C   -0.394921   0.038303
    11  O   -0.087123  -0.003385
    12  C    0.213198  -0.929814
    13  C   -1.671766   1.681601
    14  C    2.185206  -2.659934
    15  C   -0.497974   0.502808
    16  O   -0.265495   0.000126
    17  O   -0.168498   0.063400
    18  H    0.135562   0.019735
    19  H    0.089783   0.060888
    20  H    0.129901   0.019893
    21  H   -0.009893   0.186132
    22  H    0.182926   0.029065
    23  H   -0.060717   0.238073
    24  H    0.063288   0.066634
    25  H    0.264172  -0.121195
    26  H   -0.018260   0.202348
    27  H    0.002353   0.191447
    28  H    0.055112   0.088465
    29  H    0.213494   0.005226
    30  H   -0.502165   0.678012
    31  H    0.324445  -0.088368
    32  H   -0.701506   0.993324
 Sum of Mulliken charges =  -1.00000   1.00000

 Dipole moment (field-independent basis, Debye):
    X=             -7.8782    Y=              2.4110    Z=              0.6481  Tot=              8.2644
 Quadrupole moment (field-independent basis, Debye-Ang):
   XX=           -185.0219   YY=           -131.8173   ZZ=           -128.5696
   XY=              6.7098   XZ=             -8.2692   YZ=              1.4223

 Summary of Natural Population Analysis:

                                       Natural Population
                Natural  -----------------------------------------------
    Atom  No    Charge         Core      Valence    Rydberg      Total
 -----------------------------------------------------------------------
      C    1   -0.30234      0.99962     2.29799    0.00473     3.30234
      C    2    0.16915      0.99967     1.81325    0.01793     2.83085
      N    3   -0.07826      0.99966     2.56741    0.01119     3.57826
      O    4   -0.16103      0.99985     3.15226    0.00891     4.16103
      C    5    0.31900      0.99962     1.66316    0.01822     2.68100
      N    6   -0.29030      0.99967     2.78093    0.00970     3.79030
      C    7   -0.11195      0.99956     2.10026    0.01213     3.11195
      N    8   -0.27468      0.99972     2.75936    0.01561     3.77468
      C    9   -0.09804      0.99960     2.08749    0.01095     3.09804
      C   10   -0.02086      0.99958     2.01039    0.01089     3.02086
      O   11   -0.30203      0.99989     3.29344    0.00870     4.30203
      C   12   -0.01936      0.99955     2.00631    0.01350     3.01936
      C   13   -0.02015      0.99957     2.00745    0.01313     3.02015
      C   14   -0.24234      0.99955     2.23220    0.01058     3.24234
      C   15    0.41570      0.99972     1.55903    0.02555     2.58430
      O   16   -0.31270      0.99987     3.30663    0.00621     4.31270
      O   17   -0.34329      0.99988     3.33658    0.00684     4.34329
      H   18    0.10556      0.00000     0.39334    0.00110     0.39444
      H   19    0.10629      0.00000     0.39231    0.00140     0.39371
      H   20    0.10726      0.00000     0.39146    0.00128     0.39274
      H   21    0.10692      0.00000     0.39212    0.00096     0.39308
      H   22    0.11420      0.00000     0.38470    0.00110     0.38580
      H   23    0.09338      0.00000     0.40541    0.00121     0.40662
      H   24    0.10230      0.00000     0.39659    0.00110     0.39770
      H   25    0.08404      0.00000     0.41432    0.00164     0.41596
      H   26    0.08798      0.00000     0.41080    0.00122     0.41202
      H   27    0.09176      0.00000     0.40703    0.00121     0.40824
      H   28    0.08777      0.00000     0.41072    0.00151     0.41223
      H   29    0.11218      0.00000     0.38591    0.00191     0.38782
      H   30    0.11542      0.00000     0.38305    0.00153     0.38458
      H   31    0.11398      0.00000     0.38433    0.00169     0.38602
      H   32    0.24442      0.00000     0.22656    0.02902     0.25558
 =======================================================================
   * Total *    0.00000     16.99458    46.75277    0.25265    64.00000

 Normal termination of Gaussian 16 at Fri Dec 11 13:00:41 2020.
