 Gaussian 16, Revision A.03,

 -----------------------------------------------------------
 # opt freq B3LYP/6-31G(d) empiricaldispersion=gd3bj scf=xqc
 -----------------------------------------------------------

 ------------------------------
 CID_82578734_JID_9742_neutraal
 ------------------------------
 Symbolic Z-matrix:
 Charge =  0 Multiplicity = 1

 SCF Done:  E(RB3LYP) =  -842.674759462     A.U. after   15 cycles
 SCF Done:  E(RB3LYP) =  -842.677481892     A.U. after   14 cycles
 SCF Done:  E(RB3LYP) =  -842.677004519     A.U. after   13 cycles
 SCF Done:  E(RB3LYP) =  -842.679499851     A.U. after   12 cycles
 SCF Done:  E(RB3LYP) =  -842.680110894     A.U. after   13 cycles
 SCF Done:  E(RB3LYP) =  -842.680445716     A.U. after   15 cycles
 SCF Done:  E(RB3LYP) =  -842.680971327     A.U. after   12 cycles
 SCF Done:  E(RB3LYP) =  -842.681167472     A.U. after   12 cycles
 SCF Done:  E(RB3LYP) =  -842.681237349     A.U. after   13 cycles
 SCF Done:  E(RB3LYP) =  -842.681247198     A.U. after   10 cycles
 SCF Done:  E(RB3LYP) =  -842.681258883     A.U. after   11 cycles
 SCF Done:  E(RB3LYP) =  -842.681259598     A.U. after   10 cycles
 SCF Done:  E(RB3LYP) =  -842.681259838     A.U. after   10 cycles
 SCF Done:  E(RB3LYP) =  -842.681259899     A.U. after    8 cycles
 SCF Done:  E(RB3LYP) =  -842.681259949     A.U. after    7 cycles
 SCF Done:  E(RB3LYP) =  -842.681259975     A.U. after    7 cycles
 Optimization completed.
    -- Stationary point found.
 Normal termination of Gaussian 16 at Sun Dec 13 12:44:45 2020.

 --------------------------------------------------------------------
 #N Geom=AllCheck Guess=TCheck SCRF=Check GenChk RB3LYP/6-31G(d) Freq
 --------------------------------------------------------------------

 Structure from the checkpoint file:  "JID_9742.chk"
 ------------------------------
 CID_82578734_JID_9742_neutraal
 ------------------------------
 Charge =  0 Multiplicity = 1

 SCF Done:  E(RB3LYP) =  -842.681259975     A.U. after    1 cycles

  Exact polarizability: 258.830   0.843 252.190  -0.926   0.919  61.829
 Approx polarizability: 417.106 -11.120 441.942  -2.294   3.079  99.504

                      1                      2                      3
                      A                      A                      A
 Frequencies --     10.2382                38.3075                83.7044
 Red. masses --      9.4100                 4.9730                 5.7406
 Frc consts  --      0.0006                 0.0043                 0.0237
 IR Inten    --      1.4356                 0.0269                 0.6940

                      4                      5                      6
                      A                      A                      A
 Frequencies --     91.0023               140.3840               184.1562
 Red. masses --      3.3967                 7.9734                 4.1713
 Frc consts  --      0.0166                 0.0926                 0.0833
 IR Inten    --      0.7383                 0.1556                 0.9839

                      7                      8                      9
                      A                      A                      A
 Frequencies --    192.5902               207.5138               227.6956
 Red. masses --      4.9069                 3.5372                 6.2438
 Frc consts  --      0.1072                 0.0897                 0.1907
 IR Inten    --      0.6690                 1.2521                 0.5420

                     10                     11                     12
                      A                      A                      A
 Frequencies --    230.8058               236.9207               309.1114
 Red. masses --      3.5573                 1.1489                 3.8893
 Frc consts  --      0.1117                 0.0380                 0.2190
 IR Inten    --      0.5055                 0.1326                 3.0372

                     13                     14                     15
                      A                      A                      A
 Frequencies --    349.0641               358.7292               361.0645
 Red. masses --      7.8309                 1.1063                 5.2631
 Frc consts  --      0.5622                 0.0839                 0.4043
 IR Inten    --      9.0088               118.6351                 0.3679

                     16                     17                     18
                      A                      A                      A
 Frequencies --    380.5719               431.0159               450.9002
 Red. masses --      6.7379                 3.4784                 4.1132
 Frc consts  --      0.5750                 0.3807                 0.4927
 IR Inten    --      0.6118                 1.0203                 2.9503

                     19                     20                     21
                      A                      A                      A
 Frequencies --    468.7291               528.5935               531.8206
 Red. masses --      3.7978                 3.9987                 4.7465
 Frc consts  --      0.4916                 0.6583                 0.7910
 IR Inten    --      1.4830                 1.0589                 0.6682

                     22                     23                     24
                      A                      A                      A
 Frequencies --    563.1854               576.8055               583.0222
 Red. masses --      6.6469                 4.6182                 2.2798
 Frc consts  --      1.2421                 0.9053                 0.4566
 IR Inten    --      9.4956                10.4378                28.8738

                     25                     26                     27
                      A                      A                      A
 Frequencies --    605.8945               635.0446               649.5284
 Red. masses --      1.5284                 4.7314                 5.5250
 Frc consts  --      0.3306                 1.1242                 1.3734
 IR Inten    --     46.3505                60.7178                10.0970

                     28                     29                     30
                      A                      A                      A
 Frequencies --    672.6148               703.2843               727.8911
 Red. masses --      4.1164                 6.3004                 2.8745
 Frc consts  --      1.0972                 1.8360                 0.8973
 IR Inten    --      4.5713                 2.6055                30.8321

                     31                     32                     33
                      A                      A                      A
 Frequencies --    760.2311               777.4893               781.3165
 Red. masses --      2.2026                 4.9621                 3.3921
 Frc consts  --      0.7500                 1.7673                 1.2200
 IR Inten    --      6.4155                 8.0075                39.5818

                     34                     35                     36
                      A                      A                      A
 Frequencies --    811.0903               818.7245               835.0778
 Red. masses --      1.8385                 2.0199                 7.1528
 Frc consts  --      0.7126                 0.7977                 2.9389
 IR Inten    --      1.1039                16.2226                11.6159

                     37                     38                     39
                      A                      A                      A
 Frequencies --    881.4109               898.7101               902.2321
 Red. masses --      1.5896                 4.3789                 1.5770
 Frc consts  --      0.7276                 2.0838                 0.7563
 IR Inten    --      7.4690                 3.7758                32.0195

                     40                     41                     42
                      A                      A                      A
 Frequencies --    925.4369               927.2788               961.1674
 Red. masses --      1.3074                 1.3547                 3.6204
 Frc consts  --      0.6597                 0.6863                 1.9706
 IR Inten    --      0.0833                 2.9812                 1.7685

                     43                     44                     45
                      A                      A                      A
 Frequencies --    973.2852              1009.8242              1032.2561
 Red. masses --      1.2918                 3.0000                 3.7378
 Frc consts  --      0.7210                 1.8025                 2.3466
 IR Inten    --      0.7647                16.6416                 2.4041

                     46                     47                     48
                      A                      A                      A
 Frequencies --   1042.3148              1075.4716              1131.0053
 Red. masses --      2.1342                 1.5016                 1.7677
 Frc consts  --      1.3661                 1.0233                 1.3323
 IR Inten    --      5.5844                 2.2325                18.8964

                     49                     50                     51
                      A                      A                      A
 Frequencies --   1145.7587              1186.6596              1198.1504
 Red. masses --      2.1862                 1.6955                 1.9680
 Frc consts  --      1.6909                 1.4067                 1.6645
 IR Inten    --     45.1837                18.6925               214.0549

                     52                     53                     54
                      A                      A                      A
 Frequencies --   1210.5940              1220.2103              1238.5081
 Red. masses --      1.3903                 1.5437                 2.1438
 Frc consts  --      1.2005                 1.3542                 1.9375
 IR Inten    --     35.1847                58.7364               118.6287

                     55                     56                     57
                      A                      A                      A
 Frequencies --   1255.0436              1296.9858              1308.3324
 Red. masses --      2.8758                 1.7892                 3.1847
 Frc consts  --      2.6689                 1.7733                 3.2118
 IR Inten    --      1.3565                 1.9204                11.3136

                     58                     59                     60
                      A                      A                      A
 Frequencies --   1343.8078              1351.1727              1393.5335
 Red. masses --      1.9750                 4.1287                 3.0521
 Frc consts  --      2.1013                 4.4411                 3.4921
 IR Inten    --     99.8811                56.1720                62.2503

                     61                     62                     63
                      A                      A                      A
 Frequencies --   1406.8824              1426.3914              1443.6559
 Red. masses --      1.7396                 2.6954                 1.2644
 Frc consts  --      2.0287                 3.2311                 1.5526
 IR Inten    --     59.7787                93.6519                 0.2315

                     64                     65                     66
                      A                      A                      A
 Frequencies --   1470.9074              1495.3011              1516.9250
 Red. masses --      2.8133                 3.0070                 1.0449
 Frc consts  --      3.5862                 3.9613                 1.4166
 IR Inten    --     76.0211                36.8831                 7.0295

                     67                     68                     69
                      A                      A                      A
 Frequencies --   1529.6869              1536.1212              1543.5889
 Red. masses --      1.5568                 1.8349                 2.7890
 Frc consts  --      2.1463                 2.5510                 3.9153
 IR Inten    --     34.4268                14.5785                48.6184

                     70                     71                     72
                      A                      A                      A
 Frequencies --   1639.8068              1647.5266              1649.3976
 Red. masses --      6.6919                 6.4925                 5.9022
 Frc consts  --     10.6019                10.3830                 9.4605
 IR Inten    --     22.9322                67.3640                 8.3765

                     73                     74                     75
                      A                      A                      A
 Frequencies --   1670.4120              1688.6865              1796.5247
 Red. masses --      6.4553                 8.7837                 8.2419
 Frc consts  --     10.6124                14.7580                15.6728
 IR Inten    --     29.3399                52.5377               514.2688

                     76                     77                     78
                      A                      A                      A
 Frequencies --   3041.3375              3094.2375              3126.2681
 Red. masses --      1.0377                 1.1008                 1.1003
 Frc consts  --      5.6554                 6.2099                 6.3358
 IR Inten    --     24.7800                17.5006                22.1683

                     79                     80                     81
                      A                      A                      A
 Frequencies --   3173.2011              3179.6400              3202.2651
 Red. masses --      1.0899                 1.0876                 1.0938
 Frc consts  --      6.4658                 6.4783                 6.6083
 IR Inten    --     26.0368                14.0444                30.8280

                     82                     83                     84
                      A                      A                      A
 Frequencies --   3209.0547              3217.8541              3247.5036
 Red. masses --      1.0883                 1.0888                 1.0906
 Frc consts  --      6.6031                 6.6426                 6.7765
 IR Inten    --      0.2988                 4.6204                 8.4165

                     85                     86                     87
                      A                      A                      A
 Frequencies --   3297.7309              3687.4239              3753.1044
 Red. masses --      1.0905                 1.0639                 1.0659
 Frc consts  --      6.9873                 8.5227                 8.8462
 IR Inten    --      8.7419                83.7115                65.7640

 - Thermochemistry -
 -------------------
 Temperature   298.150 Kelvin.  Pressure   1.00000 Atm.
 Atom     1 has atomic number  6 and mass  12.00000

 Molecular mass:   252.07864 amu.
 Principal axes and moments of inertia in atomic units:
                           1         2         3
     Eigenvalues --  4277.200955144.789949404.98431
           X            1.00000   0.00016   0.00005
           Y           -0.00016   1.00000  -0.00028
           Z           -0.00005   0.00028   1.00000
 This molecule is an asymmetric top.
 Rotational symmetry number  1.
 Warning -- assumption of classical behavior for rotation
           may cause significant error
 Rotational temperatures (Kelvin)      0.02025     0.01684     0.00921
 Rotational constants (GHZ):           0.42194     0.35079     0.19189
 Zero-point vibrational energy     633510.6 (Joules/Mol)
                                  151.41267 (Kcal/Mol)
 Warning -- explicit consideration of  25 degrees of freedom as
           vibrations may cause significant error
 Vibrational temperatures:     14.73    55.12   120.43   130.93   201.98
          (Kelvin)            264.96   277.09   298.57   327.60   332.08
                              340.88   444.74   502.23   516.13   519.49
                              547.56   620.14   648.74   674.40   760.53
                              765.17   810.30   829.89   838.84   871.75
                              913.69   934.53   967.74  1011.87  1047.27
                             1093.80  1118.63  1124.14  1166.98  1177.96
                             1201.49  1268.15  1293.04  1298.11  1331.50
                             1334.15  1382.91  1400.34  1452.91  1485.19
                             1499.66  1547.36  1627.26  1648.49  1707.34
                             1723.87  1741.77  1755.61  1781.94  1805.73
                             1866.07  1882.40  1933.44  1944.04  2004.98
                             2024.19  2052.26  2077.10  2116.31  2151.40
                             2182.52  2200.88  2210.14  2220.88  2359.32
                             2370.42  2373.12  2403.35  2429.64  2584.80
                             4375.81  4451.92  4498.00  4565.53  4574.79
                             4607.35  4617.11  4629.77  4672.43  4744.70
                             5305.38  5399.88

 Zero-point correction=                           0.241291 (Hartree/Particle)
 Thermal correction to Energy=                    0.256819
 Thermal correction to Enthalpy=                  0.257763
 Thermal correction to Gibbs Free Energy=         0.196976
 Sum of electronic and zero-point Energies=           -842.439969
 Sum of electronic and thermal Energies=              -842.424441
 Sum of electronic and thermal Enthalpies=            -842.423497
 Sum of electronic and thermal Free Energies=         -842.484284

                     E (Thermal)             CV                S
                      KCal/Mol        Cal/Mol-Kelvin    Cal/Mol-Kelvin
 Total                  161.156             61.466            127.937
 Electronic               0.000              0.000              0.000
 Translational            0.889              2.981             42.474
 Rotational               0.889              2.981             33.692
 Vibrational            159.379             55.504             51.771
 Vibration     1          0.593              1.987              7.964
 Vibration     2          0.594              1.982              5.345
 Vibration     3          0.601              1.960              3.802
 Vibration     4          0.602              1.956              3.638
 Vibration     5          0.615              1.913              2.799
 Vibration     6          0.631              1.861              2.286
 Vibration     7          0.635              1.850              2.203
 Vibration     8          0.641              1.829              2.065
 Vibration     9          0.651              1.799              1.897
 Vibration    10          0.653              1.794              1.873
 Vibration    11          0.656              1.784              1.826
 Vibration    12          0.698              1.656              1.367
 Vibration    13          0.726              1.577              1.170
 Vibration    14          0.734              1.557              1.128
 Vibration    15          0.735              1.552              1.118
 Vibration    16          0.750              1.512              1.037
 Vibration    17          0.792              1.403              0.855
 Vibration    18          0.810              1.359              0.793
 Vibration    19          0.826              1.319              0.741
 Vibration    20          0.884              1.187              0.590
 Vibration    21          0.887              1.180              0.583
 Vibration    22          0.919              1.111              0.518
 Vibration    23          0.933              1.081              0.491
 Vibration    24          0.940              1.068              0.480
 Vibration    25          0.965              1.019              0.440

                           ! Non-Optimized Parameters !
 Normal termination of Gaussian 16 at Sun Dec 13 13:00:31 2020.

 ----------------------------------------------------------------------
 # B3LYP/6-311++G(d,p) empiricaldispersion=gd3bj scf=xqc pop=npa geom=c
 heck
 ----------------------------------------------------------------------

 --------------------------------------
 CID_82578734_JID_9742_Energie_neutraal
 --------------------------------------
 Structure from the checkpoint file:  "JID_9742.chk"
 Charge =  0 Multiplicity = 1

 SCF Done:  E(RB3LYP) =  -842.915895124     A.U. after   16 cycles
 Normal termination of Gaussian 16 at Sun Dec 13 13:07:28 2020.

 ----------------------------------------------------------------------
 # B3LYP/6-311++G(d,p) empiricaldispersion=gd3bj scf=xqc pop=npa geom=c
 heck
 ----------------------------------------------------------------------

 ------------------------------------
 CID_82578734_JID_9742_Energie_kation
 ------------------------------------
 Structure from the checkpoint file:  "JID_9742.chk"
 Charge =  1 Multiplicity = 2

 SCF Done:  E(UB3LYP) =  -842.639201602     A.U. after   24 cycles
 Normal termination of Gaussian 16 at Sun Dec 13 13:22:27 2020.
 Gaussian 16:  ES64L-G16RevA.03 25-Dec-2016

 ----------------------------------------------------------------------
 # B3LYP/6-311++G(d,p) empiricaldispersion=gd3bj scf=xqc pop=npa geom=c
 heck
 ----------------------------------------------------------------------

 -----------------------------------
 CID_82578734_JID_9742_Energie_anion
 -----------------------------------
 Structure from the checkpoint file:  "JID_9742.chk"
 Charge = -1 Multiplicity = 2

                         Standard orientation:
 ---------------------------------------------------------------------
 Center     Atomic      Atomic             Coordinates (Angstroms)
 Number     Number       Type             X           Y           Z
 ---------------------------------------------------------------------
      1          6           0       -1.412199    3.685131    0.006587
      2          6           0       -0.154266    2.854294   -0.004665
      3          6           0       -0.175724    1.454517    0.000810
      4          6           0       -1.313568    0.521891    0.006504
      5          6           0       -0.798682   -0.795641   -0.005198
      6          6           0       -1.638667   -1.898927   -0.005785
      7          6           0       -3.024144   -1.691271    0.004331
      8          6           0       -3.545298   -0.393873    0.016805
      9          6           0       -2.693476    0.714733    0.018212
     10          8           0       -3.816767   -2.804384    0.001960
     11          6           0        0.689617   -0.744373   -0.006288
     12          6           0        1.401298   -1.898859   -0.011291
     13          6           0        2.831140   -2.230993    0.000347
     14          8           0        3.229014   -3.376214   -0.119914
     15          8           0        3.704829   -1.204744    0.174946
     16          6           0        1.032060    0.699611   -0.008380
     17          6           0        2.262788    1.353580   -0.033178
     18          6           0        2.285821    2.749809   -0.041017
     19          6           0        1.100351    3.481212   -0.024582
     20          1           0       -2.039855    3.480067   -0.869302
     21          1           0       -1.172228    4.752424    0.000947
     22          1           0       -2.021077    3.485150    0.896737
     23          1           0       -1.269035   -2.918762   -0.014005
     24          1           0       -4.623309   -0.246260    0.025540
     25          1           0       -3.126241    1.706680    0.028753
     26          1           0       -4.746574   -2.529446    0.009345
     27          1           0        0.829731   -2.820482   -0.042045
     28          1           0        4.586841   -1.621212    0.162270
     29          1           0        3.183580    0.791784   -0.044432
     30          1           0        3.239112    3.269967   -0.059530
     31          1           0        1.140146    4.567794   -0.029472
 ---------------------------------------------------------------------

 SCF Done:  E(UB3LYP) =  -842.961832472     A.U. after   22 cycles

 The electronic state is 2-A.
 Alpha  occ. eigenvalues --  -19.05018 -19.03027 -18.95458 -10.14601 -10.11512
 Alpha  occ. eigenvalues --  -10.06419 -10.05903 -10.05865 -10.05365 -10.04435
 Alpha  occ. eigenvalues --  -10.04392 -10.04347 -10.04321 -10.04294 -10.04221
 Alpha  occ. eigenvalues --  -10.04133 -10.03694 -10.03375 -10.01893  -0.96653
 Alpha  occ. eigenvalues --   -0.95955  -0.86931  -0.75848  -0.72150  -0.68136
 Alpha  occ. eigenvalues --   -0.65395  -0.63685  -0.61392  -0.59089  -0.56801
 Alpha  occ. eigenvalues --   -0.53955  -0.50282  -0.49161  -0.47591  -0.44935
 Alpha  occ. eigenvalues --   -0.42941  -0.40536  -0.38969  -0.37279  -0.35042
 Alpha  occ. eigenvalues --   -0.34528  -0.33593  -0.32383  -0.32024  -0.31763
 Alpha  occ. eigenvalues --   -0.30986  -0.30420  -0.30271  -0.29389  -0.27552
 Alpha  occ. eigenvalues --   -0.27099  -0.26579  -0.26215  -0.25535  -0.24065
 Alpha  occ. eigenvalues --   -0.23025  -0.21893  -0.20552  -0.19639  -0.19164
 Alpha  occ. eigenvalues --   -0.18019  -0.14724  -0.13681  -0.12892  -0.10221
 Alpha  occ. eigenvalues --   -0.08424   0.00845
 Alpha virt. eigenvalues --    0.06699   0.07736   0.08756   0.09181   0.09487
 Alpha virt. eigenvalues --    0.10309   0.10843   0.11636   0.12068   0.12087
 Alpha virt. eigenvalues --    0.13335   0.13979   0.14102   0.14950   0.15036

  Beta  occ. eigenvalues --  -19.05015 -19.02977 -18.95131 -10.14495 -10.11511
  Beta  occ. eigenvalues --  -10.06416 -10.05959 -10.05903 -10.05271 -10.04445
  Beta  occ. eigenvalues --  -10.04328 -10.04233 -10.04205 -10.04196 -10.04142
  Beta  occ. eigenvalues --  -10.04098 -10.03471 -10.03310 -10.01544  -0.96427
  Beta  occ. eigenvalues --   -0.95942  -0.86458  -0.75578  -0.72033  -0.67788
  Beta  occ. eigenvalues --   -0.65280  -0.63461  -0.60854  -0.58934  -0.56650
  Beta  occ. eigenvalues --   -0.53399  -0.50231  -0.49014  -0.47358  -0.44841
  Beta  occ. eigenvalues --   -0.42685  -0.40284  -0.38863  -0.37191  -0.34891
  Beta  occ. eigenvalues --   -0.34309  -0.33511  -0.32287  -0.31898  -0.31706
  Beta  occ. eigenvalues --   -0.30288  -0.30185  -0.29979  -0.29216  -0.27475
  Beta  occ. eigenvalues --   -0.27050  -0.26427  -0.25556  -0.25354  -0.23873
  Beta  occ. eigenvalues --   -0.22908  -0.21566  -0.20447  -0.19432  -0.18054
  Beta  occ. eigenvalues --   -0.16869  -0.14047  -0.13335  -0.12350  -0.08474
  Beta  occ. eigenvalues --   -0.08066
  Beta virt. eigenvalues --    0.06380   0.06686   0.07720   0.08746   0.09335
  Beta virt. eigenvalues --    0.09486   0.10298   0.11105   0.11622   0.12070
  Beta virt. eigenvalues --    0.12531   0.13323   0.13980   0.14650   0.15012

 Mulliken charges and spin densities:
               1          2
     1  C   -0.520596   0.008840
     2  C    0.049178  -0.052221
     3  C    0.623225   0.084297
     4  C    0.464664   0.045837
     5  C    1.515327   0.062737
     6  C   -1.131662   0.070435
     7  C   -0.691264  -0.001179
     8  C   -0.100510   0.084578
     9  C   -0.688157  -0.037013
    10  O   -0.237621   0.001529
    11  C    0.567136   0.135786
    12  C   -1.023230   0.287968
    13  C    0.417782   0.081694
    14  O   -0.384703   0.107215
    15  O   -0.260164   0.011649
    16  C    0.528509  -0.012679
    17  C   -0.791706   0.063787
    18  C   -0.351808  -0.008507
    19  C   -0.666009   0.108682
    20  H    0.137101  -0.000783
    21  H    0.148972  -0.000643
    22  H    0.136967  -0.000644
    23  H    0.134560  -0.003807
    24  H    0.104762  -0.006726
    25  H    0.036177   0.001975
    26  H    0.248598  -0.000078
    27  H    0.116670  -0.020002
    28  H    0.273218  -0.001062
    29  H    0.149108  -0.003085
    30  H    0.137810   0.000217
    31  H    0.057663  -0.008797
 Sum of Mulliken charges =  -1.00000   1.00000

 Dipole moment (field-independent basis, Debye):
    X=             -4.4313    Y=              4.8198    Z=              0.2091  Tot=              6.5506
 Quadrupole moment (field-independent basis, Debye-Ang):
   XX=           -125.9294   YY=           -152.2691   ZZ=           -121.3084
   XY=             10.2135   XZ=              0.6908   YZ=             -1.0570

 Summary of Natural Population Analysis:

                                       Natural Population
                Natural  -----------------------------------------------
    Atom  No    Charge         Core      Valence    Rydberg      Total
 -----------------------------------------------------------------------
      C    1   -0.29060      0.99965     2.28611    0.00485     3.29060
      C    2   -0.03603      0.99949     2.02777    0.00877     3.03603
      C    3   -0.00364      0.99941     1.99100    0.01323     3.00364
      C    4    0.02980      0.99940     1.96427    0.00653     2.97020
      C    5    0.01409      0.99941     1.97404    0.01246     2.98591
      C    6   -0.11098      0.99949     2.10152    0.00996     3.11098
      C    7    0.15092      0.99940     1.83683    0.01285     2.84908
      C    8   -0.14242      0.99955     2.13130    0.01157     3.14242
      C    9   -0.11282      0.99950     2.10138    0.01194     3.11282
      O   10   -0.34499      0.99988     3.33881    0.00631     4.34499
      C   11    0.02261      0.99952     1.96738    0.01050     2.97739
      C   12   -0.05419      0.99941     2.04563    0.00914     3.05419
      C   13    0.39503      0.99968     1.58174    0.02355     2.60497
      O   14   -0.29479      0.99987     3.28779    0.00713     4.29479
      O   15   -0.35597      0.99988     3.34781    0.00828     4.35597
      C   16   -0.00920      0.99940     2.00001    0.00978     3.00920
      C   17   -0.07629      0.99944     2.06800    0.00885     3.07629
      C   18   -0.11932      0.99959     2.10996    0.00977     3.11932
      C   19   -0.08295      0.99953     2.07437    0.00904     3.08295
      H   20    0.09922      0.00000     0.39953    0.00126     0.40078
      H   21    0.09546      0.00000     0.40361    0.00093     0.40454
      H   22    0.09913      0.00000     0.39962    0.00125     0.40087
      H   23    0.10324      0.00000     0.39535    0.00141     0.39676
      H   24    0.08767      0.00000     0.41103    0.00130     0.41233
      H   25    0.09407      0.00000     0.40241    0.00352     0.40593
      H   26    0.22690      0.00000     0.27066    0.00244     0.27310
      H   27    0.09348      0.00000     0.40493    0.00159     0.40652
      H   28    0.23227      0.00000     0.26498    0.00275     0.26773
      H   29    0.11269      0.00000     0.38613    0.00117     0.38731
      H   30    0.09064      0.00000     0.40823    0.00112     0.40936
      H   31    0.08701      0.00000     0.41151    0.00148     0.41299
 =======================================================================
   * Total *    0.00007     18.99151    46.79369    0.21473    65.99993

 Normal termination of Gaussian 16 at Sun Dec 13 13:36:43 2020.
