 Gaussian 16, Revision A.03,

 -----------------------------------------------------------
 # opt freq B3LYP/6-31G(d) empiricaldispersion=gd3bj scf=xqc
 -----------------------------------------------------------

 -------------------------------
 CID_105365896_JID_9759_neutraal
 -------------------------------
 Symbolic Z-matrix:
 Charge =  0 Multiplicity = 1

 SCF Done:  E(RB3LYP) =  -791.695005046     A.U. after   14 cycles
 SCF Done:  E(RB3LYP) =  -791.702606491     A.U. after   12 cycles
 SCF Done:  E(RB3LYP) =  -791.703303717     A.U. after   11 cycles
 SCF Done:  E(RB3LYP) =  -791.703496234     A.U. after   11 cycles
 SCF Done:  E(RB3LYP) =  -791.703524251     A.U. after   10 cycles
 SCF Done:  E(RB3LYP) =  -791.703531205     A.U. after   10 cycles
 SCF Done:  E(RB3LYP) =  -791.703544535     A.U. after    9 cycles
 SCF Done:  E(RB3LYP) =  -791.703549336     A.U. after    9 cycles
 SCF Done:  E(RB3LYP) =  -791.703551170     A.U. after    9 cycles
 SCF Done:  E(RB3LYP) =  -791.703552094     A.U. after    8 cycles
 SCF Done:  E(RB3LYP) =  -791.703553037     A.U. after    9 cycles
 SCF Done:  E(RB3LYP) =  -791.703553193     A.U. after    7 cycles
 SCF Done:  E(RB3LYP) =  -791.703553274     A.U. after    7 cycles
 Optimization completed.
    -- Stationary point found.
 Normal termination of Gaussian 16 at Sat Dec 12 10:04:41 2020.

 --------------------------------------------------------------------
 #N Geom=AllCheck Guess=TCheck SCRF=Check GenChk RB3LYP/6-31G(d) Freq
 --------------------------------------------------------------------

 Structure from the checkpoint file:  "JID_9759.chk"
 -------------------------------
 CID_105365896_JID_9759_neutraal
 -------------------------------
 Charge =  0 Multiplicity = 1

 SCF Done:  E(RB3LYP) =  -791.703553274     A.U. after    1 cycles

  Exact polarizability: 215.086  15.712 162.876 -13.720  16.285 149.367
 Approx polarizability: 280.679  29.980 255.780 -29.591  33.343 245.995

                      1                      2                      3
                      A                      A                      A
 Frequencies --     29.4889                32.0369                67.9685
 Red. masses --      3.7399                 3.8693                 3.1179
 Frc consts  --      0.0019                 0.0023                 0.0085
 IR Inten    --      0.0515                 0.0855                 0.3826

                      4                      5                      6
                      A                      A                      A
 Frequencies --     79.0539               120.6710               143.4930
 Red. masses --      3.3063                 2.5295                 2.6043
 Frc consts  --      0.0122                 0.0217                 0.0316
 IR Inten    --      0.0481                 0.1386                 0.7182

                      7                      8                      9
                      A                      A                      A
 Frequencies --    177.4082               200.3846               231.2299
 Red. masses --      2.6807                 3.4420                 2.5791
 Frc consts  --      0.0497                 0.0814                 0.0812
 IR Inten    --      0.5794                 0.0469                 2.7159

                     10                     11                     12
                      A                      A                      A
 Frequencies --    262.6923               293.5518               320.7075
 Red. masses --      3.0970                 1.7826                 3.3679
 Frc consts  --      0.1259                 0.0905                 0.2041
 IR Inten    --      8.4786                58.6753                 1.4875

                     13                     14                     15
                      A                      A                      A
 Frequencies --    330.4655               373.1439               412.2657
 Red. masses --      2.5015                 1.5794                 3.3341
 Frc consts  --      0.1610                 0.1296                 0.3339
 IR Inten    --      1.6928                27.9778                 3.1278

                     16                     17                     18
                      A                      A                      A
 Frequencies --    423.5397               438.0211               440.4940
 Red. masses --      2.8734                 2.3559                 2.7072
 Frc consts  --      0.3037                 0.2663                 0.3095
 IR Inten    --      3.0298                 2.9539                 1.9046

                     19                     20                     21
                      A                      A                      A
 Frequencies --    461.0071               477.6552               502.0795
 Red. masses --      2.5986                 2.2115                 3.4678
 Frc consts  --      0.3254                 0.2973                 0.5151
 IR Inten    --      5.9845                 4.1898                 4.3296

                     22                     23                     24
                      A                      A                      A
 Frequencies --    528.9352               562.4964               593.8029
 Red. masses --      4.2084                 3.1637                 3.8057
 Frc consts  --      0.6937                 0.5898                 0.7906
 IR Inten    --      1.3986                 2.2611                 6.5318

                     25                     26                     27
                      A                      A                      A
 Frequencies --    620.6929               640.3013               678.2561
 Red. masses --      2.9616                 2.7749                 3.2933
 Frc consts  --      0.6723                 0.6703                 0.8926
 IR Inten    --      0.8989                 1.2490                 2.2347

                     28                     29                     30
                      A                      A                      A
 Frequencies --    704.9315               740.0284               773.2168
 Red. masses --      3.8490                 3.2076                 3.2013
 Frc consts  --      1.1269                 1.0350                 1.1277
 IR Inten    --     12.6526                 3.2497                 2.8884

                     31                     32                     33
                      A                      A                      A
 Frequencies --    777.8918               787.4503               793.6604
 Red. masses --      2.3102                 2.3865                 2.5980
 Frc consts  --      0.8236                 0.8719                 0.9642
 IR Inten    --      3.0371                10.3356                 2.8520

                     34                     35                     36
                      A                      A                      A
 Frequencies --    836.0459               844.7846               872.9707
 Red. masses --      1.8091                 1.5448                 2.4268
 Frc consts  --      0.7450                 0.6496                 1.0897
 IR Inten    --      0.4390                16.1635                 3.2575

                     37                     38                     39
                      A                      A                      A
 Frequencies --    876.6990               893.3671               909.7857
 Red. masses --      2.4204                 1.4886                 1.9563
 Frc consts  --      1.0961                 0.7000                 0.9540
 IR Inten    --      2.5572                 4.3827                 0.3800

                     40                     41                     42
                      A                      A                      A
 Frequencies --    915.7605               920.9360               926.1598
 Red. masses --      1.6135                 2.6649                 2.1087
 Frc consts  --      0.7972                 1.3317                 1.0657
 IR Inten    --      1.5899                 2.9461                 2.2085

                     43                     44                     45
                      A                      A                      A
 Frequencies --    933.8406               948.0068               960.3911
 Red. masses --      2.6924                 2.7374                 1.3615
 Frc consts  --      1.3833                 1.4495                 0.7399
 IR Inten    --     18.8703                 4.4744                 2.5299

                     46                     47                     48
                      A                      A                      A
 Frequencies --    975.8567               990.1213               995.5699
 Red. masses --      2.3529                 2.1715                 2.1965
 Frc consts  --      1.3202                 1.2543                 1.2827
 IR Inten    --      5.9400                 6.8678                28.6260

                     49                     50                     51
                      A                      A                      A
 Frequencies --   1018.4322              1033.2149              1047.6232
 Red. masses --      2.1841                 2.4602                 2.9180
 Frc consts  --      1.3347                 1.5474                 1.8869
 IR Inten    --      0.9660                10.5942                20.2944

                     52                     53                     54
                      A                      A                      A
 Frequencies --   1066.2505              1074.1674              1090.5405
 Red. masses --      1.8896                 1.6921                 2.1923
 Frc consts  --      1.2657                 1.1503                 1.5362
 IR Inten    --     25.6787                 2.1313                10.8318

                     55                     56                     57
                      A                      A                      A
 Frequencies --   1109.2306              1118.8341              1124.7517
 Red. masses --      1.8210                 2.3415                 2.0866
 Frc consts  --      1.3201                 1.7269                 1.5553
 IR Inten    --     12.2379                 3.9688                12.5858

                     58                     59                     60
                      A                      A                      A
 Frequencies --   1158.3717              1162.0310              1174.9306
 Red. masses --      1.3612                 2.0725                 1.4198
 Frc consts  --      1.0761                 1.6488                 1.1548
 IR Inten    --      4.9564                24.6529                 2.2313

                     61                     62                     63
                      A                      A                      A
 Frequencies --   1203.6872              1206.2631              1220.2716
 Red. masses --      1.2659                 1.2885                 1.3158
 Frc consts  --      1.0806                 1.1046                 1.1544
 IR Inten    --      6.0676                 0.5865                19.6979

                     64                     65                     66
                      A                      A                      A
 Frequencies --   1229.2233              1249.9892              1251.8198
 Red. masses --      1.7435                 1.3889                 1.3605
 Frc consts  --      1.5521                 1.2786                 1.2561
 IR Inten    --      0.4607                 1.7256                 3.1527

                     67                     68                     69
                      A                      A                      A
 Frequencies --   1262.4475              1274.5198              1285.4383
 Red. masses --      1.3978                 2.7130                 1.4677
 Frc consts  --      1.3126                 2.5965                 1.4288
 IR Inten    --      3.3019                 3.3669                20.8696

                     70                     71                     72
                      A                      A                      A
 Frequencies --   1294.7071              1308.3390              1312.5976
 Red. masses --      1.3923                 1.3274                 1.5915
 Frc consts  --      1.3750                 1.3387                 1.6155
 IR Inten    --      1.8203                 0.6874                 3.6697

                     73                     74                     75
                      A                      A                      A
 Frequencies --   1323.3311              1327.7869              1342.2744
 Red. masses --      1.9816                 1.2740                 1.4892
 Frc consts  --      2.0446                 1.3233                 1.5808
 IR Inten    --      0.8101                 3.5743                14.8914

                     76                     77                     78
                      A                      A                      A
 Frequencies --   1343.3386              1345.5844              1357.9368
 Red. masses --      1.4216                 1.3574                 1.4000
 Frc consts  --      1.5115                 1.4481                 1.5210
 IR Inten    --      3.9961                11.3044                 0.4806

                     79                     80                     81
                      A                      A                      A
 Frequencies --   1360.6445              1369.2449              1377.6848
 Red. masses --      1.4482                 1.5018                 1.3506
 Frc consts  --      1.5797                 1.6589                 1.5103
 IR Inten    --      0.3685                 7.9090                 3.3765

                     82                     83                     84
                      A                      A                      A
 Frequencies --   1383.1184              1405.4236              1432.2130
 Red. masses --      3.0010                 1.2983                 1.5549
 Frc consts  --      3.3825                 1.5109                 1.8792
 IR Inten    --      8.3777                14.3407                14.5904

                     85                     86                     87
                      A                      A                      A
 Frequencies --   1477.9299              1510.8364              1512.5799
 Red. masses --      3.3639                 1.1334                 1.1008
 Frc consts  --      4.3291                 1.5243                 1.4839
 IR Inten    --      4.7483                 2.2255                 1.7004

                     88                     89                     90
                      A                      A                      A
 Frequencies --   1514.6914              1518.2677              1526.9689
 Red. masses --      1.0824                 1.0978                 1.0810
 Frc consts  --      1.4632                 1.4910                 1.4851
 IR Inten    --      1.5097                 2.9312                 0.2243

                     91                     92                     93
                      A                      A                      A
 Frequencies --   1533.1126              1542.5618              1543.3664
 Red. masses --      1.1296                 1.0973                 2.2998
 Frc consts  --      1.5643                 1.5384                 3.2275
 IR Inten    --      1.1904                 3.9631                22.5154

                     94                     95                     96
                      A                      A                      A
 Frequencies --   1546.8613              1562.4932              1636.6415
 Red. masses --      1.0928                 1.0940                 6.4153
 Frc consts  --      1.5406                 1.5736                10.1245
 IR Inten    --      4.4788                 1.9548                 2.4979

                     97                     98                     99
                      A                      A                      A
 Frequencies --   1675.5742              3024.2698              3025.0061
 Red. masses --      6.5790                 1.0707                 1.0695
 Frc consts  --     10.8828                 5.7696                 5.7661
 IR Inten    --      2.6199                34.4599                28.4554

                    100                    101                    102
                      A                      A                      A
 Frequencies --   3033.3886              3055.2391              3056.6423
 Red. masses --      1.0598                 1.0680                 1.0598
 Frc consts  --      5.7457                 5.8738                 5.8338
 IR Inten    --     60.3245                36.9411                16.5283

                    103                    104                    105
                      A                      A                      A
 Frequencies --   3059.7123              3061.3805              3062.4406
 Red. masses --      1.0766                 1.0668                 1.0978
 Frc consts  --      5.9382                 5.8909                 6.0661
 IR Inten    --     52.3743                22.1876                23.2044

                    106                    107                    108
                      A                      A                      A
 Frequencies --   3070.3929              3075.1307              3087.0334
 Red. masses --      1.0668                 1.0689                 1.0937
 Frc consts  --      5.9255                 5.9556                 6.1408
 IR Inten    --     29.9763                57.2877                29.0146

                    109                    110                    111
                      A                      A                      A
 Frequencies --   3090.0444              3099.7552              3105.2943
 Red. masses --      1.0890                 1.1041                 1.0998
 Frc consts  --      6.1264                 6.2505                 6.2483
 IR Inten    --     51.6925                 9.6737                21.2442

                    112                    113                    114
                      A                      A                      A
 Frequencies --   3112.8554              3117.0470              3121.0563
 Red. masses --      1.0855                 1.1037                 1.0986
 Frc consts  --      6.1973                 6.3181                 6.3051
 IR Inten    --     34.3176                46.1225                14.8502

                    115                    116                    117
                      A                      A                      A
 Frequencies --   3135.1952              3148.2551              3176.5399
 Red. masses --      1.0977                 1.0953                 1.0868
 Frc consts  --      6.3574                 6.3964                 6.4612
 IR Inten    --     33.5007                25.2571                12.4287

                    118                    119                    120
                      A                      A                      A
 Frequencies --   3179.8590              3194.0218              3745.6211
 Red. masses --      1.0897                 1.0942                 1.0662
 Frc consts  --      6.4920                 6.5772                 8.8134
 IR Inten    --     19.7051                21.4239                 4.2094

 - Thermochemistry -
 -------------------
 Temperature   298.150 Kelvin.  Pressure   1.00000 Atm.
 Atom     1 has atomic number  6 and mass  12.00000

 Molecular mass:   257.17796 amu.
 Principal axes and moments of inertia in atomic units:
                           1         2         3
     Eigenvalues --  2307.292888227.838468624.58844
           X            0.99999   0.00481   0.00042
           Y           -0.00483   0.99548   0.09488
           Z            0.00004  -0.09488   0.99549
 This molecule is an asymmetric top.
 Rotational symmetry number  1.
 Warning -- assumption of classical behavior for rotation
           may cause significant error
 Rotational temperatures (Kelvin)      0.03754     0.01053     0.01004
 Rotational constants (GHZ):           0.78219     0.21935     0.20926
 Zero-point vibrational energy     983352.2 (Joules/Mol)
                                  235.02681 (Kcal/Mol)
 Warning -- explicit consideration of  25 degrees of freedom as
           vibrations may cause significant error
 Vibrational temperatures:     42.43    46.09    97.79   113.74   173.62
          (Kelvin)            206.45   255.25   288.31   332.69   377.96
                              422.36   461.43   475.47   536.87   593.16
                              609.38   630.21   633.77   663.29   687.24
                              722.38   761.02   809.31   854.35   893.04
                              921.25   975.86  1014.24  1064.74  1112.49
                             1119.21  1132.97  1141.90  1202.88  1215.46
                             1256.01  1261.37  1285.36  1308.98  1317.58
                             1325.02  1332.54  1343.59  1363.97  1381.79
                             1404.04  1424.56  1432.40  1465.30  1486.57
                             1507.30  1534.10  1545.49  1569.04  1595.94
                             1609.75  1618.27  1666.64  1671.90  1690.46
                             1731.84  1735.54  1755.70  1768.58  1798.46
                             1801.09  1816.38  1833.75  1849.46  1862.79
                             1882.41  1888.54  1903.98  1910.39  1931.23
                             1932.76  1936.00  1953.77  1957.66  1970.04
                             1982.18  1990.00  2022.09  2060.64  2126.41
                             2173.76  2176.27  2179.30  2184.45  2196.97
                             2205.81  2219.40  2220.56  2225.59  2248.08
                             2354.76  2410.78  4351.25  4352.31  4364.37
                             4395.81  4397.83  4402.24  4404.64  4406.17
                             4417.61  4424.43  4441.55  4445.88  4459.86
                             4467.83  4478.70  4484.74  4490.50  4510.85
                             4529.64  4570.33  4575.11  4595.48  5389.11

 Zero-point correction=                           0.374539 (Hartree/Particle)
 Thermal correction to Energy=                    0.390467
 Thermal correction to Enthalpy=                  0.391412
 Thermal correction to Gibbs Free Energy=         0.330660
 Sum of electronic and zero-point Energies=           -791.329014
 Sum of electronic and thermal Energies=              -791.313086
 Sum of electronic and thermal Enthalpies=            -791.312142
 Sum of electronic and thermal Free Energies=         -791.372893

                     E (Thermal)             CV                S
                      KCal/Mol        Cal/Mol-Kelvin    Cal/Mol-Kelvin
 Total                  245.022             66.255            127.863
 Electronic               0.000              0.000              0.000
 Translational            0.889              2.981             42.534
 Rotational               0.889              2.981             33.459
 Vibrational            243.245             60.293             51.870
 Vibration     1          0.593              1.984              5.864
 Vibration     2          0.594              1.983              5.699
 Vibration     3          0.598              1.969              4.211
 Vibration     4          0.600              1.963              3.914
 Vibration     5          0.609              1.932              3.090
 Vibration     6          0.616              1.910              2.757
 Vibration     7          0.628              1.870              2.356
 Vibration     8          0.638              1.839              2.130
 Vibration     9          0.653              1.793              1.869
 Vibration    10          0.670              1.741              1.644
 Vibration    11          0.688              1.686              1.453
 Vibration    12          0.706              1.634              1.306
 Vibration    13          0.713              1.615              1.258
 Vibration    14          0.745              1.527              1.067
 Vibration    15          0.776              1.444              0.919
 Vibration    16          0.786              1.419              0.880
 Vibration    17          0.798              1.387              0.833
 Vibration    18          0.800              1.382              0.825
 Vibration    19          0.819              1.337              0.763
 Vibration    20          0.834              1.300              0.716
 Vibration    21          0.857              1.245              0.653
 Vibration    22          0.884              1.186              0.590
 Vibration    23          0.918              1.112              0.519
 Vibration    24          0.951              1.045              0.460
 Vibration    25          0.981              0.988              0.415

 Optimization completed.
    -- Stationary point found.
 Normal termination of Gaussian 16 at Sat Dec 12 10:26:58 2020.

 ----------------------------------------------------------------------
 # B3LYP/6-311++G(d,p) empiricaldispersion=gd3bj scf=xqc pop=npa geom=c
 heck
 ----------------------------------------------------------------------

 ---------------------------------------
 CID_105365896_JID_9759_Energie_neutraal
 ---------------------------------------
 Structure from the checkpoint file:  "JID_9759.chk"
 Charge =  0 Multiplicity = 1

 SCF Done:  E(RB3LYP) =  -791.915491086     A.U. after   15 cycles
 Normal termination of Gaussian 16 at Sat Dec 12 10:36:12 2020.

 ----------------------------------------------------------------------
 # B3LYP/6-311++G(d,p) empiricaldispersion=gd3bj scf=xqc pop=npa geom=c
 heck
 ----------------------------------------------------------------------

 -------------------------------------
 CID_105365896_JID_9759_Energie_kation
 -------------------------------------
 Structure from the checkpoint file:  "JID_9759.chk"
 Charge =  1 Multiplicity = 2

 SCF Done:  E(UB3LYP) =  -791.636682691     A.U. after   24 cycles
 Normal termination of Gaussian 16 at Sat Dec 12 10:56:16 2020.
 Gaussian 16:  ES64L-G16RevA.03 25-Dec-2016

 ----------------------------------------------------------------------
 # B3LYP/6-311++G(d,p) empiricaldispersion=gd3bj scf=xqc pop=npa geom=c
 heck
 ----------------------------------------------------------------------

 ------------------------------------
 CID_105365896_JID_9759_Energie_anion
 ------------------------------------
 Structure from the checkpoint file:  "JID_9759.chk"
 Charge = -1 Multiplicity = 2

                         Standard orientation:
 ---------------------------------------------------------------------
 Center     Atomic      Atomic             Coordinates (Angstroms)
 Number     Number       Type             X           Y           Z
 ---------------------------------------------------------------------
      1          6           0       -4.910001   -1.094894   -0.152746
      2          6           0       -4.460178   -0.232437    1.052962
      3          6           0       -3.155441    0.365362    0.573544
      4          6           0       -2.662021   -0.351292   -0.524682
      5          6           0       -3.597593   -1.488154   -0.875412
      6          6           0       -1.461655    0.011621   -1.125622
      7          6           0       -0.722758    1.098391   -0.631901
      8          6           0       -1.244203    1.821090    0.452647
      9          6           0       -2.448493    1.459682    1.061815
     10          6           0        0.602205    1.482659   -1.247400
     11          6           0        1.857969    0.813649   -0.632035
     12          6           0        2.078275    1.280858    0.822076
     13          6           0        2.965092    0.338457    1.664283
     14          7           0        2.700049   -1.104597    1.441705
     15          6           0        3.654998   -1.711161    0.493347
     16          6           0        3.089589   -1.466910   -0.941034
     17          6           0        1.745672   -0.750324   -0.684186
     18          6           0        1.418227   -1.277088    0.730688
     19          8           0        2.915097    1.305752   -1.473368
     20          1           0       -5.519447   -0.480393   -0.825544
     21          1           0       -5.511707   -1.959921    0.141363
     22          1           0       -5.203658    0.520094    1.338037
     23          1           0       -4.288083   -0.860505    1.939476
     24          1           0       -3.204641   -2.437343   -0.482301
     25          1           0       -3.729691   -1.623317   -1.954591
     26          1           0       -1.098275   -0.535886   -1.991926
     27          1           0       -0.703922    2.691857    0.814892
     28          1           0       -2.830919    2.040563    1.897607
     29          1           0        0.610082    1.229545   -2.313716
     30          1           0        0.749756    2.566281   -1.178434
     31          1           0        2.501343    2.291925    0.804966
     32          1           0        1.106165    1.362068    1.313904
     33          1           0        2.809792    0.572288    2.725291
     34          1           0        4.027626    0.526782    1.466932
     35          1           0        3.714430   -2.785685    0.701558
     36          1           0        4.655967   -1.297839    0.647499
     37          1           0        2.908275   -2.417786   -1.453371
     38          1           0        3.753674   -0.885895   -1.583861
     39          1           0        1.008884   -1.038600   -1.437213
     40          1           0        0.599674   -0.760386    1.234209
     41          1           0        1.169634   -2.344933    0.701864
     42          1           0        3.755827    1.116190   -1.029680
 ---------------------------------------------------------------------

 SCF Done:  E(UB3LYP) =  -791.902713348     A.U. after   33 cycles
 SCF Done:  E(UB3LYP) =  -791.902713348     a.u. after    1 cycles

 The electronic state is 2-A.
 Alpha  occ. eigenvalues --  -19.02432 -14.20310 -10.13591 -10.09451 -10.08991
 Alpha  occ. eigenvalues --  -10.08980 -10.08868 -10.08411 -10.08361 -10.08329
 Alpha  occ. eigenvalues --  -10.08247 -10.08233 -10.08166 -10.08077 -10.07946
 Alpha  occ. eigenvalues --  -10.07805 -10.07398 -10.06927 -10.06532  -0.92941
 Alpha  occ. eigenvalues --   -0.83759  -0.78352  -0.73333  -0.69507  -0.68170
 Alpha  occ. eigenvalues --   -0.66698  -0.64271  -0.61875  -0.61094  -0.59235
 Alpha  occ. eigenvalues --   -0.54663  -0.52988  -0.51078  -0.49269  -0.47830
 Alpha  occ. eigenvalues --   -0.46862  -0.44458  -0.41819  -0.40824  -0.39680
 Alpha  occ. eigenvalues --   -0.38987  -0.37539  -0.36819  -0.36038  -0.35170
 Alpha  occ. eigenvalues --   -0.34944  -0.33344  -0.32344  -0.31813  -0.31450
 Alpha  occ. eigenvalues --   -0.30614  -0.29363  -0.28260  -0.28076  -0.27798
 Alpha  occ. eigenvalues --   -0.26513  -0.26250  -0.25701  -0.24989  -0.24692
 Alpha  occ. eigenvalues --   -0.24646  -0.24099  -0.23823  -0.23476  -0.22582
 Alpha  occ. eigenvalues --   -0.21674  -0.17722  -0.15938  -0.14351  -0.12042
 Alpha  occ. eigenvalues --    0.04133
 Alpha virt. eigenvalues --    0.05631   0.06422   0.06657   0.07213   0.07714
 Alpha virt. eigenvalues --    0.07973   0.08397   0.08747   0.09224   0.09525
 Alpha virt. eigenvalues --    0.09837   0.09969   0.10301   0.11111   0.11306

  Beta  occ. eigenvalues --  -19.02403 -14.20313 -10.13590 -10.09423 -10.08977
  Beta  occ. eigenvalues --  -10.08969 -10.08850 -10.08409 -10.08347 -10.08323
  Beta  occ. eigenvalues --  -10.08230 -10.08214 -10.08147 -10.08069 -10.07928
  Beta  occ. eigenvalues --  -10.07802 -10.07392 -10.06918 -10.06514  -0.92880
  Beta  occ. eigenvalues --   -0.83747  -0.78330  -0.73309  -0.69482  -0.68140
  Beta  occ. eigenvalues --   -0.66668  -0.64247  -0.61832  -0.61063  -0.59199
  Beta  occ. eigenvalues --   -0.54622  -0.52944  -0.51039  -0.49217  -0.47793
  Beta  occ. eigenvalues --   -0.46814  -0.44408  -0.41788  -0.40788  -0.39647
  Beta  occ. eigenvalues --   -0.38963  -0.37512  -0.36786  -0.36009  -0.35139
  Beta  occ. eigenvalues --   -0.34917  -0.33314  -0.32320  -0.31787  -0.31421
  Beta  occ. eigenvalues --   -0.30588  -0.29339  -0.28225  -0.28052  -0.27770
  Beta  occ. eigenvalues --   -0.26476  -0.26220  -0.25673  -0.24966  -0.24665
  Beta  occ. eigenvalues --   -0.24611  -0.24062  -0.23795  -0.23455  -0.22557
  Beta  occ. eigenvalues --   -0.21646  -0.17695  -0.15857  -0.14312  -0.12028
  Beta virt. eigenvalues --    0.06045   0.06600   0.06727   0.07004   0.07734
  Beta virt. eigenvalues --    0.07968   0.08139   0.08684   0.09022   0.09517
  Beta virt. eigenvalues --    0.09793   0.09962   0.10261   0.10521   0.11297

 Mulliken charges and spin densities:
               1          2
     1  C    0.028118  -0.489530
     2  C    0.679834  -1.329649
     3  C    1.358870  -1.149446
     4  C    0.231708  -0.103950
     5  C   -0.360599  -0.037036
     6  C   -1.504954   0.989442
     7  C    1.699915  -0.373188
     8  C   -0.828411   0.477661
     9  C   -0.970051   0.646878
    10  C   -0.051882  -0.336454
    11  C    0.330576  -1.386491
    12  C   -1.078568   0.995064
    13  C    0.590813  -1.143486
    14  N   -0.017313   0.121700
    15  C    0.417614  -0.806987
    16  C    0.423771  -0.901306
    17  C   -1.106809   2.066341
    18  C    0.029189  -0.953916
    19  O   -0.128611  -0.007939
    20  H    0.082453   0.055178
    21  H   -0.231284   0.396151
    22  H    0.042032   0.098975
    23  H   -0.120164   0.301480
    24  H   -0.130941   0.312654
    25  H   -0.063934   0.216324
    26  H    0.102023   0.052811
    27  H   -0.013862   0.172388
    28  H   -0.248200   0.418249
    29  H    0.135229   0.078276
    30  H    0.140206   0.045003
    31  H   -0.049282   0.261375
    32  H    0.097481   0.022880
    33  H   -0.227651   0.426205
    34  H   -0.197281   0.333838
    35  H    0.122091   0.045504
    36  H   -0.357187   0.499325
    37  H   -0.240783   0.375118
    38  H    0.059135   0.087313
    39  H    0.045658   0.185375
    40  H    0.569215  -0.388273
    41  H   -0.208939   0.409607
    42  H   -0.049226   0.316539
 Sum of Mulliken charges =  -1.00000   1.00000

 Dipole moment (field-independent basis, Debye):
    X=             -2.5628    Y=              2.5139    Z=             -1.7610  Tot=              3.9986
 Quadrupole moment (field-independent basis, Debye-Ang):
   XX=           -213.5073   YY=           -160.7880   ZZ=           -153.5946
   XY=            -10.1807   XZ=              2.7220   YZ=              3.0497

 Summary of Natural Population Analysis:

                                       Natural Population
                Natural  -----------------------------------------------
    Atom  No    Charge         Core      Valence    Rydberg      Total
 -----------------------------------------------------------------------
      C    1   -0.18370      0.99965     2.17600    0.00805     3.18370
      C    2   -0.19725      0.99961     2.18982    0.00782     3.19725
      C    3   -0.01601      0.99946     2.00672    0.00983     3.01601
      C    4   -0.01013      0.99947     2.00106    0.00960     3.01013
      C    5   -0.19719      0.99961     2.18951    0.00807     3.19719
      C    6   -0.09566      0.99946     2.08762    0.00858     3.09566
      C    7   -0.01421      0.99951     2.00507    0.00964     3.01421
      C    8   -0.10251      0.99952     2.09418    0.00882     3.10251
      C    9   -0.09499      0.99951     2.08648    0.00900     3.09499
      C   10   -0.20103      0.99955     2.19059    0.01090     3.20103
      C   11    0.14469      0.99948     1.83956    0.01626     2.85531
      C   12   -0.22204      0.99956     2.21323    0.00925     3.22204
      C   13   -0.08612      0.99961     2.07409    0.01242     3.08612
      N   14   -0.27820      0.99976     2.76586    0.01258     3.77820
      C   15   -0.08882      0.99962     2.07827    0.01093     3.08882
      C   16   -0.20595      0.99962     2.19735    0.00897     3.20595
      C   17   -0.13058      0.99955     2.11933    0.01170     3.13058
      C   18   -0.09080      0.99960     2.07940    0.01180     3.09080
      O   19   -0.37899      0.99989     3.37255    0.00655     4.37899
      H   20    0.09322      0.00000     0.40564    0.00114     0.40678
      H   21    0.10059      0.00000     0.39812    0.00129     0.39941
      H   22    0.10087      0.00000     0.39814    0.00099     0.39913
      H   23    0.10370      0.00000     0.39487    0.00143     0.39630
      H   24    0.10507      0.00000     0.39326    0.00167     0.39493
      H   25    0.10151      0.00000     0.39752    0.00096     0.39849
      H   26    0.09946      0.00000     0.39911    0.00142     0.40054
      H   27    0.09954      0.00000     0.39921    0.00124     0.40046
      H   28    0.09925      0.00000     0.39953    0.00123     0.40075
      H   29    0.10687      0.00000     0.39189    0.00124     0.39313
      H   30    0.10552      0.00000     0.39314    0.00134     0.39448
      H   31    0.10797      0.00000     0.39071    0.00132     0.39203
      H   32    0.10612      0.00000     0.39203    0.00185     0.39388
      H   33    0.09474      0.00000     0.40384    0.00142     0.40526
      H   34    0.09236      0.00000     0.40561    0.00203     0.40764
      H   35    0.09340      0.00000     0.40530    0.00131     0.40660
      H   36    0.09611      0.00000     0.40242    0.00148     0.40389
      H   37    0.10042      0.00000     0.39822    0.00136     0.39958
      H   38    0.10452      0.00000     0.39403    0.00145     0.39548
      H   39    0.10469      0.00000     0.39357    0.00174     0.39531
      H   40    0.10398      0.00000     0.39453    0.00149     0.39602
      H   41    0.09797      0.00000     0.40080    0.00123     0.40203
      H   42    0.23159      0.00000     0.26496    0.00346     0.26841
 =======================================================================
   * Total *    0.00000     18.99202    50.78313    0.22485    70.00000

 Normal termination of Gaussian 16 at Sat Dec 12 11:24:55 2020.
