 Gaussian 16, Revision A.03,

 -----------------------------------------------------------
 # opt freq B3LYP/6-31G(d) empiricaldispersion=gd3bj scf=xqc
 -----------------------------------------------------------

 ------------------------------
 CID_82507323_JID_3520_neutraal
 ------------------------------
 Symbolic Z-matrix:
 Charge =  0 Multiplicity = 1

 SCF Done:  E(RB3LYP) =  -1024.55496740     A.U. after   15 cycles
 SCF Done:  E(RB3LYP) =  -1024.56096751     A.U. after   13 cycles
 SCF Done:  E(RB3LYP) =  -1024.56156107     A.U. after   12 cycles
 SCF Done:  E(RB3LYP) =  -1024.56235491     A.U. after   12 cycles
 SCF Done:  E(RB3LYP) =  -1024.56278372     A.U. after   12 cycles
 SCF Done:  E(RB3LYP) =  -1024.56312468     A.U. after   12 cycles
 SCF Done:  E(RB3LYP) =  -1024.56335697     A.U. after   12 cycles
 SCF Done:  E(RB3LYP) =  -1024.56347556     A.U. after   12 cycles
 SCF Done:  E(RB3LYP) =  -1024.56371689     A.U. after   11 cycles
 SCF Done:  E(RB3LYP) =  -1024.56419637     A.U. after   13 cycles
 SCF Done:  E(RB3LYP) =  -1024.56547371     A.U. after   11 cycles
 SCF Done:  E(RB3LYP) =  -1024.56547421     A.U. after    8 cycles
 SCF Done:  E(RB3LYP) =  -1024.56547446     A.U. after    8 cycles
 SCF Done:  E(RB3LYP) =  -1024.56547448     A.U. after    7 cycles
 SCF Done:  E(RB3LYP) =  -1024.56547448     A.U. after    7 cycles
 Optimization completed.
    -- Stationary point found.
 Normal termination of Gaussian 16 at Wed Dec  9 23:39:54 2020.

 --------------------------------------------------------------------
 #N Geom=AllCheck Guess=TCheck SCRF=Check GenChk RB3LYP/6-31G(d) Freq
 --------------------------------------------------------------------

 Structure from the checkpoint file:  "JID_3520.chk"
 ------------------------------
 CID_82507323_JID_3520_neutraal
 ------------------------------
 Charge =  0 Multiplicity = 1

 SCF Done:  E(RB3LYP) =  -1024.56547448     A.U. after    1 cycles

  Exact polarizability: 129.217   3.208 103.839  -5.049   1.301  85.011
 Approx polarizability: 165.081   6.550 166.526 -13.188  -1.232 137.318

                      1                      2                      3
                      A                      A                      A
 Frequencies --     40.6523                51.3732                76.2235
 Red. masses --      4.7981                 3.7797                 6.2864
 Frc consts  --      0.0047                 0.0059                 0.0215
 IR Inten    --      2.5659                 2.2832                 5.6385

                      4                      5                      6
                      A                      A                      A
 Frequencies --     78.4361               160.5414               191.9956
 Red. masses --      5.2375                 7.9350                 1.6416
 Frc consts  --      0.0190                 0.1205                 0.0357
 IR Inten    --      5.3856                 2.8427                65.2020

                      7                      8                      9
                      A                      A                      A
 Frequencies --    207.1597               262.1527               267.9089
 Red. masses --      2.5279                 2.7543                 3.4832
 Frc consts  --      0.0639                 0.1115                 0.1473
 IR Inten    --      1.0281                 6.8165                11.5085

                     10                     11                     12
                      A                      A                      A
 Frequencies --    283.3240               328.5824               402.8602
 Red. masses --      2.5549                 3.7177                 1.7513
 Frc consts  --      0.1208                 0.2365                 0.1675
 IR Inten    --      4.4076                14.1864                 9.7304

                     13                     14                     15
                      A                      A                      A
 Frequencies --    409.8260               413.6023               454.9264
 Red. masses --      4.3112                 3.7736                 3.2364
 Frc consts  --      0.4266                 0.3803                 0.3946
 IR Inten    --      2.2302                19.2809                21.6487

                     16                     17                     18
                      A                      A                      A
 Frequencies --    469.8843               481.6594               505.1991
 Red. masses --      2.9365                 4.6306                 4.1611
 Frc consts  --      0.3820                 0.6329                 0.6257
 IR Inten    --     22.6358                21.0331                30.6757

                     19                     20                     21
                      A                      A                      A
 Frequencies --    562.1079               617.7996               663.0385
 Red. masses --      2.3790                 3.0132                 4.0370
 Frc consts  --      0.4429                 0.6776                 1.0457
 IR Inten    --     12.0300                13.6506                16.0653

                     22                     23                     24
                      A                      A                      A
 Frequencies --    701.5005               735.4373               810.3234
 Red. masses --      4.1646                 3.1231                 2.4477
 Frc consts  --      1.2075                 0.9952                 0.9470
 IR Inten    --     89.1546                79.5973                45.5026

                     25                     26                     27
                      A                      A                      A
 Frequencies --    814.4035               842.0882               891.1708
 Red. masses --      3.1351                 1.6317                 1.8645
 Frc consts  --      1.2251                 0.6817                 0.8724
 IR Inten    --    137.1189                 1.4903                22.9272

                     28                     29                     30
                      A                      A                      A
 Frequencies --    905.3707               918.0952               956.4748
 Red. masses --      1.8014                 1.9868                 2.0934
 Frc consts  --      0.8700                 0.9867                 1.1284
 IR Inten    --     27.8551                45.6223                 7.2242

                     31                     32                     33
                      A                      A                      A
 Frequencies --    985.7245              1030.2483              1040.2049
 Red. masses --      2.7783                 2.1556                 1.6678
 Frc consts  --      1.5905                 1.3480                 1.0633
 IR Inten    --      1.4273                 4.5746                 4.8467

                     34                     35                     36
                      A                      A                      A
 Frequencies --   1053.5994              1108.5282              1135.0958
 Red. masses --      2.2990                 3.6472                 1.3247
 Frc consts  --      1.5036                 2.6406                 1.0056
 IR Inten    --     25.7175                75.0453                61.7289

                     37                     38                     39
                      A                      A                      A
 Frequencies --   1154.9839              1178.6051              1204.4988
 Red. masses --      3.6979                 1.9151                 1.4613
 Frc consts  --      2.9064                 1.5674                 1.2491
 IR Inten    --     35.1272                 8.1533                45.7711

                     40                     41                     42
                      A                      A                      A
 Frequencies --   1220.3799              1222.7778              1255.2395
 Red. masses --      2.0911                 1.3893                 1.6127
 Frc consts  --      1.8349                 1.2238                 1.4972
 IR Inten    --      3.4765                 9.9713                51.4640

                     43                     44                     45
                      A                      A                      A
 Frequencies --   1292.9667              1308.0696              1334.8619
 Red. masses --      1.4132                 1.6143                 5.3485
 Frc consts  --      1.3920                 1.6274                 5.6150
 IR Inten    --     86.2058                45.5358               287.1327

                     46                     47                     48
                      A                      A                      A
 Frequencies --   1362.8258              1370.9501              1393.0977
 Red. masses --      1.3141                 1.2603                 1.3019
 Frc consts  --      1.4380                 1.3956                 1.4886
 IR Inten    --      3.8041                 1.4613                 7.1177

                     49                     50                     51
                      A                      A                      A
 Frequencies --   1414.3952              1420.6965              1466.9360
 Red. masses --      1.3693                 1.3512                 1.6558
 Frc consts  --      1.6139                 1.6068                 2.0993
 IR Inten    --     11.4201                 0.2027                65.1112

                     52                     53                     54
                      A                      A                      A
 Frequencies --   1497.7198              1501.2317              1505.1168
 Red. masses --      1.4270                 1.2681                 1.1572
 Frc consts  --      1.8859                 1.6838                 1.5446
 IR Inten    --     66.6460                50.9357                22.3980

                     55                     56                     57
                      A                      A                      A
 Frequencies --   1511.6010              1519.6067              1525.8676
 Red. masses --      1.1057                 1.1264                 1.0966
 Frc consts  --      1.4885                 1.5325                 1.5043
 IR Inten    --      6.6280                 6.8797                12.7791

                     58                     59                     60
                      A                      A                      A
 Frequencies --   1615.1089              1733.8967              3014.1269
 Red. masses --      1.1465                 7.0433                 1.0733
 Frc consts  --      1.7621                12.4759                 5.7450
 IR Inten    --    155.8500               275.0624                27.3418

                     61                     62                     63
                      A                      A                      A
 Frequencies --   3036.9344              3050.2310              3054.8999
 Red. masses --      1.0738                 1.0627                 1.0634
 Frc consts  --      5.8348                 5.8252                 5.8471
 IR Inten    --     17.0704                23.9669                52.7082

                     64                     65                     66
                      A                      A                      A
 Frequencies --   3106.5669              3107.4880              3134.7249
 Red. masses --      1.1026                 1.1034                 1.0610
 Frc consts  --      6.2693                 6.2780                 6.1425
 IR Inten    --     30.3669                34.5095                 2.2641

                     67                     68                     69
                      A                      A                      A
 Frequencies --   3164.8232              3165.1792              3201.1478
 Red. masses --      1.0905                 1.0898                 1.1061
 Frc consts  --      6.4355                 6.4329                 6.6781
 IR Inten    --      8.0795                15.6040                 3.3705

                     70                     71                     72
                      A                      A                      A
 Frequencies --   3418.6070              3469.7128              3560.4248
 Red. masses --      1.0524                 1.0737                 1.0921
 Frc consts  --      7.2463                 7.6159                 8.1567
 IR Inten    --     55.2828                 1.1710                61.5429

 - Thermochemistry -
 -------------------
 Temperature   298.150 Kelvin.  Pressure   1.00000 Atm.
 Atom     1 has atomic number  6 and mass  12.00000

 Molecular mass:   207.06776 amu.
 Principal axes and moments of inertia in atomic units:
                           1         2         3
     Eigenvalues --  1121.417454540.340215110.85600
           X            0.99993   0.01135  -0.00251
           Y           -0.01126   0.99938   0.03332
           Z            0.00288  -0.03329   0.99944
 This molecule is an asymmetric top.
 Rotational symmetry number  1.
 Warning -- assumption of classical behavior for rotation
           may cause significant error
 Rotational temperatures (Kelvin)      0.07724     0.01908     0.01695
 Rotational constants (GHZ):           1.60934     0.39749     0.35312
 Zero-point vibrational energy     564361.2 (Joules/Mol)
                                  134.88556 (Kcal/Mol)
 Warning -- explicit consideration of  20 degrees of freedom as
           vibrations may cause significant error
 Vibrational temperatures:     58.49    73.91   109.67   112.85   230.98
          (Kelvin)            276.24   298.06   377.18   385.46   407.64
                              472.76   579.63   589.65   595.08   654.54
                              676.06   693.00   726.87   808.75   888.88
                              953.96  1009.30  1058.13  1165.87  1171.74
                             1211.58  1282.20  1302.63  1320.93  1376.15
                             1418.24  1482.30  1496.62  1515.89  1594.92
                             1633.15  1661.76  1695.75  1733.01  1755.85
                             1759.30  1806.01  1860.29  1882.02  1920.57
                             1960.80  1972.49  2004.36  2035.00  2044.07
                             2110.59  2154.88  2159.94  2165.53  2174.86
                             2186.38  2195.38  2323.78  2494.69  4336.66
                             4369.47  4388.60  4395.32  4469.66  4470.98
                             4510.17  4553.47  4553.99  4605.74  4918.61
                             4992.14  5122.66

 Zero-point correction=                           0.214954 (Hartree/Particle)
 Thermal correction to Energy=                    0.227885
 Thermal correction to Enthalpy=                  0.228829
 Thermal correction to Gibbs Free Energy=         0.174729
 Sum of electronic and zero-point Energies=          -1024.350521
 Sum of electronic and thermal Energies=             -1024.337590
 Sum of electronic and thermal Enthalpies=           -1024.336646
 Sum of electronic and thermal Free Energies=        -1024.390746

                     E (Thermal)             CV                S
                      KCal/Mol        Cal/Mol-Kelvin    Cal/Mol-Kelvin
 Total                  143.000             48.822            113.863
 Electronic               0.000              0.000              0.000
 Translational            0.889              2.981             41.888
 Rotational               0.889              2.981             31.632
 Vibrational            141.222             42.861             40.344
 Vibration     1          0.594              1.981              5.227
 Vibration     2          0.596              1.977              4.764
 Vibration     3          0.599              1.965              3.986
 Vibration     4          0.600              1.964              3.930
 Vibration     5          0.622              1.891              2.543
 Vibration     6          0.634              1.851              2.208
 Vibration     7          0.641              1.830              2.069
 Vibration     8          0.669              1.742              1.647
 Vibration     9          0.673              1.732              1.610
 Vibration    10          0.682              1.705              1.514
 Vibration    11          0.712              1.618              1.267
 Vibration    12          0.768              1.464              0.952
 Vibration    13          0.774              1.449              0.927
 Vibration    14          0.777              1.441              0.914
 Vibration    15          0.813              1.350              0.781
 Vibration    16          0.827              1.317              0.738
 Vibration    17          0.838              1.291              0.706
 Vibration    18          0.860              1.238              0.645
 Vibration    19          0.918              1.113              0.520
 Vibration    20          0.978              0.994              0.420

 Optimization completed.
    -- Stationary point found.
 Normal termination of Gaussian 16 at Wed Dec  9 23:46:21 2020.

 ----------------------------------------------------------------------
 # B3LYP/6-311++G(d,p) empiricaldispersion=gd3bj scf=xqc pop=npa geom=c
 heck
 ----------------------------------------------------------------------

 --------------------------------------
 CID_82507323_JID_3520_Energie_neutraal
 --------------------------------------
 Structure from the checkpoint file:  "JID_3520.chk"
 Charge =  0 Multiplicity = 1

 SCF Done:  E(RB3LYP) =  -1024.78562423     A.U. after   14 cycles
 Normal termination of Gaussian 16 at Wed Dec  9 23:48:43 2020.

 ----------------------------------------------------------------------
 # B3LYP/6-311++G(d,p) empiricaldispersion=gd3bj scf=xqc pop=npa geom=c
 heck
 ----------------------------------------------------------------------

 ------------------------------------
 CID_82507323_JID_3520_Energie_kation
 ------------------------------------
 Structure from the checkpoint file:  "JID_3520.chk"
 Charge =  1 Multiplicity = 2

 SCF Done:  E(UB3LYP) =  -1024.46776150     A.U. after   25 cycles
 Normal termination of Gaussian 16 at Wed Dec  9 23:54:13 2020.
 Gaussian 16:  ES64L-G16RevA.03 25-Dec-2016

 ----------------------------------------------------------------------
 # B3LYP/6-311++G(d,p) empiricaldispersion=gd3bj scf=xqc pop=npa geom=c
 heck
 ----------------------------------------------------------------------

 -----------------------------------
 CID_82507323_JID_3520_Energie_anion
 -----------------------------------
 Structure from the checkpoint file:  "JID_3520.chk"
 Charge = -1 Multiplicity = 2

                         Standard orientation:
 ---------------------------------------------------------------------
 Center     Atomic      Atomic             Coordinates (Angstroms)
 Number     Number       Type             X           Y           Z
 ---------------------------------------------------------------------
      1          6           0       -2.819096   -1.481693   -0.418061
      2          6           0       -1.381171   -1.143520   -0.000049
      3          7           0       -1.132809    0.292425   -0.169406
      4          6           0       -2.115710    1.146484    0.510784
      5          6           0       -3.534202    0.761621    0.078228
      6          7           0       -3.836185   -0.661803    0.236906
      7          6           0        0.051121    0.855792   -0.525565
      8          8           0        0.304406    2.051950   -0.354331
      9          6           0        1.135982   -0.019616   -1.142537
     10         16           0        2.367146   -0.389412    0.144205
     11          8           0        1.614863   -0.754426    1.356129
     12          8           0        3.375359   -1.311897   -0.375830
     13          7           0        3.071527    1.142987    0.246736
     14          1           0       -2.917418   -1.335809   -1.501658
     15          1           0       -3.019316   -2.537532   -0.207057
     16          1           0       -0.673639   -1.727157   -0.587356
     17          1           0       -1.213700   -1.404202    1.054633
     18          1           0       -2.000997    1.017693    1.598341
     19          1           0       -1.881923    2.183152    0.269468
     20          1           0       -3.665638    1.015274   -0.981470
     21          1           0       -4.263150    1.346339    0.649187
     22          1           0       -3.861983   -0.890666    1.230732
     23          1           0        0.823383   -0.988038   -1.530295
     24          1           0        1.644250    0.543367   -1.925980
     25          1           0        2.327857    1.836858    0.375974
     26          1           0        3.731641    1.156623    1.024018
 ---------------------------------------------------------------------

 SCF Done:  E(UB3LYP) =  -1024.77762322     A.U. after   33 cycles
 SCF Done:  E(UB3LYP) =  -1024.77762322     a.u. after    1 cycles

 The electronic state is 2-A.
 Alpha  occ. eigenvalues --  -88.97134 -19.02654 -19.02281 -18.98743 -14.25218
 Alpha  occ. eigenvalues --  -14.24641 -14.19476 -10.17129 -10.11923 -10.10285
 Alpha  occ. eigenvalues --  -10.09554 -10.09155 -10.09128  -8.03384  -5.99666
 Alpha  occ. eigenvalues --   -5.99594  -5.99486  -1.02693  -0.94243  -0.91454
 Alpha  occ. eigenvalues --   -0.84996  -0.82488  -0.79591  -0.69399  -0.66633
 Alpha  occ. eigenvalues --   -0.60896  -0.55399  -0.53618  -0.50734  -0.46016
 Alpha  occ. eigenvalues --   -0.45015  -0.43954  -0.41127  -0.38781  -0.37819
 Alpha  occ. eigenvalues --   -0.37004  -0.36377  -0.35528  -0.35193  -0.33550
 Alpha  occ. eigenvalues --   -0.32398  -0.31243  -0.29333  -0.28539  -0.26685
 Alpha  occ. eigenvalues --   -0.25871  -0.25141  -0.24895  -0.24683  -0.22576
 Alpha  occ. eigenvalues --   -0.21544  -0.19247  -0.16922  -0.15810  -0.12194
 Alpha  occ. eigenvalues --    0.04478
 Alpha virt. eigenvalues --    0.06720   0.07413   0.07960   0.08156   0.09591
 Alpha virt. eigenvalues --    0.10137   0.10766   0.10984   0.11662   0.12602
 Alpha virt. eigenvalues --    0.13094   0.13464   0.14384   0.14981   0.15122

  Beta  occ. eigenvalues --  -88.97119 -19.02640 -19.02274 -18.98615 -14.25217
  Beta  occ. eigenvalues --  -14.24670 -14.19444 -10.16935 -10.11915 -10.10250
  Beta  occ. eigenvalues --  -10.09532 -10.09128 -10.09096  -8.03369  -5.99655
  Beta  occ. eigenvalues --   -5.99584  -5.99450  -1.02659  -0.93990  -0.91433
  Beta  occ. eigenvalues --   -0.84940  -0.82480  -0.79524  -0.69271  -0.66572
  Beta  occ. eigenvalues --   -0.60780  -0.55314  -0.53524  -0.50610  -0.45919
  Beta  occ. eigenvalues --   -0.44935  -0.43849  -0.41009  -0.38647  -0.37734
  Beta  occ. eigenvalues --   -0.36919  -0.36329  -0.35436  -0.35134  -0.33495
  Beta  occ. eigenvalues --   -0.32299  -0.31109  -0.29228  -0.28094  -0.26583
  Beta  occ. eigenvalues --   -0.25823  -0.25071  -0.24848  -0.24644  -0.22478
  Beta  occ. eigenvalues --   -0.21495  -0.19224  -0.16781  -0.15636  -0.12109
  Beta virt. eigenvalues --    0.06716   0.07430   0.08324   0.08820   0.09098
  Beta virt. eigenvalues --    0.10089   0.10768   0.11161   0.11593   0.11912
  Beta virt. eigenvalues --    0.12872   0.13075   0.13801   0.14687   0.15155

 Mulliken charges and spin densities:
               1          2
     1  C    2.057901  -2.726505
     2  C   -0.864352   0.719998
     3  N    0.054267   0.135055
     4  C   -0.058413  -0.025086
     5  C    0.842858  -1.288499
     6  N   -0.483547   0.399128
     7  C   -0.234916   0.373545
     8  O   -0.366053   0.044796
     9  C   -0.530940  -0.368382
    10  S    0.484897  -0.145105
    11  O   -0.195383   0.017948
    12  O   -0.205625   0.010086
    13  N   -0.484487   0.022138
    14  H   -0.162034   0.325538
    15  H   -0.524081   0.729733
    16  H    0.095659   0.041170
    17  H   -0.107354   0.335384
    18  H   -0.162017   0.343355
    19  H    0.045787   0.144185
    20  H    0.056823   0.098111
    21  H   -0.424286   0.614918
    22  H   -0.241116   0.484141
    23  H   -0.104861   0.333963
    24  H   -0.056390   0.360593
    25  H    0.309750  -0.005176
    26  H    0.257913   0.024967
 Sum of Mulliken charges =  -1.00000   1.00000

 Dipole moment (field-independent basis, Debye):
    X=              5.8787    Y=              3.3474    Z=             -1.1846  Tot=              6.8679
 Quadrupole moment (field-independent basis, Debye-Ang):
   XX=           -156.1359   YY=           -125.3500   ZZ=           -114.2908
   XY=              1.4909   XZ=             14.3598   YZ=              2.7898

 Summary of Natural Population Analysis:

                                       Natural Population
                Natural  -----------------------------------------------
    Atom  No    Charge         Core      Valence    Rydberg      Total
 -----------------------------------------------------------------------
      C    1   -0.09278      0.99962     2.08094    0.01222     3.09278
      C    2   -0.09125      0.99960     2.08067    0.01099     3.09125
      N    3   -0.25108      0.99963     2.74033    0.01111     3.75108
      C    4   -0.09607      0.99960     2.08589    0.01058     3.09607
      C    5   -0.09312      0.99962     2.08157    0.01192     3.09312
      N    6   -0.33613      0.99976     2.82236    0.01401     3.83613
      C    7    0.35784      0.99963     1.61792    0.02461     2.64216
      O    8   -0.33205      0.99988     3.32674    0.00543     4.33205
      C    9   -0.32791      0.99955     2.31562    0.01274     3.32791
      S   10    1.08425      4.99939     1.81600    0.10035     6.91575
      O   11   -0.46080      0.99991     3.45485    0.00604     4.46080
      O   12   -0.45843      0.99990     3.45215    0.00638     4.45843
      N   13   -0.51835      0.99978     3.00954    0.00904     4.01835
      H   14    0.08961      0.00000     0.40883    0.00156     0.41039
      H   15    0.10166      0.00000     0.39630    0.00204     0.39834
      H   16    0.10057      0.00000     0.39750    0.00192     0.39943
      H   17    0.10016      0.00000     0.39773    0.00211     0.39984
      H   18    0.09477      0.00000     0.40335    0.00188     0.40523
      H   19    0.11530      0.00000     0.38359    0.00111     0.38470
      H   20    0.08986      0.00000     0.40872    0.00142     0.41014
      H   21    0.10017      0.00000     0.39826    0.00157     0.39983
      H   22    0.17501      0.00000     0.31922    0.00577     0.32499
      H   23    0.12279      0.00000     0.37578    0.00143     0.37721
      H   24    0.12871      0.00000     0.36991    0.00138     0.37129
      H   25    0.20848      0.00000     0.28939    0.00213     0.29152
      H   26    0.18878      0.00000     0.30950    0.00172     0.31122
 =======================================================================
   * Total *    0.00000     16.99588    37.74267    0.26145    55.00000

 Normal termination of Gaussian 16 at Thu Dec 10 00:01:33 2020.
