 Gaussian 16, Revision A.03,

 -----------------------------------------------------------
 # opt freq B3LYP/6-31G(d) empiricaldispersion=gd3bj scf=xqc
 -----------------------------------------------------------

 ------------------------------
 CID_64868235_JID_3018_neutraal
 ------------------------------
 Symbolic Z-matrix:
 Charge =  0 Multiplicity = 1

 SCF Done:  E(RB3LYP) =  -615.158510106     A.U. after   15 cycles
 SCF Done:  E(RB3LYP) =  -615.160391694     A.U. after   14 cycles
 SCF Done:  E(RB3LYP) =  -615.159778705     A.U. after   15 cycles
 SCF Done:  E(RB3LYP) =  -615.161294433     A.U. after   13 cycles
 SCF Done:  E(RB3LYP) =  -615.161973801     A.U. after   12 cycles
 SCF Done:  E(RB3LYP) =  -615.165308887     A.U. after   12 cycles
 SCF Done:  E(RB3LYP) =  -615.165724972     A.U. after   12 cycles
 SCF Done:  E(RB3LYP) =  -615.165723387     A.U. after   13 cycles
 SCF Done:  E(RB3LYP) =  -615.166874673     A.U. after   13 cycles
 SCF Done:  E(RB3LYP) =  -615.167218372     A.U. after   13 cycles
 SCF Done:  E(RB3LYP) =  -615.167448577     A.U. after   10 cycles
 SCF Done:  E(RB3LYP) =  -615.167450669     A.U. after   10 cycles
 SCF Done:  E(RB3LYP) =  -615.167450940     A.U. after    8 cycles
 SCF Done:  E(RB3LYP) =  -615.167451061     A.U. after    7 cycles
 SCF Done:  E(RB3LYP) =  -615.167451076     A.U. after    6 cycles
 Optimization completed.
    -- Stationary point found.
 Normal termination of Gaussian 16 at Wed Dec  9 22:28:15 2020.

 --------------------------------------------------------------------
 #N Geom=AllCheck Guess=TCheck SCRF=Check GenChk RB3LYP/6-31G(d) Freq
 --------------------------------------------------------------------

 Structure from the checkpoint file:  "JID_3018.chk"
 ------------------------------
 CID_64868235_JID_3018_neutraal
 ------------------------------
 Charge =  0 Multiplicity = 1

 SCF Done:  E(RB3LYP) =  -615.167451076     A.U. after    1 cycles

  Exact polarizability: 111.350   0.257 108.460  -8.766   1.938  94.634
 Approx polarizability: 149.626   2.755 170.444 -20.499   2.886 152.486

                      1                      2                      3
                      A                      A                      A
 Frequencies --     23.5562                70.8532                86.9804
 Red. masses --      4.0338                 4.7244                 2.8014
 Frc consts  --      0.0013                 0.0140                 0.0125
 IR Inten    --      0.4290                 1.8000                 1.4344

                      4                      5                      6
                      A                      A                      A
 Frequencies --     97.1221               101.0919               164.1422
 Red. masses --      4.7058                 2.0609                 4.1363
 Frc consts  --      0.0262                 0.0124                 0.0657
 IR Inten    --      0.8689                 0.0555                 3.0292

                      7                      8                      9
                      A                      A                      A
 Frequencies --    189.7209               207.0366               225.7773
 Red. masses --      3.6859                 1.2518                 2.8137
 Frc consts  --      0.0782                 0.0316                 0.0845
 IR Inten    --      1.5319                 2.0125                 0.0953

                     10                     11                     12
                      A                      A                      A
 Frequencies --    270.0282               311.9396               335.5473
 Red. masses --      1.3076                 2.8203                 5.3919
 Frc consts  --      0.0562                 0.1617                 0.3577
 IR Inten    --      1.0776                 2.9682                 5.2121

                     13                     14                     15
                      A                      A                      A
 Frequencies --    355.8664               381.2671               404.7638
 Red. masses --      2.0703                 3.7443                 3.6204
 Frc consts  --      0.1545                 0.3207                 0.3495
 IR Inten    --     11.2450                 2.6524                 3.5047

                     16                     17                     18
                      A                      A                      A
 Frequencies --    510.7119               534.5285               616.3610
 Red. masses --      3.6940                 3.4119                 3.4995
 Frc consts  --      0.5677                 0.5744                 0.7833
 IR Inten    --      3.8598                 6.8272                 6.4694

                     19                     20                     21
                      A                      A                      A
 Frequencies --    651.3774               675.5231               744.2340
 Red. masses --      4.7872                 2.5483                 2.6611
 Frc consts  --      1.1967                 0.6851                 0.8684
 IR Inten    --      2.1921                 4.0297                 3.5164

                     22                     23                     24
                      A                      A                      A
 Frequencies --    746.2184               779.0151               820.0212
 Red. masses --      1.3652                 3.2889                 1.4232
 Frc consts  --      0.4479                 1.1760                 0.5639
 IR Inten    --     33.7854                16.0844                29.7804

                     25                     26                     27
                      A                      A                      A
 Frequencies --    833.8889               869.4618               878.6153
 Red. masses --      1.3420                 2.8142                 1.3370
 Frc consts  --      0.5498                 1.2534                 0.6081
 IR Inten    --      8.4841                19.6464                 6.0654

                     28                     29                     30
                      A                      A                      A
 Frequencies --    910.1871               937.9115               985.7242
 Red. masses --      6.0793                 3.1642                 2.2935
 Frc consts  --      2.9673                 1.6400                 1.3130
 IR Inten    --      6.1347                16.0221                39.7228

                     31                     32                     33
                      A                      A                      A
 Frequencies --   1001.9426              1010.4354              1025.9327
 Red. masses --      1.8912                 1.7757                 1.7493
 Frc consts  --      1.1186                 1.0682                 1.0848
 IR Inten    --      9.7348                 2.2728                17.6139

                     34                     35                     36
                      A                      A                      A
 Frequencies --   1042.9375              1048.1613              1104.8067
 Red. masses --      1.9309                 1.3709                 2.3103
 Frc consts  --      1.2375                 0.8874                 1.6615
 IR Inten    --     57.4309                12.0647                15.6384

                     37                     38                     39
                      A                      A                      A
 Frequencies --   1123.5017              1135.1402              1142.1263
 Red. masses --      2.6969                 2.4810                 2.3895
 Frc consts  --      2.0057                 1.8835                 1.8364
 IR Inten    --      0.9941                26.8018                57.6926

                     40                     41                     42
                      A                      A                      A
 Frequencies --   1189.2007              1211.3181              1236.8494
 Red. masses --      1.9467                 2.8300                 2.3445
 Frc consts  --      1.6220                 2.4465                 2.1131
 IR Inten    --     14.3417                64.6678                 6.0949

                     43                     44                     45
                      A                      A                      A
 Frequencies --   1266.3801              1294.8107              1318.0849
 Red. masses --      2.0292                 1.2362                 1.2814
 Frc consts  --      1.9174                 1.2211                 1.3117
 IR Inten    --     14.1678                 0.2340                 2.4738

                     46                     47                     48
                      A                      A                      A
 Frequencies --   1336.6458              1371.6396              1395.7477
 Red. masses --      1.3653                 1.2170                 1.7594
 Frc consts  --      1.4372                 1.3490                 2.0194
 IR Inten    --      0.4913                 1.3917                13.8441

                     49                     50                     51
                      A                      A                      A
 Frequencies --   1417.7079              1433.4252              1438.7544
 Red. masses --      1.3184                 1.2328                 2.5845
 Frc consts  --      1.5612                 1.4924                 3.1521
 IR Inten    --     11.3316                 7.0367                 1.2533

                     52                     53                     54
                      A                      A                      A
 Frequencies --   1442.5752              1481.9289              1512.7110
 Red. masses --      1.2373                 1.0910                 1.1354
 Frc consts  --      1.5170                 1.4116                 1.5308
 IR Inten    --      6.3698                 8.0874                11.9566

                     55                     56                     57
                      A                      A                      A
 Frequencies --   1524.2426              1525.2821              1528.0231
 Red. masses --      1.0406                 1.0473                 1.0495
 Frc consts  --      1.4244                 1.4356                 1.4437
 IR Inten    --      2.9557                 6.8998                 6.4556

                     58                     59                     60
                      A                      A                      A
 Frequencies --   1534.2233              1544.9541              1644.5434
 Red. masses --      1.1042                 3.4244                 6.0975
 Frc consts  --      1.5314                 4.8158                 9.7160
 IR Inten    --      1.6494                17.1807                 1.3729

                     61                     62                     63
                      A                      A                      A
 Frequencies --   1800.6168              3006.8294              3036.3001
 Red. masses --     11.4138                 1.0819                 1.0614
 Frc consts  --     21.8034                 5.7633                 5.7655
 IR Inten    --    105.3033                24.4238                15.9584

                     64                     65                     66
                      A                      A                      A
 Frequencies --   3066.1405              3067.3540              3071.7663
 Red. masses --      1.0919                 1.0416                 1.0382
 Frc consts  --      6.0480                 5.7742                 5.7719
 IR Inten    --      7.3357                25.3179                22.6656

                     67                     68                     69
                      A                      A                      A
 Frequencies --   3088.7516              3135.8687              3140.1610
 Red. masses --      1.0602                 1.1030                 1.1004
 Frc consts  --      5.9593                 6.3908                 6.3930
 IR Inten    --     34.0076                21.8644                13.8578

                     70                     71                     72
                      A                      A                      A
 Frequencies --   3141.6421              3142.3865              3164.1033
 Red. masses --      1.1048                 1.1025                 1.1028
 Frc consts  --      6.4244                 6.4144                 6.5053
 IR Inten    --     13.6158                27.3391                12.3210

                     73                     74                     75
                      A                      A                      A
 Frequencies --   3266.6824              3280.7952              3300.9770
 Red. masses --      1.0906                 1.0975                 1.1050
 Frc consts  --      6.8570                 6.9602                 7.0943
 IR Inten    --      3.2455                 0.3312                 1.5604

 - Thermochemistry -
 -------------------
 Temperature   298.150 Kelvin.  Pressure   1.00000 Atm.
 Atom     1 has atomic number  6 and mass  12.00000

 Molecular mass:   182.09429 amu.
 Principal axes and moments of inertia in atomic units:
                           1         2         3
     Eigenvalues --  1539.476742934.912403403.64808
           X            0.99955   0.02899   0.00747
           Y           -0.02890   0.99951  -0.01196
           Z           -0.00781   0.01174   0.99990
 This molecule is an asymmetric top.
 Rotational symmetry number  1.
 Warning -- assumption of classical behavior for rotation
           may cause significant error
 Rotational temperatures (Kelvin)      0.05626     0.02951     0.02545
 Rotational constants (GHZ):           1.17231     0.61492     0.53024
 Zero-point vibrational energy     596421.5 (Joules/Mol)
                                  142.54815 (Kcal/Mol)
 Warning -- explicit consideration of  18 degrees of freedom as
           vibrations may cause significant error
 Vibrational temperatures:     33.89   101.94   125.15   139.74   145.45
          (Kelvin)            236.16   272.97   297.88   324.84   388.51
                              448.81   482.78   512.01   548.56   582.36
                              734.80   769.07   886.81   937.19   971.93
                             1070.79  1073.64  1120.83  1179.83  1199.78
                             1250.96  1264.13  1309.56  1349.45  1418.24
                             1441.57  1453.79  1476.09  1500.55  1508.07
                             1589.57  1616.47  1633.21  1643.26  1710.99
                             1742.82  1779.55  1822.04  1862.94  1896.43
                             1923.14  1973.48  2008.17  2039.77  2062.38
                             2070.05  2075.54  2132.17  2176.45  2193.05
                             2194.54  2198.48  2207.41  2222.84  2366.13
                             2590.69  4326.16  4368.56  4411.49  4413.24
                             4419.59  4444.02  4511.82  4517.99  4520.12
                             4521.19  4552.44  4700.03  4720.33  4749.37

 Zero-point correction=                           0.227165 (Hartree/Particle)
 Thermal correction to Energy=                    0.240336
 Thermal correction to Enthalpy=                  0.241280
 Thermal correction to Gibbs Free Energy=         0.186683
 Sum of electronic and zero-point Energies=           -614.940286
 Sum of electronic and thermal Energies=              -614.927115
 Sum of electronic and thermal Enthalpies=            -614.926171
 Sum of electronic and thermal Free Energies=         -614.980768

                     E (Thermal)             CV                S
                      KCal/Mol        Cal/Mol-Kelvin    Cal/Mol-Kelvin
 Total                  150.813             48.777            114.909
 Electronic               0.000              0.000              0.000
 Translational            0.889              2.981             41.505
 Rotational               0.889              2.981             31.109
 Vibrational            149.036             42.816             42.296
 Vibration     1          0.593              1.985              6.309
 Vibration     2          0.598              1.968              4.130
 Vibration     3          0.601              1.958              3.727
 Vibration     4          0.603              1.951              3.511
 Vibration     5          0.604              1.948              3.433
 Vibration     6          0.623              1.886              2.502
 Vibration     7          0.633              1.854              2.231
 Vibration     8          0.641              1.830              2.070
 Vibration     9          0.650              1.802              1.912
 Vibration    10          0.674              1.728              1.596
 Vibration    11          0.700              1.651              1.352
 Vibration    12          0.717              1.605              1.233
 Vibration    13          0.731              1.563              1.140
 Vibration    14          0.751              1.510              1.034
 Vibration    15          0.770              1.460              0.945
 Vibration    16          0.866              1.226              0.632
 Vibration    17          0.890              1.174              0.577
 Vibration    18          0.976              0.997              0.422

 Optimization completed.
    -- Stationary point found.
 Normal termination of Gaussian 16 at Wed Dec  9 22:35:30 2020.

 ----------------------------------------------------------------------
 # B3LYP/6-311++G(d,p) empiricaldispersion=gd3bj scf=xqc pop=npa geom=c
 heck
 ----------------------------------------------------------------------

 --------------------------------------
 CID_64868235_JID_3018_Energie_neutraal
 --------------------------------------
 Structure from the checkpoint file:  "JID_3018.chk"
 Charge =  0 Multiplicity = 1

 SCF Done:  E(RB3LYP) =  -615.344570724     A.U. after   15 cycles
 Normal termination of Gaussian 16 at Wed Dec  9 22:38:18 2020.

 ----------------------------------------------------------------------
 # B3LYP/6-311++G(d,p) empiricaldispersion=gd3bj scf=xqc pop=npa geom=c
 heck
 ----------------------------------------------------------------------

 ------------------------------------
 CID_64868235_JID_3018_Energie_kation
 ------------------------------------
 Structure from the checkpoint file:  "JID_3018.chk"
 Charge =  1 Multiplicity = 2

 SCF Done:  E(UB3LYP) =  -615.034698208     A.U. after   25 cycles
 Normal termination of Gaussian 16 at Wed Dec  9 22:44:13 2020.
 Gaussian 16:  ES64L-G16RevA.03 25-Dec-2016

 ----------------------------------------------------------------------
 # B3LYP/6-311++G(d,p) empiricaldispersion=gd3bj scf=xqc pop=npa geom=c
 heck
 ----------------------------------------------------------------------

 -----------------------------------
 CID_64868235_JID_3018_Energie_anion
 -----------------------------------
 Structure from the checkpoint file:  "JID_3018.chk"
 Charge = -1 Multiplicity = 2

                         Standard orientation:
 ---------------------------------------------------------------------
 Center     Atomic      Atomic             Coordinates (Angstroms)
 Number     Number       Type             X           Y           Z
 ---------------------------------------------------------------------
      1          6           0        3.322395    1.587423   -0.116249
      2          6           0        2.367977    0.722772    0.702100
      3          6           0        1.641987   -0.317335   -0.138735
      4          8           0        1.758597   -0.346810   -1.350482
      5          6           0        0.801208   -1.363635    0.609875
      6          6           0        0.139790   -0.847702    1.898942
      7          8           0       -0.106687   -2.082422   -0.207955
      8          6           0       -0.906455   -1.365326   -1.162581
      9          6           0       -1.498066   -0.094460   -0.668996
     10          6           0       -1.154558    1.218072   -0.834582
     11          6           0       -2.049581    1.986226   -0.019924
     12          6           0       -2.874035    1.084659    0.584156
     13          8           0       -2.557172   -0.183372    0.200148
     14          1           0        4.089900    0.975086   -0.598816
     15          1           0        3.816901    2.326238    0.522283
     16          1           0        2.784613    2.115889   -0.908403
     17          1           0        2.894605    0.210670    1.519795
     18          1           0        1.602905    1.339836    1.193398
     19          1           0        1.537307   -2.126995    0.908134
     20          1           0       -0.476380    0.037781    1.729578
     21          1           0       -0.499178   -1.639770    2.297387
     22          1           0        0.893785   -0.602099    2.653774
     23          1           0       -0.313485   -1.144626   -2.052405
     24          1           0       -1.699080   -2.072417   -1.423662
     25          1           0       -0.350730    1.581842   -1.458335
     26          1           0       -2.077867    3.060874    0.092768
     27          1           0       -3.705165    1.174349    1.266777
 ---------------------------------------------------------------------

 SCF Done:  E(UB3LYP) =  -615.332846585     A.U. after   33 cycles
 SCF Done:  E(UB3LYP) =  -615.332846585     a.u. after    1 cycles

 The electronic state is 2-A.
 Alpha  occ. eigenvalues --  -19.09203 -19.01957 -18.99406 -10.13671 -10.12642
 Alpha  occ. eigenvalues --  -10.12639 -10.12218 -10.11968 -10.07739 -10.07593
 Alpha  occ. eigenvalues --  -10.06822 -10.05799 -10.05249  -1.01646  -0.94099
 Alpha  occ. eigenvalues --   -0.91677  -0.70747  -0.69042  -0.67369  -0.64776
 Alpha  occ. eigenvalues --   -0.58181  -0.55638  -0.51367  -0.50770  -0.46116
 Alpha  occ. eigenvalues --   -0.44159  -0.41959  -0.39343  -0.37687  -0.35977
 Alpha  occ. eigenvalues --   -0.35579  -0.34244  -0.33937  -0.32652  -0.31311
 Alpha  occ. eigenvalues --   -0.30499  -0.30329  -0.28506  -0.28305  -0.27703
 Alpha  occ. eigenvalues --   -0.26657  -0.25736  -0.25066  -0.23618  -0.21950
 Alpha  occ. eigenvalues --   -0.18949  -0.16740  -0.13714  -0.13176   0.04510
 Alpha virt. eigenvalues --    0.06316   0.07187   0.08120   0.08656   0.08925
 Alpha virt. eigenvalues --    0.09154   0.10129   0.10482   0.11060   0.11941
 Alpha virt. eigenvalues --    0.12118   0.12897   0.13375   0.13808   0.14031

  Beta  occ. eigenvalues --  -19.09191 -19.01947 -18.99282 -10.13516 -10.12644
  Beta  occ. eigenvalues --  -10.12604 -10.12216 -10.11971 -10.07725 -10.07579
  Beta  occ. eigenvalues --  -10.06813 -10.05782 -10.05214  -1.01622  -0.93952
  Beta  occ. eigenvalues --   -0.91539  -0.70716  -0.68963  -0.67302  -0.64731
  Beta  occ. eigenvalues --   -0.58140  -0.55468  -0.51296  -0.50739  -0.46060
  Beta  occ. eigenvalues --   -0.44080  -0.41803  -0.39238  -0.37579  -0.35905
  Beta  occ. eigenvalues --   -0.35443  -0.34199  -0.33852  -0.32603  -0.31277
  Beta  occ. eigenvalues --   -0.30461  -0.30271  -0.28428  -0.28180  -0.27642
  Beta  occ. eigenvalues --   -0.26536  -0.25573  -0.25002  -0.23288  -0.21854
  Beta  occ. eigenvalues --   -0.18874  -0.16704  -0.13627  -0.13080
  Beta virt. eigenvalues --    0.06958   0.07674   0.07784   0.08667   0.08910
  Beta virt. eigenvalues --    0.09427   0.09884   0.10691   0.10810   0.11361
  Beta virt. eigenvalues --    0.12205   0.12277   0.12933   0.13699   0.14030

 Mulliken charges and spin densities:
               1          2
     1  C    0.696486  -1.340219
     2  C   -0.759469   0.660197
     3  C    0.584983  -0.361600
     4  O   -0.294046   0.041353
     5  C   -0.460741   0.602398
     6  C    0.507133  -1.262989
     7  O   -0.072392  -0.025909
     8  C    0.334038  -1.268959
     9  C    0.323676  -0.414026
    10  C   -0.603136   1.166024
    11  C    0.881521  -1.590373
    12  C   -0.102498   0.306887
    13  O    0.008229   0.023420
    14  H    0.069280   0.084999
    15  H   -0.267239   0.400715
    16  H    0.039537   0.100666
    17  H   -0.379552   0.549453
    18  H    0.086396   0.088584
    19  H   -0.399688   0.648981
    20  H    0.465907  -0.324237
    21  H   -0.152061   0.327833
    22  H   -0.399502   0.545937
    23  H    0.202796   0.010705
    24  H    0.092753   0.062191
    25  H    0.147151   0.058074
    26  H   -0.740962   0.910563
    27  H   -0.808601   0.999332
 Sum of Mulliken charges =  -1.00000   1.00000

 Dipole moment (field-independent basis, Debye):
    X=             -1.6574    Y=             -0.8831    Z=             -4.1213  Tot=              4.5290
 Quadrupole moment (field-independent basis, Debye-Ang):
   XX=           -136.4965   YY=           -121.3248   ZZ=           -115.7857
   XY=              9.4488   XZ=             -0.2080   YZ=              0.1072

 Summary of Natural Population Analysis:

                                       Natural Population
                Natural  -----------------------------------------------
    Atom  No    Charge         Core      Valence    Rydberg      Total
 -----------------------------------------------------------------------
      C    1   -0.28461      0.99967     2.27798    0.00697     3.28461
      C    2   -0.24183      0.99959     2.23458    0.00765     3.24183
      C    3    0.30477      0.99965     1.67334    0.02225     2.69523
      O    4   -0.29033      0.99987     3.28394    0.00652     4.29033
      C    5    0.02196      0.99950     1.96200    0.01654     2.97804
      C    6   -0.29902      0.99964     2.29275    0.00663     3.29902
      O    7   -0.29730      0.99989     3.28791    0.00950     4.29730
      C    8   -0.03628      0.99949     2.02470    0.01208     3.03628
      C    9    0.12712      0.99946     1.85804    0.01537     2.87288
      C   10   -0.14099      0.99948     2.13251    0.00900     3.14099
      C   11   -0.15307      0.99957     2.14372    0.00978     3.15307
      C   12    0.06518      0.99951     1.92049    0.01482     2.93482
      O   13   -0.23473      0.99986     3.22632    0.00855     4.23473
      H   14    0.10013      0.00000     0.39904    0.00083     0.39987
      H   15    0.09709      0.00000     0.40203    0.00088     0.40291
      H   16    0.10025      0.00000     0.39873    0.00101     0.39975
      H   17    0.11183      0.00000     0.38433    0.00384     0.38817
      H   18    0.10971      0.00000     0.38884    0.00145     0.39029
      H   19    0.10682      0.00000     0.39028    0.00290     0.39318
      H   20    0.10114      0.00000     0.39634    0.00251     0.39886
      H   21    0.10560      0.00000     0.39324    0.00116     0.39440
      H   22    0.10381      0.00000     0.39445    0.00174     0.39619
      H   23    0.10375      0.00000     0.39505    0.00120     0.39625
      H   24    0.09535      0.00000     0.40340    0.00124     0.40465
      H   25    0.11529      0.00000     0.38371    0.00100     0.38471
      H   26    0.11098      0.00000     0.38763    0.00139     0.38902
      H   27    0.09737      0.00000     0.40106    0.00157     0.40263
 =======================================================================
   * Total *    0.00000     12.99519    35.83643    0.16839    49.00000

 Normal termination of Gaussian 16 at Wed Dec  9 22:52:42 2020.
