 Gaussian 16, Revision A.03,

 -----------------------------------------------------------
 # opt freq B3LYP/6-31G(d) empiricaldispersion=gd3bj scf=xqc
 -----------------------------------------------------------

 -------------------------------
 CID_137400058_JID_1159_neutraal
 -------------------------------
 Symbolic Z-matrix:
 Charge =  0 Multiplicity = 1

 SCF Done:  E(RB3LYP) =  -837.254700518     A.U. after   15 cycles
 SCF Done:  E(RB3LYP) =  -837.259277669     A.U. after   12 cycles
 SCF Done:  E(RB3LYP) =  -837.259678768     A.U. after   11 cycles
 SCF Done:  E(RB3LYP) =  -837.259710805     A.U. after   10 cycles
 SCF Done:  E(RB3LYP) =  -837.259716772     A.U. after    8 cycles
 Optimization completed.
    -- Stationary point found.
 Normal termination of Gaussian 16 at Tue Dec  8 19:11:12 2020.

 --------------------------------------------------------------------
 #N Geom=AllCheck Guess=TCheck SCRF=Check GenChk RB3LYP/6-31G(d) Freq
 --------------------------------------------------------------------

 Structure from the checkpoint file:  "JID_1159.chk"
 -------------------------------
 CID_137400058_JID_1159_neutraal
 -------------------------------
 Charge =  0 Multiplicity = 1

 SCF Done:  E(RB3LYP) =  -837.259716772     A.U. after    1 cycles

  Exact polarizability: 166.275  -1.608 108.631   0.003   0.002  46.512
 Approx polarizability: 260.889 -11.857 204.545   0.009   0.002  72.192

                      1                      2                      3
                      A                      A                      A
 Frequencies --     80.6471               137.2425               195.1649
 Red. masses --      3.6955                 3.1029                 1.2923
 Frc consts  --      0.0142                 0.0344                 0.0290
 IR Inten    --      3.6235                 1.7989                 1.1451

                      4                      5                      6
                      A                      A                      A
 Frequencies --    205.9302               207.1504               328.3941
 Red. masses --      4.4998                 3.8635                 5.8084
 Frc consts  --      0.1124                 0.0977                 0.3691
 IR Inten    --      0.0309                 5.6498                 2.4070

                      7                      8                      9
                      A                      A                      A
 Frequencies --    352.5749               376.3733               438.4638
 Red. masses --      4.8119                 7.5728                 3.9057
 Frc consts  --      0.3524                 0.6320                 0.4424
 IR Inten    --      0.1949                 1.1022                 2.0439

                     10                     11                     12
                      A                      A                      A
 Frequencies --    484.7230               537.4420               579.8138
 Red. masses --      3.5115                 8.0529                 5.9699
 Frc consts  --      0.4861                 1.3705                 1.1825
 IR Inten    --      1.8580                 1.7901                 3.6189

                     13                     14                     15
                      A                      A                      A
 Frequencies --    661.8168               679.1714               700.8628
 Red. masses --      2.9639                 6.7171                 7.0585
 Frc consts  --      0.7649                 1.8255                 2.0428
 IR Inten    --     17.7207                15.6789                 4.6449

                     16                     17                     18
                      A                      A                      A
 Frequencies --    734.3472               774.8948               802.7267
 Red. masses --      2.5847                 2.0796                 6.6486
 Frc consts  --      0.8212                 0.7357                 2.5242
 IR Inten    --      4.9830                19.2042                 1.6092

                     19                     20                     21
                      A                      A                      A
 Frequencies --    842.5369               866.0433               907.4409
 Red. masses --      4.6700                 1.5108                 1.3165
 Frc consts  --      1.9532                 0.6676                 0.6387
 IR Inten    --     24.5720                31.4353                 2.4018

                     22                     23                     24
                      A                      A                      A
 Frequencies --    929.2074               947.9803              1059.6943
 Red. masses --      1.3633                 3.9414                 4.7514
 Frc consts  --      0.6935                 2.0869                 3.1436
 IR Inten    --      3.6229                 0.0534                59.2540

                     25                     26                     27
                      A                      A                      A
 Frequencies --   1094.4704              1122.9847              1185.9009
 Red. masses --      3.2057                 1.2569                 1.2654
 Frc consts  --      2.2625                 0.9339                 1.0485
 IR Inten    --     16.2914                 5.9158                 0.6064

                     28                     29                     30
                      A                      A                      A
 Frequencies --   1191.0246              1212.1500              1294.1797
 Red. masses --      1.7209                 1.5434                 1.8896
 Frc consts  --      1.4383                 1.3361                 1.8647
 IR Inten    --     77.9100                39.0817                46.1250

                     31                     32                     33
                      A                      A                      A
 Frequencies --   1334.3339              1340.8687              1359.2276
 Red. masses --      2.1725                 4.0857                 3.2818
 Frc consts  --      2.2789                 4.3280                 3.5722
 IR Inten    --    154.9504                 7.4175                 4.1268

                     34                     35                     36
                      A                      A                      A
 Frequencies --   1445.5853              1479.6288              1509.7994
 Red. masses --      2.7825                 2.7170                 1.0492
 Frc consts  --      3.4259                 3.5046                 1.4091
 IR Inten    --    249.4414                12.1198                 4.6547

                     37                     38                     39
                      A                      A                      A
 Frequencies --   1511.6663              1528.4269              1552.9555
 Red. masses --      1.7370                 1.0629                 4.1186
 Frc consts  --      2.3387                 1.4630                 5.8522
 IR Inten    --     44.5920                23.7268                41.9129

                     40                     41                     42
                      A                      A                      A
 Frequencies --   1606.0672              1655.7758              3061.8255
 Red. masses --      7.5193                 6.6959                 1.0300
 Frc consts  --     11.4276                10.8158                 5.6894
 IR Inten    --     29.0850               213.0251                56.7159

                     43                     44                     45
                      A                      A                      A
 Frequencies --   3129.8299              3166.6984              3177.2100
 Red. masses --      1.1068                 1.1059                 1.0911
 Frc consts  --      6.3881                 6.5341                 6.4895
 IR Inten    --     29.9292                32.5739                16.3406

                     46                     47                     48
                      A                      A                      A
 Frequencies --   3224.7326              3228.0996              3264.6952
 Red. masses --      1.0917                 1.0906                 1.0978
 Frc consts  --      6.6887                 6.6957                 6.8940
 IR Inten    --      3.4086                 4.0025                 1.5325

 - Thermochemistry -
 -------------------
 Temperature   298.150 Kelvin.  Pressure   1.00000 Atm.
 Atom     1 has atomic number  6 and mass  12.00000

 Molecular mass:   165.02484 amu.
 Principal axes and moments of inertia in atomic units:
                           1         2         3
     Eigenvalues --   607.604363068.120343664.37259
           X            0.99982   0.01878  -0.00001
           Y           -0.01878   0.99982   0.00000
           Z            0.00001  -0.00000   1.00000
 This molecule is an asymmetric top.
 Rotational symmetry number  1.
 Warning -- assumption of classical behavior for rotation
           may cause significant error
 Rotational temperatures (Kelvin)      0.14255     0.02823     0.02364
 Rotational constants (GHZ):           2.97026     0.58822     0.49251
 Zero-point vibrational energy     355941.5 (Joules/Mol)
                                   85.07207 (Kcal/Mol)
 Warning -- explicit consideration of  12 degrees of freedom as
           vibrations may cause significant error
 Vibrational temperatures:    116.03   197.46   280.80   296.29   298.04
          (Kelvin)            472.49   507.28   541.52   630.85   697.41
                              773.26   834.22   952.21   977.18  1008.39
                             1056.56  1114.90  1154.94  1212.22  1246.04
                             1305.61  1336.92  1363.93  1524.66  1574.70
                             1615.72  1706.25  1713.62  1744.01  1862.04
                             1919.81  1929.21  1955.63  2079.87  2128.86
                             2172.26  2174.95  2199.07  2234.36  2310.77
                             2382.29  4405.28  4503.13  4556.17  4571.30
                             4639.67  4644.52  4697.17

 Zero-point correction=                           0.135571 (Hartree/Particle)
 Thermal correction to Energy=                    0.144570
 Thermal correction to Enthalpy=                  0.145514
 Thermal correction to Gibbs Free Energy=         0.101079
 Sum of electronic and zero-point Energies=           -837.124146
 Sum of electronic and thermal Energies=              -837.115147
 Sum of electronic and thermal Enthalpies=            -837.114203
 Sum of electronic and thermal Free Energies=         -837.158638

                     E (Thermal)             CV                S
                      KCal/Mol        Cal/Mol-Kelvin    Cal/Mol-Kelvin
 Total                   90.719             34.753             93.522
 Electronic               0.000              0.000              0.000
 Translational            0.889              2.981             41.211
 Rotational               0.889              2.981             30.303
 Vibrational             88.942             28.792             22.008
 Vibration     1          0.600              1.962              3.875
 Vibration     2          0.614              1.916              2.842
 Vibration     3          0.636              1.847              2.178
 Vibration     4          0.640              1.831              2.079
 Vibration     5          0.641              1.830              2.069
 Vibration     6          0.712              1.619              1.268
 Vibration     7          0.729              1.570              1.155
 Vibration     8          0.747              1.520              1.054
 Vibration     9          0.799              1.386              0.831
 Vibration    10          0.841              1.284              0.697
 Vibration    11          0.892              1.167              0.571
 Vibration    12          0.936              1.075              0.486

 Optimization completed.
    -- Stationary point found.
 Normal termination of Gaussian 16 at Tue Dec  8 19:14:33 2020.

 ----------------------------------------------------------------------
 # B3LYP/6-311++G(d,p) empiricaldispersion=gd3bj scf=xqc pop=npa geom=c
 heck
 ----------------------------------------------------------------------

 ---------------------------------------
 CID_137400058_JID_1159_Energie_neutraal
 ---------------------------------------
 Structure from the checkpoint file:  "JID_1159.chk"
 Charge =  0 Multiplicity = 1

 SCF Done:  E(RB3LYP) =  -837.401417691     A.U. after   16 cycles
 Normal termination of Gaussian 16 at Tue Dec  8 19:15:51 2020.

 ----------------------------------------------------------------------
 # B3LYP/6-311++G(d,p) empiricaldispersion=gd3bj scf=xqc pop=npa geom=c
 heck
 ----------------------------------------------------------------------

 -------------------------------------
 CID_137400058_JID_1159_Energie_kation
 -------------------------------------
 Structure from the checkpoint file:  "JID_1159.chk"
 Charge =  1 Multiplicity = 2

 SCF Done:  E(UB3LYP) =  -837.112342231     A.U. after   21 cycles
 Normal termination of Gaussian 16 at Tue Dec  8 19:18:43 2020.
 Gaussian 16:  ES64L-G16RevA.03 25-Dec-2016

 ----------------------------------------------------------------------
 # B3LYP/6-311++G(d,p) empiricaldispersion=gd3bj scf=xqc pop=npa geom=c
 heck
 ----------------------------------------------------------------------

 ------------------------------------
 CID_137400058_JID_1159_Energie_anion
 ------------------------------------
 Structure from the checkpoint file:  "JID_1159.chk"
 Charge = -1 Multiplicity = 2

                         Standard orientation:
 ---------------------------------------------------------------------
 Center     Atomic      Atomic             Coordinates (Angstroms)
 Number     Number       Type             X           Y           Z
 ---------------------------------------------------------------------
      1          6           0       -3.977443   -0.279258    0.000376
      2          8           0       -2.953754    0.716221   -0.000301
      3          6           0       -1.672314    0.279405   -0.000167
      4          7           0       -1.439923   -1.039130   -0.000155
      5          6           0       -0.172432   -1.461468   -0.000061
      6          6           0        0.898528   -0.575705   -0.000039
      7          6           0        0.652994    0.824206   -0.000022
      8          6           0       -0.673646    1.257990   -0.000063
      9          6           0        1.880698    1.578147    0.000073
     10          6           0        2.982327    0.783440    0.000137
     11         16           0        2.622299   -0.929615    0.000013
     12          1           0       -4.916913    0.275836    0.001276
     13          1           0       -3.909478   -0.915530    0.888174
     14          1           0       -3.911000   -0.915132   -0.887838
     15          1           0       -0.019103   -2.538790   -0.000041
     16          1           0       -0.941317    2.308612    0.000010
     17          1           0        1.921227    2.661446    0.000091
     18          1           0        4.017018    1.101001    0.000205
 ---------------------------------------------------------------------

 SCF Done:  E(UB3LYP) =  -837.393784578     A.U. after   33 cycles
 SCF Done:  E(UB3LYP) =  -837.393784578     a.u. after    1 cycles

 The electronic state is 2-A.
 Alpha  occ. eigenvalues --  -88.70742 -19.00931 -14.12398 -10.09368 -10.09304
 Alpha  occ. eigenvalues --  -10.03481 -10.02878 -10.02179 -10.01188 -10.00695
 Alpha  occ. eigenvalues --   -9.99376  -7.79392  -5.75708  -5.75368  -5.74934
 Alpha  occ. eigenvalues --   -0.93072  -0.76879  -0.70673  -0.62473  -0.59288
 Alpha  occ. eigenvalues --   -0.57828  -0.53402  -0.47545  -0.43285  -0.41128
 Alpha  occ. eigenvalues --   -0.37069  -0.35758  -0.33572  -0.31433  -0.29226
 Alpha  occ. eigenvalues --   -0.28758  -0.26101  -0.25515  -0.23645  -0.21661
 Alpha  occ. eigenvalues --   -0.21451  -0.20176  -0.18357  -0.17018  -0.12755
 Alpha  occ. eigenvalues --   -0.10468  -0.08925  -0.05850   0.07072
 Alpha virt. eigenvalues --    0.08835   0.09995   0.11247   0.11454   0.12634
 Alpha virt. eigenvalues --    0.13152   0.13802   0.14301   0.15023   0.16050
 Alpha virt. eigenvalues --    0.16745   0.17103   0.17126   0.17826   0.18417

  Beta  occ. eigenvalues --  -88.70712 -19.00945 -14.11998 -10.09396 -10.09367
  Beta  occ. eigenvalues --  -10.03578 -10.02590 -10.01658 -10.00961 -10.00684
  Beta  occ. eigenvalues --   -9.99094  -7.79365  -5.75698  -5.75360  -5.74827
  Beta  occ. eigenvalues --   -0.93086  -0.76310  -0.70219  -0.62063  -0.58920
  Beta  occ. eigenvalues --   -0.57476  -0.53083  -0.46830  -0.43116  -0.40653
  Beta  occ. eigenvalues --   -0.36914  -0.35574  -0.33538  -0.31226  -0.29034
  Beta  occ. eigenvalues --   -0.28536  -0.25855  -0.24648  -0.23381  -0.21604
  Beta  occ. eigenvalues --   -0.20829  -0.19983  -0.18193  -0.15651  -0.11451
  Beta  occ. eigenvalues --   -0.10005  -0.07147  -0.04594
  Beta virt. eigenvalues --    0.08815   0.09974   0.11214   0.11447   0.12599
  Beta virt. eigenvalues --    0.13071   0.13513   0.13769   0.14760   0.14987
  Beta virt. eigenvalues --    0.16004   0.16804   0.17110   0.17311   0.18125

 Mulliken charges and spin densities:
               1          2
     1  C   -0.307270   0.002167
     2  O   -0.175627  -0.000261
     3  C   -0.563115  -0.100722
     4  N   -0.152630   0.166278
     5  C    0.002959   0.250165
     6  C   -0.283891  -0.052657
     7  C    0.715505   0.065894
     8  C    0.007948   0.312118
     9  C   -0.477096  -0.004364
    10  C    0.015376   0.407189
    11  S   -0.697336   0.024893
    12  H    0.109215  -0.000401
    13  H    0.158321  -0.000807
    14  H    0.157962  -0.000569
    15  H    0.125581  -0.020803
    16  H    0.120947  -0.017054
    17  H    0.058393  -0.002908
    18  H    0.184757  -0.028160
 Sum of Mulliken charges =  -1.00000   1.00000

 Dipole moment (field-independent basis, Debye):
    X=             -1.8834    Y=              0.0466    Z=             -0.0039  Tot=              1.8839
 Quadrupole moment (field-independent basis, Debye-Ang):
   XX=            -96.3791   YY=            -82.5678   ZZ=            -81.3736
   XY=              1.3944   XZ=             -0.0010   YZ=             -0.0047

 Summary of Natural Population Analysis:

                                       Natural Population
                Natural  -----------------------------------------------
    Atom  No    Charge         Core      Valence    Rydberg      Total
 -----------------------------------------------------------------------
      C    1   -0.10086      0.99961     2.09213    0.00912     3.10086
      O    2   -0.28823      0.99985     3.27807    0.01031     4.28823
      C    3    0.24120      0.99947     1.74338    0.01595     2.75880
      N    4   -0.23354      0.99966     2.72176    0.01213     3.73354
      C    5    0.06663      0.99952     1.91814    0.01571     2.93337
      C    6   -0.13455      0.99939     2.12573    0.00943     3.13455
      C    7    0.00947      0.99948     1.98225    0.00880     2.99053
      C    8   -0.09333      0.99948     2.08519    0.00866     3.09333
      C    9   -0.14436      0.99950     2.13503    0.00984     3.14436
      C   10   -0.07583      0.99953     2.06468    0.01162     3.07583
      S   11    0.15205      4.99946     2.82345    0.02504     7.84795
      H   12    0.07757      0.00000     0.42147    0.00096     0.42243
      H   13    0.08575      0.00000     0.41269    0.00156     0.41425
      H   14    0.08571      0.00000     0.41273    0.00156     0.41429
      H   15    0.07554      0.00000     0.42281    0.00166     0.42446
      H   16    0.09285      0.00000     0.40555    0.00159     0.40715
      H   17    0.09424      0.00000     0.40460    0.00116     0.40576
      H   18    0.08969      0.00000     0.40930    0.00101     0.41031
 =======================================================================
   * Total *   -0.00000     14.99494    27.85896    0.14610    43.00000

 Normal termination of Gaussian 16 at Tue Dec  8 19:23:10 2020.
