 Gaussian 16, Revision A.03,

 -----------------------------------------------------------
 # opt freq B3LYP/6-31G(d) empiricaldispersion=gd3bj scf=xqc
 -----------------------------------------------------------

 ------------------------------
 CID_43524284_JID_9360_neutraal
 ------------------------------
 Symbolic Z-matrix:
 Charge =  0 Multiplicity = 1

 SCF Done:  E(RB3LYP) =  -821.388488241     A.U. after   15 cycles
 SCF Done:  E(RB3LYP) =  -821.392491088     A.U. after   13 cycles
 SCF Done:  E(RB3LYP) =  -821.392836149     A.U. after   12 cycles
 SCF Done:  E(RB3LYP) =  -821.393402295     A.U. after   11 cycles
 SCF Done:  E(RB3LYP) =  -821.393744708     A.U. after   12 cycles
 SCF Done:  E(RB3LYP) =  -821.394069131     A.U. after   12 cycles
 SCF Done:  E(RB3LYP) =  -821.394187296     A.U. after   12 cycles
 SCF Done:  E(RB3LYP) =  -821.394208671     A.U. after   10 cycles
 SCF Done:  E(RB3LYP) =  -821.394223662     A.U. after   10 cycles
 SCF Done:  E(RB3LYP) =  -821.394228160     A.U. after    9 cycles
 SCF Done:  E(RB3LYP) =  -821.394230692     A.U. after    9 cycles
 SCF Done:  E(RB3LYP) =  -821.394231605     A.U. after    8 cycles
 SCF Done:  E(RB3LYP) =  -821.394231747     A.U. after    7 cycles
 Optimization completed.
    -- Stationary point found.
 Normal termination of Gaussian 16 at Mon Dec 14 13:24:02 2020.

 --------------------------------------------------------------------
 #N Geom=AllCheck Guess=TCheck SCRF=Check GenChk RB3LYP/6-31G(d) Freq
 --------------------------------------------------------------------

 Structure from the checkpoint file:  "JID_9360.chk"
 ------------------------------
 CID_43524284_JID_9360_neutraal
 ------------------------------
 Charge =  0 Multiplicity = 1

 SCF Done:  E(RB3LYP) =  -821.394231747     A.U. after    1 cycles

  Exact polarizability: 250.001  -8.740 174.185  20.087   8.328 101.551
 Approx polarizability: 324.120 -15.084 310.940  39.231  20.016 161.192

                      1                      2                      3
                      A                      A                      A
 Frequencies --     21.5619                30.2409                34.4048
 Red. masses --      4.1447                 4.5303                 4.3014
 Frc consts  --      0.0011                 0.0024                 0.0030
 IR Inten    --      0.0639                 0.5545                 0.0931

                      4                      5                      6
                      A                      A                      A
 Frequencies --     58.0982                72.8601                84.9559
 Red. masses --      3.0196                 3.8619                 5.5508
 Frc consts  --      0.0060                 0.0121                 0.0236
 IR Inten    --      2.5318                 1.3651                 1.5523

                      7                      8                      9
                      A                      A                      A
 Frequencies --    119.1951               136.3132               159.0341
 Red. masses --      4.5027                 3.6982                 4.5317
 Frc consts  --      0.0377                 0.0405                 0.0675
 IR Inten    --      0.1320                 4.7510                 0.3720

                     10                     11                     12
                      A                      A                      A
 Frequencies --    172.7954               244.5359               265.4095
 Red. masses --      4.0412                 2.4484                 1.1788
 Frc consts  --      0.0711                 0.0863                 0.0489
 IR Inten    --      0.9257                 7.8871                 4.8924

                     13                     14                     15
                      A                      A                      A
 Frequencies --    280.9739               297.0500               300.6381
 Red. masses --      2.4869                 2.3665                 3.3141
 Frc consts  --      0.1157                 0.1230                 0.1765
 IR Inten    --     13.0842                47.4777                 3.9276

                     16                     17                     18
                      A                      A                      A
 Frequencies --    312.9154               353.4120               416.0921
 Red. masses --      3.5634                 3.5130                 3.5683
 Frc consts  --      0.2056                 0.2585                 0.3640
 IR Inten    --      0.9449                 8.2170                 2.3107

                     19                     20                     21
                      A                      A                      A
 Frequencies --    424.2318               436.3580               473.4067
 Red. masses --      3.1114                 3.6056                 3.5706
 Frc consts  --      0.3299                 0.4045                 0.4715
 IR Inten    --      0.1470                 6.7179                 4.4652

                     22                     23                     24
                      A                      A                      A
 Frequencies --    497.2274               547.0274               569.1182
 Red. masses --      4.4519                 3.1331                 3.5870
 Frc consts  --      0.6485                 0.5524                 0.6845
 IR Inten    --     17.8917                 1.9425                11.5884

                     25                     26                     27
                      A                      A                      A
 Frequencies --    609.4954               635.5376               648.6379
 Red. masses --      3.9419                 5.9688                 5.9176
 Frc consts  --      0.8628                 1.4204                 1.4669
 IR Inten    --     34.1570                 3.0045                 1.7548

                     28                     29                     30
                      A                      A                      A
 Frequencies --    664.6732               695.9310               721.5792
 Red. masses --      4.2621                 3.2209                 3.1972
 Frc consts  --      1.1094                 0.9191                 0.9808
 IR Inten    --     16.2963                30.2115                 5.0813

                     31                     32                     33
                      A                      A                      A
 Frequencies --    760.6908               767.5835               799.6036
 Red. masses --      2.3875                 1.7059                 2.4100
 Frc consts  --      0.8140                 0.5922                 0.9079
 IR Inten    --     28.6240                21.0120                 0.4542

                     34                     35                     36
                      A                      A                      A
 Frequencies --    801.9871               824.4508               833.1999
 Red. masses --      2.2056                 4.1811                 2.4604
 Frc consts  --      0.8358                 1.6745                 1.0063
 IR Inten    --     85.5484                 1.4933                34.7300

                     37                     38                     39
                      A                      A                      A
 Frequencies --    853.5080               876.4511               886.2284
 Red. masses --      1.5146                 1.2867                 1.4824
 Frc consts  --      0.6501                 0.5823                 0.6860
 IR Inten    --     47.9550                14.8473                69.0418

                     40                     41                     42
                      A                      A                      A
 Frequencies --    907.4157               934.1044               976.7414
 Red. masses --      1.3214                 2.0313                 1.2940
 Frc consts  --      0.6410                 1.0443                 0.7274
 IR Inten    --      0.3683                11.9734                 2.0013

                     43                     44                     45
                      A                      A                      A
 Frequencies --    977.0436               993.9150              1006.3261
 Red. masses --      1.3926                 1.3178                 1.2889
 Frc consts  --      0.7833                 0.7670                 0.7690
 IR Inten    --      0.1459                 3.1628                 0.0037

                     46                     47                     48
                      A                      A                      A
 Frequencies --   1013.9367              1017.0792              1042.6440
 Red. masses --      1.7241                 6.8015                 3.0501
 Frc consts  --      1.0443                 4.1454                 1.9536
 IR Inten    --     23.4061                 6.0528                 9.7776

                     49                     50                     51
                      A                      A                      A
 Frequencies --   1070.3016              1074.6977              1083.7771
 Red. masses --      1.9873                 2.6826                 1.8602
 Frc consts  --      1.3413                 1.8255                 1.2873
 IR Inten    --     23.9022                 8.2648                11.0276

                     52                     53                     54
                      A                      A                      A
 Frequencies --   1093.8509              1127.0966              1142.0835
 Red. masses --      2.7426                 1.6822                 1.3784
 Frc consts  --      1.9334                 1.2591                 1.0593
 IR Inten    --      2.4462                11.6294                 4.3008

                     55                     56                     57
                      A                      A                      A
 Frequencies --   1152.2042              1186.5160              1186.7765
 Red. masses --      2.4098                 1.3170                 1.2614
 Frc consts  --      1.8849                 1.0924                 1.0467
 IR Inten    --      0.8710                13.0665                 3.9591

                     58                     59                     60
                      A                      A                      A
 Frequencies --   1188.9066              1210.7927              1238.6704
 Red. masses --      2.1925                 1.1509                 2.3389
 Frc consts  --      1.8259                 0.9941                 2.1143
 IR Inten    --     20.9490                 4.5949                 1.3211

                     61                     62                     63
                      A                      A                      A
 Frequencies --   1246.3501              1303.1896              1309.3807
 Red. masses --      1.9119                 4.4649                 1.4788
 Frc consts  --      1.7498                 4.4676                 1.4938
 IR Inten    --      3.4683                11.8068                 8.6199

                     64                     65                     66
                      A                      A                      A
 Frequencies --   1331.1841              1343.5009              1366.7624
 Red. masses --      1.9741                 1.6520                 1.9313
 Frc consts  --      2.0611                 1.7569                 2.1257
 IR Inten    --      0.8773                 1.7192                46.7641

                     67                     68                     69
                      A                      A                      A
 Frequencies --   1369.2553              1370.0357              1391.2386
 Red. masses --      1.6300                 1.4146                 3.9612
 Frc consts  --      1.8005                 1.5644                 4.5174
 IR Inten    --      1.0365                 2.8054               372.2247

                     70                     71                     72
                      A                      A                      A
 Frequencies --   1427.4745              1437.6475              1462.3059
 Red. masses --      1.2302                 1.7318                 2.1941
 Frc consts  --      1.4769                 2.1089                 2.7643
 IR Inten    --     20.0525                 7.4714                29.0505

                     73                     74                     75
                      A                      A                      A
 Frequencies --   1476.1904              1492.8245              1522.4510
 Red. masses --      1.7713                 1.5734                 1.4461
 Frc consts  --      2.2741                 2.0658                 1.9748
 IR Inten    --    133.1970                24.0709                20.3928

                     76                     77                     78
                      A                      A                      A
 Frequencies --   1524.7954              1531.6185              1532.1510
 Red. masses --      1.0916                 1.4871                 1.1090
 Frc consts  --      1.4954                 2.0554                 1.5338
 IR Inten    --      6.0484                 3.3755                 1.1755

                     79                     80                     81
                      A                      A                      A
 Frequencies --   1560.7469              1627.0336              1635.5888
 Red. masses --      2.4761                 6.4182                 5.9586
 Frc consts  --      3.5537                10.0105                 9.3917
 IR Inten    --      4.3239                 3.7525                15.1394

                     82                     83                     84
                      A                      A                      A
 Frequencies --   1654.7126              1673.4095              1693.7669
 Red. masses --      5.4809                 5.0655                 1.1239
 Frc consts  --      8.8419                 8.3575                 1.8996
 IR Inten    --     54.1616                14.5980                37.4980

                     85                     86                     87
                      A                      A                      A
 Frequencies --   1764.9504              2960.8587              3037.4802
 Red. masses --      9.2589                 1.0731                 1.0876
 Frc consts  --     16.9932                 5.5429                 5.9122
 IR Inten    --    381.1679                73.0927                30.2960

                     88                     89                     90
                      A                      A                      A
 Frequencies --   3054.0474              3106.8211              3128.3699
 Red. masses --      1.0342                 1.0858                 1.1014
 Frc consts  --      5.6835                 6.1752                 6.3511
 IR Inten    --     16.5319                 6.5518                27.9850

                     91                     92                     93
                      A                      A                      A
 Frequencies --   3141.0962              3175.1597              3179.1530
 Red. masses --      1.1034                 1.0879                 1.0891
 Frc consts  --      6.4144                 6.4623                 6.4856
 IR Inten    --     21.9840                16.7027                22.9430

                     94                     95                     96
                      A                      A                      A
 Frequencies --   3192.6369              3202.1601              3206.4595
 Red. masses --      1.0878                 1.0929                 1.0932
 Frc consts  --      6.5328                 6.6024                 6.6223
 IR Inten    --      4.4512                14.8624                18.7067

                     97                     98                     99
                      A                      A                      A
 Frequencies --   3209.7951              3220.1953              3224.7887
 Red. masses --      1.0879                 1.0975                 1.0938
 Frc consts  --      6.6036                 6.7056                 6.7019
 IR Inten    --      1.0289                19.2855                 3.7079

                    100                    101                    102
                      A                      A                      A
 Frequencies --   3471.0645              3539.2671              3559.8683
 Red. masses --      1.0497                 1.0745                 1.0930
 Frc consts  --      7.4517                 7.9301                 8.1607
 IR Inten    --      2.0563                88.8385                 0.6245

 - Thermochemistry -
 -------------------
 Temperature   298.150 Kelvin.  Pressure   1.00000 Atm.
 Atom     1 has atomic number  6 and mass  12.00000

 Molecular mass:   255.13716 amu.
 Principal axes and moments of inertia in atomic units:
                           1         2         3
     Eigenvalues --  1941.35860********************
           X            0.99999  -0.00490  -0.00046
           Y            0.00491   0.99976   0.02115
           Z            0.00035  -0.02115   0.99978
 This molecule is an asymmetric top.
 Rotational symmetry number  1.
 Warning -- assumption of classical behavior for rotation
           may cause significant error
 Rotational temperatures (Kelvin)      0.04462     0.00766     0.00695
 Rotational constants (GHZ):           0.92963     0.15964     0.14483
 Zero-point vibrational energy     789356.4 (Joules/Mol)
                                  188.66070 (Kcal/Mol)
 Warning -- explicit consideration of  25 degrees of freedom as
           vibrations may cause significant error
 Vibrational temperatures:     31.02    43.51    49.50    83.59   104.83
          (Kelvin)            122.23   171.50   196.12   228.81   248.61
                              351.83   381.87   404.26   427.39   432.55
                              450.22   508.48   598.66   610.37   627.82
                              681.13   715.40   787.05   818.83   876.93
                              914.40   933.25   956.32  1001.29  1038.19
                             1094.46  1104.38  1150.45  1153.88  1186.20
                             1198.79  1228.01  1261.02  1275.09  1305.57
                             1343.97  1405.31  1405.75  1430.02  1447.88
                             1458.83  1463.35  1500.13  1539.93  1546.25
                             1559.31  1573.81  1621.64  1643.20  1657.76
                             1707.13  1707.51  1710.57  1742.06  1782.17
                             1793.22  1875.00  1883.91  1915.28  1933.00
                             1966.47  1970.05  1971.18  2001.68  2053.82
                             2068.45  2103.93  2123.91  2147.84  2190.47
                             2193.84  2203.66  2204.42  2245.57  2340.94
                             2353.25  2380.76  2407.66  2436.95  2539.37
                             4260.02  4370.26  4394.09  4470.02  4501.03
                             4519.34  4568.35  4574.09  4593.49  4607.19
                             4613.38  4618.18  4633.14  4639.75  4994.09
                             5092.22  5121.86

 Zero-point correction=                           0.300650 (Hartree/Particle)
 Thermal correction to Energy=                    0.317993
 Thermal correction to Enthalpy=                  0.318937
 Thermal correction to Gibbs Free Energy=         0.253010
 Sum of electronic and zero-point Energies=           -821.093582
 Sum of electronic and thermal Energies=              -821.076239
 Sum of electronic and thermal Enthalpies=            -821.075294
 Sum of electronic and thermal Free Energies=         -821.141222

                     E (Thermal)             CV                S
                      KCal/Mol        Cal/Mol-Kelvin    Cal/Mol-Kelvin
 Total                  199.544             65.955            138.756
 Electronic               0.000              0.000              0.000
 Translational            0.889              2.981             42.510
 Rotational               0.889              2.981             33.969
 Vibrational            197.766             59.993             62.277
 Vibration     1          0.593              1.985              6.485
 Vibration     2          0.594              1.984              5.814
 Vibration     3          0.594              1.983              5.558
 Vibration     4          0.596              1.974              4.521
 Vibration     5          0.599              1.967              4.075
 Vibration     6          0.601              1.960              3.773
 Vibration     7          0.609              1.933              3.113
 Vibration     8          0.614              1.917              2.855
 Vibration     9          0.621              1.892              2.561
 Vibration    10          0.626              1.876              2.405
 Vibration    11          0.660              1.772              1.770
 Vibration    12          0.671              1.736              1.626
 Vibration    13          0.681              1.709              1.528
 Vibration    14          0.691              1.679              1.433
 Vibration    15          0.693              1.672              1.413
 Vibration    16          0.701              1.649              1.347
 Vibration    17          0.730              1.568              1.151
 Vibration    18          0.779              1.435              0.905
 Vibration    19          0.786              1.418              0.878
 Vibration    20          0.797              1.391              0.838
 Vibration    21          0.830              1.309              0.728
 Vibration    22          0.853              1.256              0.665
 Vibration    23          0.902              1.146              0.550
 Vibration    24          0.925              1.098              0.506
 Vibration    25          0.968              1.012              0.434

                           ! Non-Optimized Parameters !
 Normal termination of Gaussian 16 at Mon Dec 14 13:41:17 2020.

 ----------------------------------------------------------------------
 # B3LYP/6-311++G(d,p) empiricaldispersion=gd3bj scf=xqc pop=npa geom=c
 heck
 ----------------------------------------------------------------------

 --------------------------------------
 CID_43524284_JID_9360_Energie_neutraal
 --------------------------------------
 Structure from the checkpoint file:  "JID_9360.chk"
 Charge =  0 Multiplicity = 1

 SCF Done:  E(RB3LYP) =  -821.623545103     A.U. after   16 cycles
 Normal termination of Gaussian 16 at Mon Dec 14 13:49:48 2020.

 ----------------------------------------------------------------------
 # B3LYP/6-311++G(d,p) empiricaldispersion=gd3bj scf=xqc pop=npa geom=c
 heck
 ----------------------------------------------------------------------

 ------------------------------------
 CID_43524284_JID_9360_Energie_kation
 ------------------------------------
 Structure from the checkpoint file:  "JID_9360.chk"
 Charge =  1 Multiplicity = 2

 SCF Done:  E(UB3LYP) =  -821.319731569     A.U. after   33 cycles
 SCF Done:  E(UB3LYP) =  -821.323691905     a.u. after   15 cycles
 Normal termination of Gaussian 16 at Mon Dec 14 19:28:49 2020.
 Gaussian 16:  ES64L-G16RevA.03 25-Dec-2016

 ----------------------------------------------------------------------
 # B3LYP/6-311++G(d,p) empiricaldispersion=gd3bj scf=xqc pop=npa geom=c
 heck
 ----------------------------------------------------------------------

 -----------------------------------
 CID_43524284_JID_9360_Energie_anion
 -----------------------------------
 Structure from the checkpoint file:  "JID_9360.chk"
 Charge = -1 Multiplicity = 2

                         Standard orientation:
 ---------------------------------------------------------------------
 Center     Atomic      Atomic             Coordinates (Angstroms)
 Number     Number       Type             X           Y           Z
 ---------------------------------------------------------------------
      1          6           0       -1.186898    0.177434    1.903955
      2          6           0       -1.402680   -0.032440    0.393395
      3          6           0       -2.858728   -0.364185    0.117006
      4          6           0       -3.305392   -1.688202    0.086219
      5          6           0       -4.661371   -1.935988   -0.112297
      6          6           0       -5.525700   -0.854379   -0.277021
      7          6           0       -4.986348    0.430535   -0.234900
      8          7           0       -3.686872    0.677642   -0.039147
      9          7           0       -1.044182    1.154637   -0.384413
     10          6           0        0.196723    1.748252   -0.411383
     11          8           0        0.326366    2.957980   -0.568998
     12          6           0        1.393401    0.851851   -0.292920
     13          6           0        2.489488    1.299445    0.454109
     14          6           0        3.636200    0.519339    0.565628
     15          6           0        3.725987   -0.712683   -0.095241
     16          6           0        2.645094   -1.138154   -0.874609
     17          6           0        1.485072   -0.371816   -0.966337
     18          6           0        4.962957   -1.576837    0.037082
     19          7           0        6.175127   -0.764549    0.172159
     20          1           0       -1.799780    1.013830    2.255033
     21          1           0       -0.134455    0.400366    2.104969
     22          1           0       -1.466546   -0.720541    2.466241
     23          1           0       -0.789828   -0.876221    0.068923
     24          1           0       -2.599577   -2.503904    0.213107
     25          1           0       -5.035901   -2.955211   -0.144449
     26          1           0       -6.589025   -0.999166   -0.438735
     27          1           0       -5.623442    1.303196   -0.364120
     28          1           0       -1.804600    1.828220   -0.435221
     29          1           0        2.427057    2.268322    0.939358
     30          1           0        4.485264    0.860295    1.148582
     31          1           0        2.715873   -2.075092   -1.422603
     32          1           0        0.664527   -0.701530   -1.596766
     33          1           0        4.880191   -2.184796    0.949223
     34          1           0        4.984254   -2.290958   -0.805230
     35          1           0        6.982430   -1.369379    0.308646
     36          1           0        6.337289   -0.248426   -0.691276
 ---------------------------------------------------------------------

 SCF Done:  E(UB3LYP) =  -821.625693486     A.U. after   33 cycles
 SCF Done:  E(UB3LYP) =  -821.625693486     a.u. after    1 cycles

 The electronic state is 2-A.
 Alpha  occ. eigenvalues --  -18.96882 -14.21051 -14.19854 -14.19063 -10.15073
 Alpha  occ. eigenvalues --  -10.11037 -10.10503 -10.09916 -10.09486 -10.07569
 Alpha  occ. eigenvalues --  -10.07296 -10.07018 -10.07007 -10.06942 -10.06852
 Alpha  occ. eigenvalues --  -10.06583 -10.06519 -10.06402 -10.06094  -0.91915
 Alpha  occ. eigenvalues --   -0.84190  -0.80262  -0.79193  -0.74768  -0.69603
 Alpha  occ. eigenvalues --   -0.68074  -0.65928  -0.64058  -0.63036  -0.57474
 Alpha  occ. eigenvalues --   -0.55109  -0.52938  -0.50635  -0.50083  -0.49070
 Alpha  occ. eigenvalues --   -0.45785  -0.41904  -0.41339  -0.39723  -0.37920
 Alpha  occ. eigenvalues --   -0.37317  -0.37058  -0.35336  -0.34552  -0.33954
 Alpha  occ. eigenvalues --   -0.33107  -0.32824  -0.31632  -0.31506  -0.30638
 Alpha  occ. eigenvalues --   -0.30421  -0.29258  -0.28846  -0.28079  -0.27877
 Alpha  occ. eigenvalues --   -0.26911  -0.24771  -0.24475  -0.24122  -0.23417
 Alpha  occ. eigenvalues --   -0.18761  -0.16085  -0.15807  -0.15529  -0.15316
 Alpha  occ. eigenvalues --   -0.14873  -0.13852  -0.13082   0.03751
 Alpha virt. eigenvalues --    0.05199   0.06477   0.06632   0.07776   0.08266
 Alpha virt. eigenvalues --    0.08561   0.08741   0.08985   0.09165   0.09985
 Alpha virt. eigenvalues --    0.10081   0.10839   0.11188   0.11888   0.12650

  Beta  occ. eigenvalues --  -18.96788 -14.21050 -14.19806 -14.18797 -10.15012
  Beta  occ. eigenvalues --  -10.11028 -10.10503 -10.09912 -10.09370 -10.07615
  Beta  occ. eigenvalues --  -10.07041 -10.06944 -10.06922 -10.06888 -10.06845
  Beta  occ. eigenvalues --  -10.06522 -10.06461 -10.06403 -10.06085  -0.91748
  Beta  occ. eigenvalues --   -0.83875  -0.80142  -0.79087  -0.74637  -0.69207
  Beta  occ. eigenvalues --   -0.67928  -0.65716  -0.63953  -0.62930  -0.57319
  Beta  occ. eigenvalues --   -0.55043  -0.52578  -0.50557  -0.49940  -0.48895
  Beta  occ. eigenvalues --   -0.45684  -0.41795  -0.41252  -0.39619  -0.37824
  Beta  occ. eigenvalues --   -0.37210  -0.36934  -0.35235  -0.34446  -0.33812
  Beta  occ. eigenvalues --   -0.33004  -0.32725  -0.31593  -0.31424  -0.30513
  Beta  occ. eigenvalues --   -0.30273  -0.29017  -0.28686  -0.27666  -0.27594
  Beta  occ. eigenvalues --   -0.26704  -0.24685  -0.24214  -0.24047  -0.23336
  Beta  occ. eigenvalues --   -0.17407  -0.15749  -0.15490  -0.15281  -0.15009
  Beta  occ. eigenvalues --   -0.14622  -0.13572  -0.12724
  Beta virt. eigenvalues --    0.06173   0.06586   0.07415   0.07793   0.07874
  Beta virt. eigenvalues --    0.08383   0.08567   0.08863   0.09116   0.09390
  Beta virt. eigenvalues --    0.10010   0.10083   0.10781   0.11361   0.11898

 Mulliken charges and spin densities:
               1          2
     1  C   -0.832182   0.012717
     2  C   -0.059150  -0.030255
     3  C   -0.133363  -0.088780
     4  C    0.132189   0.140509
     5  C   -0.515816   0.151385
     6  C   -0.036998   0.003186
     7  C   -0.178313   0.094499
     8  N   -0.017434   0.119090
     9  N   -0.059561   0.003478
    10  C   -0.394306   0.044969
    11  O   -0.326266   0.029184
    12  C    0.536207   0.015167
    13  C   -0.142323   0.226021
    14  C   -0.525172  -0.017796
    15  C    0.152155   0.423476
    16  C   -0.328549   0.027464
    17  C   -0.168289  -0.180431
    18  C    0.394510  -1.056325
    19  N   -0.361252   0.014455
    20  H    0.155789   0.003010
    21  H    0.152194  -0.007283
    22  H    0.130699   0.001958
    23  H    0.157673  -0.055750
    24  H    0.093760   0.064936
    25  H    0.132209  -0.011100
    26  H    0.135211   0.006766
    27  H    0.148390  -0.008799
    28  H    0.341365  -0.002761
    29  H    0.185012   0.012579
    30  H    0.199014  -0.001109
    31  H    0.084731   0.052151
    32  H    0.176073   0.006556
    33  H   -0.121498   0.301484
    34  H   -0.045539   0.203436
    35  H   -0.158958   0.402943
    36  H    0.097787   0.098971
 Sum of Mulliken charges =  -1.00000   1.00000

 Dipole moment (field-independent basis, Debye):
    X=             -5.0553    Y=             -2.7462    Z=              0.2490  Tot=              5.7585
 Quadrupole moment (field-independent basis, Debye-Ang):
   XX=           -212.3859   YY=           -144.7975   ZZ=           -128.0520
   XY=              9.8518   XZ=             -6.1180   YZ=              6.0333

 Summary of Natural Population Analysis:

                                       Natural Population
                Natural  -----------------------------------------------
    Atom  No    Charge         Core      Valence    Rydberg      Total
 -----------------------------------------------------------------------
      C    1   -0.28585      0.99965     2.28234    0.00386     3.28585
      C    2   -0.02591      0.99956     2.01264    0.01371     3.02591
      C    3    0.11220      0.99952     1.87359    0.01469     2.88780
      C    4   -0.11574      0.99951     2.10841    0.00782     3.11574
      C    5   -0.04051      0.99958     2.03201    0.00892     3.04051
      C    6   -0.14110      0.99957     2.13313    0.00840     3.14110
      C    7    0.04715      0.99960     1.93912    0.01413     2.95285
      N    8   -0.21999      0.99966     2.71056    0.00977     3.71999
      N    9   -0.32765      0.99967     2.81622    0.01176     3.82765
      C   10    0.34813      0.99962     1.63095    0.02130     2.65187
      O   11   -0.31344      0.99988     3.30795    0.00561     4.31344
      C   12   -0.05736      0.99946     2.04623    0.01167     3.05736
      C   13   -0.07691      0.99953     2.06892    0.00845     3.07691
      C   14   -0.10582      0.99952     2.09628    0.01002     3.10582
      C   15    0.00165      0.99951     1.98933    0.00952     2.99835
      C   16   -0.10963      0.99952     2.10071    0.00940     3.10963
      C   17   -0.08845      0.99954     2.07971    0.00920     3.08845
      C   18   -0.09533      0.99960     2.08366    0.01207     3.09533
      N   19   -0.42051      0.99978     2.91006    0.01067     3.92051
      H   20    0.10148      0.00000     0.39762    0.00090     0.39852
      H   21    0.10361      0.00000     0.39544    0.00095     0.39639
      H   22    0.09766      0.00000     0.40161    0.00073     0.40234
      H   23    0.10163      0.00000     0.39624    0.00213     0.39837
      H   24    0.09919      0.00000     0.39975    0.00106     0.40081
      H   25    0.09165      0.00000     0.40699    0.00137     0.40835
      H   26    0.09646      0.00000     0.40247    0.00107     0.40354
      H   27    0.08282      0.00000     0.41602    0.00116     0.41718
      H   28    0.20392      0.00000     0.29434    0.00174     0.29608
      H   29    0.10484      0.00000     0.39413    0.00103     0.39516
      H   30    0.10836      0.00000     0.39051    0.00114     0.39164
      H   31    0.09614      0.00000     0.40279    0.00107     0.40386
      H   32    0.10134      0.00000     0.39734    0.00132     0.39866
      H   33    0.09735      0.00000     0.40107    0.00158     0.40265
      H   34    0.07956      0.00000     0.41886    0.00158     0.42044
      H   35    0.17675      0.00000     0.32002    0.00323     0.32325
      H   36    0.17233      0.00000     0.32611    0.00156     0.32767
 =======================================================================
   * Total *    0.00000     18.99226    48.78314    0.22460    68.00000

 Normal termination of Gaussian 16 at Mon Dec 14 19:52:50 2020.
