 Gaussian 16, Revision A.03,

 -----------------------------------------------------------
 # opt freq B3LYP/6-31G(d) empiricaldispersion=gd3bj scf=xqc
 -----------------------------------------------------------

 -------------------------------
 CID_110633005_JID_8477_neutraal
 -------------------------------
 Symbolic Z-matrix:
 Charge =  0 Multiplicity = 1

 SCF Done:  E(RB3LYP) =  -1238.50400699     A.U. after   15 cycles
 SCF Done:  E(RB3LYP) =  -1238.50616273     A.U. after   14 cycles
 SCF Done:  E(RB3LYP) =  -1238.50435319     A.U. after   14 cycles
 SCF Done:  E(RB3LYP) =  -1238.51000318     A.U. after   12 cycles
 SCF Done:  E(RB3LYP) =  -1238.51176591     A.U. after   14 cycles
 SCF Done:  E(RB3LYP) =  -1238.51333811     A.U. after   12 cycles
 SCF Done:  E(RB3LYP) =  -1238.51451025     A.U. after   13 cycles
 SCF Done:  E(RB3LYP) =  -1238.51536725     A.U. after   14 cycles
 SCF Done:  E(RB3LYP) =  -1238.51591890     A.U. after   12 cycles
 SCF Done:  E(RB3LYP) =  -1238.51614998     A.U. after   11 cycles
 SCF Done:  E(RB3LYP) =  -1238.51764068     A.U. after   10 cycles
 SCF Done:  E(RB3LYP) =  -1238.51764231     A.U. after    9 cycles
 SCF Done:  E(RB3LYP) =  -1238.51764270     A.U. after    8 cycles
 SCF Done:  E(RB3LYP) =  -1238.51764279     A.U. after    7 cycles
 SCF Done:  E(RB3LYP) =  -1238.51764283     A.U. after    7 cycles
 Optimization completed.
    -- Stationary point found.
 Normal termination of Gaussian 16 at Mon Dec 14 13:51:24 2020.

 --------------------------------------------------------------------
 #N Geom=AllCheck Guess=TCheck SCRF=Check GenChk RB3LYP/6-31G(d) Freq
 --------------------------------------------------------------------

 Structure from the checkpoint file:  "JID_8477.chk"
 -------------------------------
 CID_110633005_JID_8477_neutraal
 -------------------------------
 Charge =  0 Multiplicity = 1

 SCF Done:  E(RB3LYP) =  -1238.51764283     A.U. after    1 cycles

  Exact polarizability: 170.375  27.746 154.293 -14.438   0.863 141.478
 Approx polarizability: 209.595  44.564 240.023 -28.601   7.351 241.922

                      1                      2                      3
                      A                      A                      A
 Frequencies --     14.7603                21.6189                26.8351
 Red. masses --      4.6916                 3.9812                 5.2347
 Frc consts  --      0.0006                 0.0011                 0.0022
 IR Inten    --      0.4405                 0.1641                 0.0666

                      4                      5                      6
                      A                      A                      A
 Frequencies --     38.0809                50.7885                78.4071
 Red. masses --      2.7152                 4.5845                 6.0385
 Frc consts  --      0.0023                 0.0070                 0.0219
 IR Inten    --      1.2569                 0.8578                 1.0159

                      7                      8                      9
                      A                      A                      A
 Frequencies --     87.2600               118.6836               129.3600
 Red. masses --      3.5344                 3.9443                 5.1308
 Frc consts  --      0.0159                 0.0327                 0.0506
 IR Inten    --      0.7595                 0.2014                 0.1848

                     10                     11                     12
                      A                      A                      A
 Frequencies --    168.0595               182.2043               227.1517
 Red. masses --      4.4499                 2.2431                 4.0486
 Frc consts  --      0.0741                 0.0439                 0.1231
 IR Inten    --      1.5956                 2.7629                 0.8317

                     13                     14                     15
                      A                      A                      A
 Frequencies --    242.3079               252.6132               276.8211
 Red. masses --      1.9223                 5.2038                 2.8893
 Frc consts  --      0.0665                 0.1957                 0.1304
 IR Inten    --      3.3882                 5.3486                12.1843

                     16                     17                     18
                      A                      A                      A
 Frequencies --    304.8093               326.0437               343.3360
 Red. masses --      2.5268                 3.9597                 2.8157
 Frc consts  --      0.1383                 0.2480                 0.1956
 IR Inten    --      3.1559                 6.0379                 1.6118

                     19                     20                     21
                      A                      A                      A
 Frequencies --    409.1527               424.7585               429.2856
 Red. masses --      3.5867                 3.2931                 3.4082
 Frc consts  --      0.3538                 0.3501                 0.3701
 IR Inten    --      5.5560                 0.5815                 2.0176

                     22                     23                     24
                      A                      A                      A
 Frequencies --    448.8728               493.1348               518.6538
 Red. masses --      4.2408                 3.7027                 3.2035
 Frc consts  --      0.5034                 0.5305                 0.5077
 IR Inten    --      7.9901                19.5356                 1.3382

                     25                     26                     27
                      A                      A                      A
 Frequencies --    521.0779               537.3150               558.8449
 Red. masses --      3.7135                 3.6576                 3.8238
 Frc consts  --      0.5941                 0.6222                 0.7036
 IR Inten    --      5.9555                16.6393                10.2551

                     28                     29                     30
                      A                      A                      A
 Frequencies --    577.0740               631.0364               657.1288
 Red. masses --      4.2529                 6.3752                 2.2747
 Frc consts  --      0.8345                 1.4957                 0.5787
 IR Inten    --     97.2418                 1.0139                85.4824

                     31                     32                     33
                      A                      A                      A
 Frequencies --    700.1622               705.5466               765.6125
 Red. masses --      4.7041                 2.6590                 1.5310
 Frc consts  --      1.3587                 0.7799                 0.5287
 IR Inten    --    139.9337                60.0306                63.7506

                     34                     35                     36
                      A                      A                      A
 Frequencies --    776.0801               784.6887               837.9183
 Red. masses --      1.1727                 4.3877                 1.2746
 Frc consts  --      0.4162                 1.5918                 0.5273
 IR Inten    --     21.3690                 6.3021                 7.3549

                     37                     38                     39
                      A                      A                      A
 Frequencies --    849.0369               867.0000               897.7665
 Red. masses --      1.8279                 3.1531                 2.0009
 Frc consts  --      0.7764                 1.3965                 0.9502
 IR Inten    --     66.8413                17.0621                 2.5264

                     40                     41                     42
                      A                      A                      A
 Frequencies --    898.0810               932.5360               937.8226
 Red. masses --      1.5029                 2.4878                 1.5567
 Frc consts  --      0.7142                 1.2747                 0.8066
 IR Inten    --     11.6264                10.2303                33.2787

                     43                     44                     45
                      A                      A                      A
 Frequencies --    961.8123               966.5431               984.8439
 Red. masses --      1.3208                 2.6180                 1.2285
 Frc consts  --      0.7199                 1.4410                 0.7020
 IR Inten    --      0.5177                20.1078                 0.9850

                     46                     47                     48
                      A                      A                      A
 Frequencies --   1002.8689              1015.6346              1017.5808
 Red. masses --      1.8960                 2.0743                 5.0624
 Frc consts  --      1.1235                 1.2606                 3.0885
 IR Inten    --     32.6968                63.2108                 2.1429

                     49                     50                     51
                      A                      A                      A
 Frequencies --   1056.8750              1086.3021              1095.4561
 Red. masses --      2.3138                 4.0614                 2.8488
 Frc consts  --      1.5227                 2.8238                 2.0142
 IR Inten    --      1.2449                56.7223                 8.6138

                     52                     53                     54
                      A                      A                      A
 Frequencies --   1110.0761              1114.5943              1133.5843
 Red. masses --      3.6260                 1.6190                 4.1899
 Frc consts  --      2.6326                 1.1850                 3.1722
 IR Inten    --     74.9144                 4.8318                81.4772

                     55                     56                     57
                      A                      A                      A
 Frequencies --   1146.2549              1151.6021              1165.5100
 Red. masses --      2.3448                 2.6903                 1.7533
 Frc consts  --      1.8152                 2.1021                 1.4033
 IR Inten    --     30.0301                35.2470                 1.5402

                     58                     59                     60
                      A                      A                      A
 Frequencies --   1190.9383              1212.7094              1273.4819
 Red. masses --      1.0990                 1.1465                 2.2054
 Frc consts  --      0.9183                 0.9934                 2.1073
 IR Inten    --      3.2137                15.5656               180.1550

                     61                     62                     63
                      A                      A                      A
 Frequencies --   1278.1992              1304.0147              1316.5594
 Red. masses --      1.2612                 1.3564                 1.2545
 Frc consts  --      1.2140                 1.3590                 1.2811
 IR Inten    --     12.4453                39.8648                10.5431

                     64                     65                     66
                      A                      A                      A
 Frequencies --   1332.0726              1338.8569              1355.7899
 Red. masses --      1.4310                 4.8266                 1.6141
 Frc consts  --      1.4960                 5.0975                 1.7481
 IR Inten    --     19.6894               169.9480                41.7922

                     67                     68                     69
                      A                      A                      A
 Frequencies --   1377.4815              1390.4708              1410.0943
 Red. masses --      2.4999                 1.3392                 1.2631
 Frc consts  --      2.7948                 1.5256                 1.4798
 IR Inten    --     25.9602                 1.5219                 3.2301

                     70                     71                     72
                      A                      A                      A
 Frequencies --   1412.6325              1428.8444              1439.2867
 Red. masses --      1.3212                 1.3419                 1.1912
 Frc consts  --      1.5534                 1.6141                 1.4539
 IR Inten    --      0.2637                18.8153                51.8948

                     73                     74                     75
                      A                      A                      A
 Frequencies --   1445.5578              1465.8297              1490.0068
 Red. masses --      1.2565                 1.3212                 1.0912
 Frc consts  --      1.5470                 1.6726                 1.4274
 IR Inten    --      8.4124                55.2927                 6.2398

                     76                     77                     78
                      A                      A                      A
 Frequencies --   1505.3708              1509.5051              1523.5776
 Red. masses --      2.2097                 1.0785                 1.1158
 Frc consts  --      2.9503                 1.4479                 1.5260
 IR Inten    --      0.3608                 4.0197                 4.5247

                     79                     80                     81
                      A                      A                      A
 Frequencies --   1528.5514              1538.2925              1543.5966
 Red. masses --      1.0555                 1.0793                 1.0487
 Frc consts  --      1.4530                 1.5048                 1.4722
 IR Inten    --     10.0876                 2.3054                 6.6436

                     82                     83                     84
                      A                      A                      A
 Frequencies --   1549.2120              1645.0984              1666.3225
 Red. masses --      2.2784                 5.7842                 5.6653
 Frc consts  --      3.2219                 9.2231                 9.2681
 IR Inten    --    101.4593                18.5331                74.2821

                     85                     86                     87
                      A                      A                      A
 Frequencies --   3022.9492              3044.4508              3052.4267
 Red. masses --      1.0723                 1.0382                 1.0598
 Frc consts  --      5.7732                 5.6693                 5.8178
 IR Inten    --     41.4254                15.1793                29.8213

                     88                     89                     90
                      A                      A                      A
 Frequencies --   3057.1130              3074.9785              3086.6981
 Red. masses --      1.0581                 1.0616                 1.1022
 Frc consts  --      5.8266                 5.9142                 6.1873
 IR Inten    --     28.0183                39.2298                 3.7029

                     91                     92                     93
                      A                      A                      A
 Frequencies --   3103.9287              3111.6879              3121.4798
 Red. masses --      1.1071                 1.1033                 1.1005
 Frc consts  --      6.2846                 6.2943                 6.3175
 IR Inten    --     25.3174                69.2591                32.9396

                     94                     95                     96
                      A                      A                      A
 Frequencies --   3140.9011              3149.8542              3188.3177
 Red. masses --      1.1055                 1.0926                 1.0855
 Frc consts  --      6.4257                 6.3871                 6.5012
 IR Inten    --     13.9577                 4.3519                 1.7042

                     97                     98                     99
                      A                      A                      A
 Frequencies --   3195.4638              3212.6760              3220.2157
 Red. masses --      1.0897                 1.0932                 1.0958
 Frc consts  --      6.5557                 6.6476                 6.6949
 IR Inten    --     14.9168                24.9345                 9.6145

                    100                    101                    102
                      A                      A                      A
 Frequencies --   3237.6058              3440.6881              3531.1272
 Red. masses --      1.0913                 1.0760                 1.0743
 Frc consts  --      6.7397                 7.5051                 7.8924
 IR Inten    --      2.1611                75.7424                17.8028

 - Thermochemistry -
 -------------------
 Temperature   298.150 Kelvin.  Pressure   1.00000 Atm.
 Atom     1 has atomic number  6 and mass  12.00000

 Molecular mass:   274.09873 amu.
 Principal axes and moments of inertia in atomic units:
                           1         2         3
     Eigenvalues --  2721.656749140.98695**********
           X            0.99977   0.01985   0.00840
           Y           -0.01984   0.99980  -0.00141
           Z           -0.00842   0.00124   0.99996
 This molecule is an asymmetric top.
 Rotational symmetry number  1.
 Warning -- assumption of classical behavior for rotation
           may cause significant error
 Rotational temperatures (Kelvin)      0.03182     0.00948     0.00858
 Rotational constants (GHZ):           0.66310     0.19743     0.17888
 Zero-point vibrational energy     780696.0 (Joules/Mol)
                                  186.59083 (Kcal/Mol)
 Warning -- explicit consideration of  28 degrees of freedom as
           vibrations may cause significant error
 Vibrational temperatures:     21.24    31.10    38.61    54.79    73.07
          (Kelvin)            112.81   125.55   170.76   186.12   241.80
                              262.15   326.82   348.63   363.45   398.28
                              438.55   469.10   493.98   588.68   611.13
                              617.65   645.83   709.51   746.23   749.71
                              773.08   804.05   830.28   907.92   945.46
                             1007.38  1015.12  1101.55  1116.61  1128.99
                             1205.58  1221.57  1247.42  1291.69  1292.14
                             1341.71  1349.32  1383.83  1390.64  1416.97
                             1442.90  1461.27  1464.07  1520.61  1562.95
                             1576.12  1597.15  1603.65  1630.97  1649.21
                             1656.90  1676.91  1713.49  1744.82  1832.26
                             1839.04  1876.19  1894.24  1916.56  1926.32
                             1950.68  1981.89  2000.58  2028.81  2032.46
                             2055.79  2070.81  2079.84  2109.00  2143.79
                             2165.89  2171.84  2192.09  2199.24  2213.26
                             2220.89  2228.97  2366.93  2397.47  4349.35
                             4380.29  4391.76  4398.50  4424.21  4441.07
                             4465.86  4477.02  4491.11  4519.06  4531.94
                             4587.28  4597.56  4622.32  4633.17  4658.19
                             4950.38  5080.50

 Zero-point correction=                           0.297351 (Hartree/Particle)
 Thermal correction to Energy=                    0.315941
 Thermal correction to Enthalpy=                  0.316885
 Thermal correction to Gibbs Free Energy=         0.246819
 Sum of electronic and zero-point Energies=          -1238.220291
 Sum of electronic and thermal Energies=             -1238.201702
 Sum of electronic and thermal Enthalpies=           -1238.200758
 Sum of electronic and thermal Free Energies=        -1238.270823

                     E (Thermal)             CV                S
                      KCal/Mol        Cal/Mol-Kelvin    Cal/Mol-Kelvin
 Total                  198.256             68.790            147.465
 Electronic               0.000              0.000              0.000
 Translational            0.889              2.981             42.724
 Rotational               0.889              2.981             33.884
 Vibrational            196.478             62.829             70.858
 Vibration     1          0.593              1.986              7.238
 Vibration     2          0.593              1.985              6.480
 Vibration     3          0.593              1.984              6.051
 Vibration     4          0.594              1.982              5.356
 Vibration     5          0.595              1.977              4.786
 Vibration     6          0.600              1.964              3.930
 Vibration     7          0.601              1.958              3.721
 Vibration     8          0.609              1.934              3.122
 Vibration     9          0.612              1.924              2.956
 Vibration    10          0.625              1.882              2.457
 Vibration    11          0.630              1.864              2.306
 Vibration    12          0.651              1.800              1.901
 Vibration    13          0.659              1.775              1.786
 Vibration    14          0.664              1.758              1.712
 Vibration    15          0.678              1.716              1.553
 Vibration    16          0.696              1.665              1.390
 Vibration    17          0.710              1.623              1.280
 Vibration    18          0.722              1.589              1.197
 Vibration    19          0.774              1.450              0.930
 Vibration    20          0.787              1.416              0.876
 Vibration    21          0.791              1.406              0.861
 Vibration    22          0.808              1.363              0.799
 Vibration    23          0.849              1.265              0.676
 Vibration    24          0.874              1.209              0.613
 Vibration    25          0.876              1.203              0.607
 Vibration    26          0.892              1.168              0.571
 Vibration    27          0.914              1.120              0.526
 Vibration    28          0.934              1.081              0.491

 Optimization completed.
    -- Stationary point found.
 Normal termination of Gaussian 16 at Mon Dec 14 14:06:32 2020.

 ----------------------------------------------------------------------
 # B3LYP/6-311++G(d,p) empiricaldispersion=gd3bj scf=xqc pop=npa geom=c
 heck
 ----------------------------------------------------------------------

 ---------------------------------------
 CID_110633005_JID_8477_Energie_neutraal
 ---------------------------------------
 Structure from the checkpoint file:  "JID_8477.chk"
 Charge =  0 Multiplicity = 1

 SCF Done:  E(RB3LYP) =  -1238.79059993     A.U. after   15 cycles
 Normal termination of Gaussian 16 at Mon Dec 14 14:13:45 2020.

 ----------------------------------------------------------------------
 # B3LYP/6-311++G(d,p) empiricaldispersion=gd3bj scf=xqc pop=npa geom=c
 heck
 ----------------------------------------------------------------------

 -------------------------------------
 CID_110633005_JID_8477_Energie_kation
 -------------------------------------
 Structure from the checkpoint file:  "JID_8477.chk"
 Charge =  1 Multiplicity = 2

 SCF Done:  E(UB3LYP) =  -1238.48972585     A.U. after   23 cycles
 Normal termination of Gaussian 16 at Mon Dec 14 14:28:58 2020.
 Gaussian 16:  ES64L-G16RevA.03 25-Dec-2016

 ----------------------------------------------------------------------
 # B3LYP/6-311++G(d,p) empiricaldispersion=gd3bj scf=xqc pop=npa geom=c
 heck
 ----------------------------------------------------------------------

 ------------------------------------
 CID_110633005_JID_8477_Energie_anion
 ------------------------------------
 Structure from the checkpoint file:  "JID_8477.chk"
 Charge = -1 Multiplicity = 2

                         Standard orientation:
 ---------------------------------------------------------------------
 Center     Atomic      Atomic             Coordinates (Angstroms)
 Number     Number       Type             X           Y           Z
 ---------------------------------------------------------------------
      1          6           0        4.749619    1.410015    1.590674
      2          6           0        4.740153    0.865825    0.159129
      3          6           0        3.941452   -0.427105   -0.006110
      4          7           0        2.520608   -0.186391    0.310977
      5         16           0        1.422251   -1.366548   -0.155427
      6          8           0        1.843260   -1.839514   -1.469530
      7          8           0        1.102091   -2.308325    0.919159
      8          7           0        0.034608   -0.357299   -0.189457
      9          8           0        0.021888    0.411054   -1.380233
     10          6           0        0.036281    1.808035   -1.062760
     11          6           0       -1.356946    2.406162   -0.924802
     12          8           0       -2.033592    1.994803    0.257237
     13          6           0       -2.840785    0.889772    0.250208
     14          6           0       -3.542804    0.664074    1.441708
     15          6           0       -4.389876   -0.432108    1.555680
     16          6           0       -4.553662   -1.319153    0.487330
     17          6           0       -3.853567   -1.091539   -0.694514
     18          6           0       -2.995406    0.005755   -0.825610
     19          1           0        3.748319    1.719505    1.913858
     20          1           0        5.397740    2.288643    1.672093
     21          1           0        5.116836    0.657340    2.299200
     22          1           0        4.334611    1.619104   -0.526812
     23          1           0        5.769365    0.660334   -0.161069
     24          1           0        3.978104   -0.768220   -1.041937
     25          1           0        4.365289   -1.220412    0.627048
     26          1           0        2.355814    0.029874    1.292133
     27          1           0       -0.794162   -0.959967   -0.213813
     28          1           0        0.622650    1.967564   -0.154529
     29          1           0        0.545223    2.284499   -1.908456
     30          1           0       -1.254106    3.493571   -0.834298
     31          1           0       -1.959999    2.198916   -1.816281
     32          1           0       -3.405083    1.361934    2.261096
     33          1           0       -4.925840   -0.595515    2.486455
     34          1           0       -5.212976   -2.176440    0.579727
     35          1           0       -3.962381   -1.773975   -1.532936
     36          1           0       -2.437875    0.141290   -1.743955
 ---------------------------------------------------------------------

 SCF Done:  E(UB3LYP) =  -1238.78169109     A.U. after   33 cycles
 SCF Done:  E(UB3LYP) =  -1238.78169109     a.u. after    1 cycles

 The electronic state is 2-A.
 Alpha  occ. eigenvalues --  -88.99328 -19.09106 -19.07217 -19.04030 -19.03893
 Alpha  occ. eigenvalues --  -14.30720 -14.26121 -10.15928 -10.14439 -10.13814
 Alpha  occ. eigenvalues --  -10.12413 -10.10187 -10.10136 -10.09563 -10.09322
 Alpha  occ. eigenvalues --  -10.09272 -10.08570 -10.07249  -8.05370  -6.01623
 Alpha  occ. eigenvalues --   -6.01589  -6.01551  -1.05468  -1.00733  -0.98600
 Alpha  occ. eigenvalues --   -0.93282  -0.84863  -0.78516  -0.77599  -0.69953
 Alpha  occ. eigenvalues --   -0.68947  -0.67374  -0.64485  -0.61297  -0.57157
 Alpha  occ. eigenvalues --   -0.54871  -0.53539  -0.50791  -0.50584  -0.46996
 Alpha  occ. eigenvalues --   -0.46906  -0.45178  -0.42647  -0.42322  -0.41548
 Alpha  occ. eigenvalues --   -0.40714  -0.38526  -0.38134  -0.37187  -0.36870
 Alpha  occ. eigenvalues --   -0.35091  -0.34861  -0.34692  -0.33326  -0.32979
 Alpha  occ. eigenvalues --   -0.31486  -0.30780  -0.28991  -0.28366  -0.27762
 Alpha  occ. eigenvalues --   -0.27270  -0.26929  -0.26504  -0.25958  -0.25357
 Alpha  occ. eigenvalues --   -0.24672  -0.24592  -0.23504  -0.21142  -0.20058
 Alpha  occ. eigenvalues --   -0.18504  -0.18197  -0.14761   0.03809
 Alpha virt. eigenvalues --    0.05386   0.05854   0.06023   0.06897   0.07193
 Alpha virt. eigenvalues --    0.07529   0.07874   0.08517   0.08697   0.09015
 Alpha virt. eigenvalues --    0.10248   0.10604   0.10947   0.11256   0.11599

  Beta  occ. eigenvalues --  -88.99325 -19.09100 -19.07216 -19.04019 -19.03886
  Beta  occ. eigenvalues --  -14.30715 -14.26100 -10.15923 -10.14409 -10.13786
  Beta  occ. eigenvalues --  -10.12404 -10.10168 -10.10133 -10.09559 -10.09311
  Beta  occ. eigenvalues --  -10.09252 -10.08548 -10.07198  -8.05366  -6.01620
  Beta  occ. eigenvalues --   -6.01585  -6.01547  -1.05447  -1.00719  -0.98590
  Beta  occ. eigenvalues --   -0.93257  -0.84830  -0.78494  -0.77576  -0.69910
  Beta  occ. eigenvalues --   -0.68909  -0.67346  -0.64447  -0.61244  -0.57108
  Beta  occ. eigenvalues --   -0.54832  -0.53496  -0.50749  -0.50498  -0.46968
  Beta  occ. eigenvalues --   -0.46879  -0.45157  -0.42632  -0.42291  -0.41516
  Beta  occ. eigenvalues --   -0.40686  -0.38490  -0.38097  -0.37163  -0.36847
  Beta  occ. eigenvalues --   -0.35044  -0.34839  -0.34654  -0.33287  -0.32940
  Beta  occ. eigenvalues --   -0.31449  -0.30749  -0.28965  -0.28340  -0.27738
  Beta  occ. eigenvalues --   -0.27241  -0.26864  -0.26468  -0.25922  -0.25322
  Beta  occ. eigenvalues --   -0.24651  -0.24571  -0.23488  -0.21117  -0.20032
  Beta  occ. eigenvalues --   -0.18479  -0.18143  -0.14710
  Beta virt. eigenvalues --    0.05544   0.05930   0.06233   0.06957   0.07140
  Beta virt. eigenvalues --    0.07293   0.07916   0.08307   0.08905   0.09091
  Beta virt. eigenvalues --    0.09398   0.10513   0.10875   0.11285   0.11537

 Mulliken charges and spin densities:
               1          2
     1  C    1.101963  -1.586366
     2  C   -0.582726   0.394722
     3  C    0.072768  -0.552561
     4  N   -0.380862  -0.034050
     5  S    0.240577   0.158226
     6  O   -0.199844  -0.002921
     7  O   -0.094856  -0.012001
     8  N   -0.460287  -0.000048
     9  O    0.133222   0.010050
    10  C    0.176879  -0.405101
    11  C    0.683056  -1.089400
    12  O   -0.010815  -0.018135
    13  C   -0.519290   0.282265
    14  C   -1.197891   1.208114
    15  C   -0.061993  -0.153086
    16  C    0.277318  -0.612134
    17  C    0.089864  -0.159571
    18  C    0.941325  -0.981016
    19  H   -0.409780   0.542569
    20  H   -0.510825   0.668642
    21  H   -0.123195   0.264781
    22  H   -0.000826   0.160519
    23  H   -0.218511   0.359224
    24  H    0.103173   0.091631
    25  H    0.064435   0.119277
    26  H    0.256565   0.047246
    27  H    0.413545  -0.076370
    28  H    0.441378  -0.221855
    29  H   -0.401887   0.572130
    30  H   -0.781850   0.972864
    31  H   -0.133370   0.325788
    32  H   -0.036162   0.212241
    33  H   -0.011864   0.175816
    34  H    0.025625   0.114339
    35  H   -0.049116   0.227990
    36  H    0.164258  -0.003818
 Sum of Mulliken charges =  -1.00000   1.00000

 Dipole moment (field-independent basis, Debye):
    X=             -5.1693    Y=             -4.4392    Z=             -0.5366  Tot=              6.8349
 Quadrupole moment (field-independent basis, Debye-Ang):
   XX=           -201.1566   YY=           -177.2308   ZZ=           -152.8907
   XY=             -9.2015   XZ=             -7.5663   YZ=              1.5141

 Summary of Natural Population Analysis:

                                       Natural Population
                Natural  -----------------------------------------------
    Atom  No    Charge         Core      Valence    Rydberg      Total
 -----------------------------------------------------------------------
      C    1   -0.29028      0.99967     2.28523    0.00538     3.29028
      C    2   -0.19530      0.99964     2.18575    0.00991     3.19530
      C    3   -0.09035      0.99961     2.08088    0.00987     3.09035
      N    4   -0.43157      0.99975     2.91908    0.01274     3.93157
      S    5    1.14351      4.99939     1.75299    0.10411     6.85649
      O    6   -0.44849      0.99990     3.44317    0.00542     4.44849
      O    7   -0.45635      0.99990     3.45107    0.00538     4.45635
      N    8   -0.26855      0.99977     2.75489    0.01389     3.76855
      O    9   -0.21891      0.99989     3.20854    0.01049     4.21891
      C   10   -0.02405      0.99957     2.01066    0.01382     3.02405
      C   11   -0.02547      0.99955     2.01277    0.01315     3.02547
      O   12   -0.27516      0.99986     3.26489    0.01041     4.27516
      C   13    0.16435      0.99937     1.82173    0.01454     2.83565
      C   14   -0.11663      0.99952     2.10745    0.00966     3.11663
      C   15   -0.09435      0.99957     2.08526    0.00951     3.09435
      C   16   -0.12058      0.99956     2.11095    0.01007     3.12058
      C   17   -0.09109      0.99957     2.08183    0.00968     3.09109
      C   18   -0.16016      0.99951     2.15214    0.00850     3.16016
      H   19    0.09706      0.00000     0.40138    0.00156     0.40294
      H   20    0.10566      0.00000     0.39259    0.00175     0.39434
      H   21    0.09616      0.00000     0.40255    0.00130     0.40384
      H   22    0.10143      0.00000     0.39706    0.00151     0.39857
      H   23    0.09912      0.00000     0.39979    0.00109     0.40088
      H   24    0.10970      0.00000     0.38891    0.00139     0.39030
      H   25    0.08701      0.00000     0.41164    0.00134     0.41299
      H   26    0.19868      0.00000     0.29917    0.00215     0.30132
      H   27    0.19393      0.00000     0.30278    0.00329     0.30607
      H   28    0.09918      0.00000     0.39856    0.00226     0.40082
      H   29    0.09883      0.00000     0.39919    0.00198     0.40117
      H   30    0.10118      0.00000     0.39646    0.00236     0.39882
      H   31    0.08764      0.00000     0.41054    0.00182     0.41236
      H   32    0.10810      0.00000     0.39076    0.00114     0.39190
      H   33    0.10062      0.00000     0.39858    0.00080     0.39938
      H   34    0.10073      0.00000     0.39847    0.00081     0.39927
      H   35    0.10129      0.00000     0.39786    0.00085     0.39871
      H   36    0.11312      0.00000     0.38493    0.00195     0.38688
 =======================================================================
   * Total *   -0.00000     21.99361    50.70051    0.30588    73.00000

 Normal termination of Gaussian 16 at Mon Dec 14 14:50:58 2020.
