 Gaussian 16, Revision A.03,

 -----------------------------------------------------------
 # opt freq B3LYP/6-31G(d) empiricaldispersion=gd3bj scf=xqc
 -----------------------------------------------------------

 -------------------------------
 CID_149461899_JID_2564_neutraal
 -------------------------------
 Symbolic Z-matrix:
 Charge =  0 Multiplicity = 1

 SCF Done:  E(RB3LYP) =  -468.057751527     A.U. after   13 cycles
 SCF Done:  E(RB3LYP) =  -468.079602014     A.U. after   12 cycles
 SCF Done:  E(RB3LYP) =  -468.081144257     A.U. after   11 cycles
 SCF Done:  E(RB3LYP) =  -468.081489351     A.U. after   10 cycles
 SCF Done:  E(RB3LYP) =  -468.079029970     A.U. after   13 cycles
 SCF Done:  E(RB3LYP) =  -468.081577469     A.U. after   10 cycles
 SCF Done:  E(RB3LYP) =  -468.081538848     A.U. after   10 cycles
 SCF Done:  E(RB3LYP) =  -468.081556623     A.U. after   10 cycles
 SCF Done:  E(RB3LYP) =  -468.081588600     A.U. after    9 cycles
 SCF Done:  E(RB3LYP) =  -468.081607401     A.U. after    9 cycles
 SCF Done:  E(RB3LYP) =  -468.083293626     A.U. after    9 cycles
 SCF Done:  E(RB3LYP) =  -468.083294738     A.U. after    9 cycles
 SCF Done:  E(RB3LYP) =  -468.083294492     A.U. after    9 cycles
 SCF Done:  E(RB3LYP) =  -468.083294685     A.U. after    8 cycles
 Optimization completed.
    -- Stationary point found.
 Normal termination of Gaussian 16 at Wed Dec  9 18:17:05 2020.

 --------------------------------------------------------------------
 #N Geom=AllCheck Guess=TCheck SCRF=Check GenChk RB3LYP/6-31G(d) Freq
 --------------------------------------------------------------------

 Structure from the checkpoint file:  "JID_2564.chk"
 -------------------------------
 CID_149461899_JID_2564_neutraal
 -------------------------------
 Charge =  0 Multiplicity = 1

 SCF Done:  E(RB3LYP) =  -468.083294685     A.U. after    1 cycles

  Exact polarizability: 153.775   4.287 106.289  -0.767  -0.056  98.079
 Approx polarizability: 205.627   9.788 144.744  -2.932  -0.912 143.443

                      1                      2                      3
                      A                      A                      A
 Frequencies --     14.6111                32.5568                57.2911
 Red. masses --      2.7961                 3.9221                 2.5185
 Frc consts  --      0.0004                 0.0024                 0.0049
 IR Inten    --      0.0021                 0.1081                 0.1869

                      4                      5                      6
                      A                      A                      A
 Frequencies --     75.5764               101.0105               124.2848
 Red. masses --      1.8363                 3.2064                 2.3500
 Frc consts  --      0.0062                 0.0193                 0.0214
 IR Inten    --      0.0456                 0.4980                 0.5201

                      7                      8                      9
                      A                      A                      A
 Frequencies --    160.5572               234.7346               305.1254
 Red. masses --      2.1605                 3.0795                 2.8838
 Frc consts  --      0.0328                 0.1000                 0.1582
 IR Inten    --      0.3240                 2.0145                 2.9503

                     10                     11                     12
                      A                      A                      A
 Frequencies --    321.4865               348.7430               410.5893
 Red. masses --      3.0324                 3.5818                 2.0416
 Frc consts  --      0.1847                 0.2567                 0.2028
 IR Inten    --      0.0292                 2.0840                 0.9583

                     13                     14                     15
                      A                      A                      A
 Frequencies --    490.3089               520.9880               638.3552
 Red. masses --      3.7516                 4.3190                 2.1043
 Frc consts  --      0.5314                 0.6907                 0.5052
 IR Inten    --      0.2693                 0.6600                 3.5467

                     16                     17                     18
                      A                      A                      A
 Frequencies --    644.2286               664.7487               762.3975
 Red. masses --      2.8776                 2.3262                 1.7098
 Frc consts  --      0.7036                 0.6056                 0.5855
 IR Inten    --      0.4096                 1.7495                 1.4572

                     19                     20                     21
                      A                      A                      A
 Frequencies --    771.3333               802.8907               825.4460
 Red. masses --      1.6224                 1.2913                 2.4334
 Frc consts  --      0.5687                 0.4905                 0.9769
 IR Inten    --      0.7263                 0.6516                 1.5398

                     22                     23                     24
                      A                      A                      A
 Frequencies --    827.9166               887.5256               894.4813
 Red. masses --      1.7426                 1.7146                 3.3704
 Frc consts  --      0.7038                 0.7957                 1.5888
 IR Inten    --      0.0452                 1.9945                 0.6087

                     25                     26                     27
                      A                      A                      A
 Frequencies --    907.7835               909.4789               916.6382
 Red. masses --      2.0066                 1.8853                 2.5666
 Frc consts  --      0.9743                 0.9188                 1.2706
 IR Inten    --      1.7514                 0.1397                 1.3442

                     28                     29                     30
                      A                      A                      A
 Frequencies --    940.8483               972.4135               975.6921
 Red. masses --      2.3195                 1.4454                 1.4233
 Frc consts  --      1.2097                 0.8053                 0.7983
 IR Inten    --      0.8988                 0.2886                 1.3500

                     31                     32                     33
                      A                      A                      A
 Frequencies --    979.4757              1027.9227              1059.2036
 Red. masses --      2.4652                 1.6982                 2.2711
 Frc consts  --      1.3934                 1.0572                 1.5012
 IR Inten    --      0.4071                 0.2901                 0.1989

                     34                     35                     36
                      A                      A                      A
 Frequencies --   1064.6734              1095.3322              1115.2083
 Red. masses --      2.1172                 1.6674                 2.7361
 Frc consts  --      1.4140                 1.1787                 2.0049
 IR Inten    --      0.0317                 1.4764                 0.5883

                     37                     38                     39
                      A                      A                      A
 Frequencies --   1132.3229              1144.4521              1180.5233
 Red. masses --      1.8461                 1.6890                 1.5500
 Frc consts  --      1.3946                 1.3034                 1.2728
 IR Inten    --      2.0302                 1.2094                 0.0184

                     40                     41                     42
                      A                      A                      A
 Frequencies --   1208.0128              1210.4465              1228.1980
 Red. masses --      1.3785                 1.3371                 1.3785
 Frc consts  --      1.1852                 1.1543                 1.2251
 IR Inten    --      0.1716                 0.1870                 1.3966

                     43                     44                     45
                      A                      A                      A
 Frequencies --   1245.4607              1247.0545              1268.5036
 Red. masses --      1.3418                 1.3422                 1.3185
 Frc consts  --      1.2263                 1.2298                 1.2500
 IR Inten    --      0.0081                 0.6200                 0.0979

                     46                     47                     48
                      A                      A                      A
 Frequencies --   1273.8459              1280.6166              1289.5017
 Red. masses --      1.1865                 1.3646                 1.3572
 Frc consts  --      1.1343                 1.3186                 1.3297
 IR Inten    --      0.1161                 1.6681                 0.2403

                     49                     50                     51
                      A                      A                      A
 Frequencies --   1298.7469              1310.9881              1326.4618
 Red. masses --      1.1763                 1.3667                 1.3268
 Frc consts  --      1.1690                 1.3840                 1.3755
 IR Inten    --      0.9460                 4.1562                 0.3314

                     52                     53                     54
                      A                      A                      A
 Frequencies --   1327.1588              1349.5506              1364.1885
 Red. masses --      1.2782                 1.5142                 1.5221
 Frc consts  --      1.3264                 1.6248                 1.6690
 IR Inten    --      1.3540                16.2988                 0.0665

                     55                     56                     57
                      A                      A                      A
 Frequencies --   1366.3955              1391.0176              1398.8810
 Red. masses --      1.4070                 1.4807                 1.5121
 Frc consts  --      1.5478                 1.6880                 1.7434
 IR Inten    --      0.0688                19.8157                 7.3950

                     58                     59                     60
                      A                      A                      A
 Frequencies --   1503.4064              1508.5934              1510.4448
 Red. masses --      1.0877                 1.0907                 1.0796
 Frc consts  --      1.4484                 1.4625                 1.4513
 IR Inten    --      1.4101                 0.8716                 0.2639

                     61                     62                     63
                      A                      A                      A
 Frequencies --   1515.5777              1520.1175              1523.3918
 Red. masses --      1.0835                 1.0904                 1.0846
 Frc consts  --      1.4664                 1.4845                 1.4829
 IR Inten    --      3.7473                 2.4452                 2.1579

                     64                     65                     66
                      A                      A                      A
 Frequencies --   1541.0801              1545.1198              2363.9056
 Red. masses --      1.1376                 1.1038                11.8497
 Frc consts  --      1.5918                 1.5526                39.0137
 IR Inten    --      0.6426                 1.8224                 0.6712

                     67                     68                     69
                      A                      A                      A
 Frequencies --   3015.7618              3044.4679              3047.3870
 Red. masses --      1.0594                 1.0975                 1.0756
 Frc consts  --      5.6768                 5.9937                 5.8850
 IR Inten    --     35.6409                10.5753                 7.4656

                     70                     71                     72
                      A                      A                      A
 Frequencies --   3050.4367              3057.2845              3061.3640
 Red. masses --      1.0675                 1.0608                 1.0692
 Frc consts  --      5.8526                 5.8419                 5.9041
 IR Inten    --     16.6296                59.3405                18.6084

                     73                     74                     75
                      A                      A                      A
 Frequencies --   3063.8786              3066.4793              3069.4192
 Red. masses --      1.0744                 1.0607                 1.0788
 Frc consts  --      5.9426                 5.8764                 5.9882
 IR Inten    --    103.5546                17.6689                34.2022

                     76                     77                     78
                      A                      A                      A
 Frequencies --   3071.6639              3078.0874              3098.0268
 Red. masses --      1.0618                 1.0631                 1.1039
 Frc consts  --      5.9027                 5.9348                 6.2422
 IR Inten    --     39.7110                30.4172                12.7288

                     79                     80                     81
                      A                      A                      A
 Frequencies --   3108.8720              3113.9753              3114.5664
 Red. masses --      1.1047                 1.1049                 1.1013
 Frc consts  --      6.2909                 6.3123                 6.2945
 IR Inten    --     17.7717                37.7890                 1.1017

                     82                     83                     84
                      A                      A                      A
 Frequencies --   3120.2715              3127.6537              3128.9937
 Red. masses --      1.1004                 1.1047                 1.1076
 Frc consts  --      6.3123                 6.3670                 6.3894
 IR Inten    --     26.5842                87.7880                77.4355

 - Thermochemistry -
 -------------------
 Temperature   298.150 Kelvin.  Pressure   1.00000 Atm.
 Atom     1 has atomic number  6 and mass  12.00000

 Molecular mass:   162.14085 amu.
 Principal axes and moments of inertia in atomic units:
                           1         2         3
     Eigenvalues --  1018.156884003.483274448.32161
           X            0.99999   0.00374  -0.00083
           Y           -0.00374   0.99999   0.00111
           Z            0.00083  -0.00111   1.00000
 This molecule is an asymmetric top.
 Rotational symmetry number  1.
 Warning -- assumption of classical behavior for rotation
           may cause significant error
 Rotational temperatures (Kelvin)      0.08507     0.02163     0.01947
 Rotational constants (GHZ):           1.77256     0.45079     0.40571
 Zero-point vibrational energy     715931.6 (Joules/Mol)
                                  171.11175 (Kcal/Mol)
 Warning -- explicit consideration of  14 degrees of freedom as
           vibrations may cause significant error
 Vibrational temperatures:     21.02    46.84    82.43   108.74   145.33
          (Kelvin)            178.82   231.01   337.73   439.01   462.55
                              501.76   590.75   705.45   749.59   918.45
                              926.90   956.43  1096.92  1109.78  1155.18
                             1187.63  1191.19  1276.95  1286.96  1306.10
                             1308.54  1318.84  1353.67  1399.09  1403.80
                             1409.25  1478.95  1523.96  1531.83  1575.94
                             1604.54  1629.16  1646.61  1698.51  1738.06
                             1741.56  1767.10  1791.94  1794.23  1825.09
                             1832.78  1842.52  1855.31  1868.61  1886.22
                             1908.48  1909.49  1941.70  1962.76  1965.94
                             2001.36  2012.68  2163.07  2170.53  2173.19
                             2180.58  2187.11  2191.82  2217.27  2223.08
                             3401.13  4339.01  4380.31  4384.51  4388.90
                             4398.75  4404.62  4408.24  4411.98  4416.21
                             4419.44  4428.68  4457.37  4472.97  4480.32
                             4481.17  4489.37  4500.00  4501.92

 Zero-point correction=                           0.272684 (Hartree/Particle)
 Thermal correction to Energy=                    0.285048
 Thermal correction to Enthalpy=                  0.285992
 Thermal correction to Gibbs Free Energy=         0.231247
 Sum of electronic and zero-point Energies=           -467.810611
 Sum of electronic and thermal Energies=              -467.798247
 Sum of electronic and thermal Enthalpies=            -467.797303
 Sum of electronic and thermal Free Energies=         -467.852048

                     E (Thermal)             CV                S
                      KCal/Mol        Cal/Mol-Kelvin    Cal/Mol-Kelvin
 Total                  178.870             45.949            115.222
 Electronic               0.000              0.000              0.000
 Translational            0.889              2.981             41.159
 Rotational               0.889              2.981             31.273
 Vibrational            177.093             39.987             42.790
 Vibration     1          0.593              1.986              7.258
 Vibration     2          0.594              1.983              5.667
 Vibration     3          0.596              1.975              4.548
 Vibration     4          0.599              1.965              4.003
 Vibration     5          0.604              1.948              3.435
 Vibration     6          0.610              1.929              3.033
 Vibration     7          0.622              1.891              2.543
 Vibration     8          0.655              1.788              1.842
 Vibration     9          0.696              1.664              1.389
 Vibration    10          0.707              1.632              1.303
 Vibration    11          0.726              1.578              1.172
 Vibration    12          0.775              1.447              0.925
 Vibration    13          0.846              1.272              0.683
 Vibration    14          0.876              1.204              0.608

 Optimization completed.
    -- Stationary point found.
 Normal termination of Gaussian 16 at Wed Dec  9 18:24:14 2020.

 ----------------------------------------------------------------------
 # B3LYP/6-311++G(d,p) empiricaldispersion=gd3bj scf=xqc pop=npa geom=c
 heck
 ----------------------------------------------------------------------

 ---------------------------------------
 CID_149461899_JID_2564_Energie_neutraal
 ---------------------------------------
 Structure from the checkpoint file:  "JID_2564.chk"
 Charge =  0 Multiplicity = 1

 SCF Done:  E(RB3LYP) =  -468.208128202     A.U. after   12 cycles
 Normal termination of Gaussian 16 at Wed Dec  9 18:27:14 2020.

 ----------------------------------------------------------------------
 # B3LYP/6-311++G(d,p) empiricaldispersion=gd3bj scf=xqc pop=npa geom=c
 heck
 ----------------------------------------------------------------------

 -------------------------------------
 CID_149461899_JID_2564_Energie_kation
 -------------------------------------
 Structure from the checkpoint file:  "JID_2564.chk"
 Charge =  1 Multiplicity = 2

 SCF Done:  E(UB3LYP) =  -467.883176998     A.U. after   33 cycles
 SCF Done:  E(UB3LYP) =  -467.883176998     a.u. after    1 cycles
 Normal termination of Gaussian 16 at Wed Dec  9 18:38:32 2020.
 Gaussian 16:  ES64L-G16RevA.03 25-Dec-2016

 ----------------------------------------------------------------------
 # B3LYP/6-311++G(d,p) empiricaldispersion=gd3bj scf=xqc pop=npa geom=c
 heck
 ----------------------------------------------------------------------

 ------------------------------------
 CID_149461899_JID_2564_Energie_anion
 ------------------------------------
 Structure from the checkpoint file:  "JID_2564.chk"
 Charge = -1 Multiplicity = 2

                         Standard orientation:
 ---------------------------------------------------------------------
 Center     Atomic      Atomic             Coordinates (Angstroms)
 Number     Number       Type             X           Y           Z
 ---------------------------------------------------------------------
      1          6           0        2.290556    1.319077   -0.835585
      2          6           0        2.361182    1.362688    0.720191
      3          6           0        2.878603   -0.026513    1.155161
      4          6           0        2.456898   -0.968129   -0.000143
      5          6           0        2.774067   -0.091885   -1.237391
      6          6           0        1.028082   -1.282071    0.070075
      7          6           0       -0.165809   -1.470510    0.129296
      8          6           0       -1.622703   -1.589765    0.180384
      9          6           0       -2.300681   -0.340996   -0.392792
     10          6           0       -3.827492   -0.152577   -0.183049
     11          6           0       -3.563696    1.357011    0.062574
     12          6           0       -2.074116    1.012395    0.329799
     13          1           0        2.896880    2.100796   -1.303801
     14          1           0        1.258665    1.468657   -1.168765
     15          1           0        3.008905    2.165399    1.086326
     16          1           0        1.364218    1.537417    1.136315
     17          1           0        2.487923   -0.347526    2.124744
     18          1           0        3.974009   -0.026190    1.217001
     19          1           0        3.045080   -1.894216   -0.000663
     20          1           0        2.302644   -0.465236   -2.150748
     21          1           0        3.860106   -0.095625   -1.393143
     22          1           0       -1.957580   -2.481859   -0.367914
     23          1           0       -1.949833   -1.727627    1.221451
     24          1           0       -2.044567   -0.246140   -1.454463
     25          1           0       -4.495089   -0.432710   -1.003945
     26          1           0       -4.166218   -0.656447    0.730056
     27          1           0       -4.124250    1.845660    0.865165
     28          1           0       -3.686342    1.943087   -0.854174
     29          1           0       -1.877434    0.859598    1.397392
     30          1           0       -1.306465    1.680602   -0.071957
 ---------------------------------------------------------------------

 SCF Done:  E(UB3LYP) =  -468.191421131     A.U. after   33 cycles
 SCF Done:  E(UB3LYP) =  -468.191421131     a.u. after    1 cycles

 The electronic state is 2-A.
 Alpha  occ. eigenvalues --  -10.09171 -10.09015 -10.07997 -10.07076 -10.07026
 Alpha  occ. eigenvalues --  -10.06688 -10.06472 -10.06468 -10.05996 -10.05972
 Alpha  occ. eigenvalues --  -10.05774 -10.05510  -0.75544  -0.74392  -0.67872
 Alpha  occ. eigenvalues --   -0.63455  -0.60763  -0.59104  -0.56236  -0.53173
 Alpha  occ. eigenvalues --   -0.48688  -0.46194  -0.45254  -0.39587  -0.38992
 Alpha  occ. eigenvalues --   -0.38408  -0.37237  -0.36259  -0.33638  -0.33303
 Alpha  occ. eigenvalues --   -0.31985  -0.29121  -0.27923  -0.25531  -0.25244
 Alpha  occ. eigenvalues --   -0.24766  -0.24610  -0.23846  -0.23540  -0.22676
 Alpha  occ. eigenvalues --   -0.21651  -0.21318  -0.21017  -0.15218  -0.15040
 Alpha  occ. eigenvalues --    0.04501
 Alpha virt. eigenvalues --    0.06058   0.07368   0.07492   0.08263   0.08510
 Alpha virt. eigenvalues --    0.08765   0.10027   0.10339   0.10765   0.11077
 Alpha virt. eigenvalues --    0.11310   0.11718   0.12148   0.13490   0.13920

  Beta  occ. eigenvalues --  -10.09157 -10.09006 -10.07988 -10.07057 -10.07004
  Beta  occ. eigenvalues --  -10.06676 -10.06450 -10.06448 -10.05982 -10.05956
  Beta  occ. eigenvalues --  -10.05772 -10.05507  -0.75521  -0.74363  -0.67850
  Beta  occ. eigenvalues --   -0.63426  -0.60717  -0.59074  -0.56187  -0.53124
  Beta  occ. eigenvalues --   -0.48637  -0.46139  -0.45197  -0.39555  -0.38942
  Beta  occ. eigenvalues --   -0.38350  -0.37204  -0.36230  -0.33616  -0.33282
  Beta  occ. eigenvalues --   -0.31950  -0.29093  -0.27887  -0.25493  -0.25215
  Beta  occ. eigenvalues --   -0.24737  -0.24576  -0.23808  -0.23509  -0.22640
  Beta  occ. eigenvalues --   -0.21623  -0.21287  -0.20986  -0.15198  -0.15026
  Beta virt. eigenvalues --    0.06536   0.07150   0.07851   0.07913   0.08745
  Beta virt. eigenvalues --    0.09072   0.09330   0.10287   0.10576   0.11253
  Beta virt. eigenvalues --    0.11553   0.11621   0.12016   0.12419   0.13741

 Mulliken charges and spin densities:
               1          2
     1  C   -0.018097  -0.258019
     2  C    0.113824  -0.302229
     3  C    0.845546  -1.589903
     4  C   -3.506062   4.039181
     5  C    0.857003  -1.534069
     6  C    2.036657  -1.948375
     7  C   -0.686905   0.808512
     8  C    2.255889  -3.247754
     9  C   -1.960651   2.747802
    10  C    1.190571  -1.788965
    11  C    0.263479  -0.570472
    12  C    0.267244  -0.729623
    13  H   -0.236681   0.393876
    14  H   -0.162412   0.279125
    15  H   -0.212587   0.371816
    16  H    0.005451   0.115948
    17  H    0.013292   0.134869
    18  H   -0.456181   0.618819
    19  H   -0.401708   0.656450
    20  H    0.006910   0.139099
    21  H   -0.377747   0.538690
    22  H    0.038955   0.118470
    23  H   -0.148250   0.303325
    24  H   -0.201292   0.397825
    25  H   -0.345676   0.489826
    26  H   -0.002930   0.126508
    27  H   -0.214836   0.348339
    28  H   -0.102994   0.244808
    29  H   -0.096245   0.255721
    30  H    0.236433  -0.159602
 Sum of Mulliken charges =  -1.00000   1.00000

 Dipole moment (field-independent basis, Debye):
    X=             -2.4167    Y=             -0.7658    Z=              0.6821  Tot=              2.6253
 Quadrupole moment (field-independent basis, Debye-Ang):
   XX=           -169.9525   YY=           -112.5681   ZZ=           -109.4834
   XY=             -0.5001   XZ=             -2.3512   YZ=              0.7715

 Summary of Natural Population Analysis:

                                       Natural Population
                Natural  -----------------------------------------------
    Atom  No    Charge         Core      Valence    Rydberg      Total
 -----------------------------------------------------------------------
      C    1   -0.19582      0.99965     2.18818    0.00799     3.19582
      C    2   -0.19573      0.99965     2.18841    0.00767     3.19573
      C    3   -0.18076      0.99963     2.17275    0.00838     3.18076
      C    4   -0.14588      0.99955     2.13516    0.01116     3.14588
      C    5   -0.18069      0.99963     2.17272    0.00834     3.18069
      C    6   -0.00412      0.99925     1.99627    0.00861     3.00412
      C    7   -0.01101      0.99926     2.00472    0.00703     3.01101
      C    8   -0.22103      0.99955     2.21320    0.00827     3.22103
      C    9   -0.10177      0.99960     2.09057    0.01160     3.10177
      C   10   -0.18673      0.99963     2.17882    0.00828     3.18673
      C   11   -0.18787      0.99965     2.18103    0.00719     3.18787
      C   12   -0.18536      0.99963     2.17859    0.00714     3.18536
      H   13    0.09958      0.00000     0.39916    0.00126     0.40042
      H   14    0.09851      0.00000     0.40000    0.00150     0.40149
      H   15    0.09929      0.00000     0.39954    0.00117     0.40071
      H   16    0.09860      0.00000     0.39995    0.00145     0.40140
      H   17    0.10179      0.00000     0.39725    0.00096     0.39821
      H   18    0.09826      0.00000     0.39968    0.00206     0.40174
      H   19    0.11212      0.00000     0.38632    0.00156     0.38788
      H   20    0.10202      0.00000     0.39696    0.00102     0.39798
      H   21    0.09794      0.00000     0.40016    0.00190     0.40206
      H   22    0.10888      0.00000     0.38983    0.00130     0.39112
      H   23    0.10615      0.00000     0.39221    0.00165     0.39385
      H   24    0.09824      0.00000     0.40035    0.00141     0.40176
      H   25    0.09762      0.00000     0.40090    0.00148     0.40238
      H   26    0.09364      0.00000     0.40487    0.00149     0.40636
      H   27    0.09416      0.00000     0.40450    0.00134     0.40584
      H   28    0.09531      0.00000     0.40300    0.00169     0.40469
      H   29    0.09503      0.00000     0.40343    0.00154     0.40497
      H   30    0.09963      0.00000     0.39907    0.00130     0.40037
 =======================================================================
   * Total *    0.00000     11.99467    32.87761    0.12771    45.00000

 Normal termination of Gaussian 16 at Wed Dec  9 18:49:51 2020.
