 Gaussian 16, Revision A.03,

 -----------------------------------------------------------
 # opt freq B3LYP/6-31G(d) empiricaldispersion=gd3bj scf=xqc
 -----------------------------------------------------------

 -------------------------------
 CID_141084931_JID_2745_neutraal
 -------------------------------
 Symbolic Z-matrix:
 Charge =  0 Multiplicity = 1

 SCF Done:  E(RB3LYP) =  -945.706204438     A.U. after   15 cycles
 SCF Done:  E(RB3LYP) =  -945.712509261     A.U. after   13 cycles
 SCF Done:  E(RB3LYP) =  -945.712676245     A.U. after   12 cycles
 SCF Done:  E(RB3LYP) =  -945.712929689     A.U. after   12 cycles
 SCF Done:  E(RB3LYP) =  -945.713288919     A.U. after   11 cycles
 SCF Done:  E(RB3LYP) =  -945.713513902     A.U. after   12 cycles
 SCF Done:  E(RB3LYP) =  -945.714076521     A.U. after   14 cycles
 SCF Done:  E(RB3LYP) =  -945.714284477     A.U. after   11 cycles
 SCF Done:  E(RB3LYP) =  -945.714501135     A.U. after   12 cycles
 SCF Done:  E(RB3LYP) =  -945.714679860     A.U. after   12 cycles
 SCF Done:  E(RB3LYP) =  -945.714990551     A.U. after    9 cycles
 SCF Done:  E(RB3LYP) =  -945.714991187     A.U. after    8 cycles
 SCF Done:  E(RB3LYP) =  -945.714992256     A.U. after    9 cycles
 SCF Done:  E(RB3LYP) =  -945.714992796     A.U. after    9 cycles
 SCF Done:  E(RB3LYP) =  -945.714993119     A.U. after    8 cycles
 SCF Done:  E(RB3LYP) =  -945.714993180     A.U. after    7 cycles
 Optimization completed.
    -- Stationary point found.
 Normal termination of Gaussian 16 at Wed Dec  9 17:33:19 2020.

 --------------------------------------------------------------------
 #N Geom=AllCheck Guess=TCheck SCRF=Check GenChk RB3LYP/6-31G(d) Freq
 --------------------------------------------------------------------

 Structure from the checkpoint file:  "JID_2745.chk"
 -------------------------------
 CID_141084931_JID_2745_neutraal
 -------------------------------
 Charge =  0 Multiplicity = 1

 SCF Done:  E(RB3LYP) =  -945.714993180     A.U. after    1 cycles

  Exact polarizability: 117.265   5.671 100.990   7.649  -7.057  74.834
 Approx polarizability: 177.780  12.155 160.621  16.741 -20.189 134.890

                      1                      2                      3
                      A                      A                      A
 Frequencies --     44.3496                53.2648                79.9898
 Red. masses --      5.9336                 2.8701                 5.5753
 Frc consts  --      0.0069                 0.0048                 0.0210
 IR Inten    --      0.3071                 4.4365                 2.9459

                      4                      5                      6
                      A                      A                      A
 Frequencies --     91.3073               100.5677               122.3352
 Red. masses --      4.8423                 1.3664                 7.8207
 Frc consts  --      0.0238                 0.0081                 0.0690
 IR Inten    --      4.0140                 0.4054                 2.6543

                      7                      8                      9
                      A                      A                      A
 Frequencies --    200.6329               247.8824               290.2701
 Red. masses --      5.7063                 1.3695                 2.1705
 Frc consts  --      0.1353                 0.0496                 0.1077
 IR Inten    --      0.6131                19.2697                 3.1288

                     10                     11                     12
                      A                      A                      A
 Frequencies --    306.2985               346.2185               431.8167
 Red. masses --      6.1620                 3.4073                 5.1457
 Frc consts  --      0.3406                 0.2406                 0.5653
 IR Inten    --      2.4812                 2.4811                 1.7421

                     13                     14                     15
                      A                      A                      A
 Frequencies --    474.4220               540.2835               575.4410
 Red. masses --      4.4747                 6.5998                 6.7659
 Frc consts  --      0.5934                 1.1351                 1.3200
 IR Inten    --      2.1181                 7.8604                 9.0326

                     16                     17                     18
                      A                      A                      A
 Frequencies --    587.6270               635.5121               695.3101
 Red. masses --      3.1368                 6.4965                 5.9311
 Frc consts  --      0.6382                 1.5459                 1.6894
 IR Inten    --      7.5884                 5.3018                 1.7517

                     19                     20                     21
                      A                      A                      A
 Frequencies --    705.0202               776.9707               798.4848
 Red. masses --      4.9863                 5.5289                 1.7215
 Frc consts  --      1.4603                 1.9665                 0.6467
 IR Inten    --      7.2422                 6.0321                 4.8471

                     22                     23                     24
                      A                      A                      A
 Frequencies --    837.7373               888.9158               940.2917
 Red. masses --      3.4407                 6.1121                 5.8593
 Frc consts  --      1.4227                 2.8455                 3.0522
 IR Inten    --     11.1724                15.6194                57.6342

                     25                     26                     27
                      A                      A                      A
 Frequencies --    959.9617              1007.2208              1030.1076
 Red. masses --      1.4347                 2.1474                 1.8715
 Frc consts  --      0.7790                 1.2836                 1.1701
 IR Inten    --      7.8713                 0.5517               124.0037

                     28                     29                     30
                      A                      A                      A
 Frequencies --   1053.8641              1076.8435              1123.4193
 Red. masses --      3.8636                 1.7298                 5.2395
 Frc consts  --      2.5282                 1.1818                 3.8961
 IR Inten    --      2.8172                 6.9721                 5.3101

                     31                     32                     33
                      A                      A                      A
 Frequencies --   1194.9764              1219.4946              1235.8679
 Red. masses --      1.6367                 3.6082                 2.0878
 Frc consts  --      1.3770                 3.1615                 1.8788
 IR Inten    --     19.8930               575.5789                 1.2890

                     34                     35                     36
                      A                      A                      A
 Frequencies --   1292.9941              1301.5919              1349.1545
 Red. masses --      3.1613                 1.3213                 3.5468
 Frc consts  --      3.1139                 1.3189                 3.8037
 IR Inten    --     13.2601                18.2898                 2.1098

                     37                     38                     39
                      A                      A                      A
 Frequencies --   1422.9886              1433.3272              1496.6453
 Red. masses --      1.5429                 2.2810                 1.0485
 Frc consts  --      1.8407                 2.7610                 1.3837
 IR Inten    --     93.5968                 6.8803                14.3662

                     40                     41                     42
                      A                      A                      A
 Frequencies --   1501.3409              1512.7632              1571.6900
 Red. masses --      1.0457                 1.1054                 7.0637
 Frc consts  --      1.3888                 1.4905                10.2806
 IR Inten    --      9.3799                 8.7318                90.0788

                     43                     44                     45
                      A                      A                      A
 Frequencies --   1618.5082              1863.7034              2690.0877
 Red. masses --      6.7897                11.6188                 1.0383
 Frc consts  --     10.4792                23.7775                 4.4271
 IR Inten    --      9.5533               178.5486                 7.4415

                     46                     47                     48
                      A                      A                      A
 Frequencies --   3076.2927              3106.1237              3139.9489
 Red. masses --      1.0371                 1.0600                 1.1006
 Frc consts  --      5.7825                 6.0253                 6.3930
 IR Inten    --      0.4210                 5.4926                 1.8413

                     49                     50                     51
                      A                      A                      A
 Frequencies --   3161.0827              3191.8648              3195.9460
 Red. masses --      1.1062                 1.1037                 1.0923
 Frc consts  --      6.5125                 6.6250                 6.5736
 IR Inten    --      0.6287                 4.0354                 7.7162

 - Thermochemistry -
 -------------------
 Temperature   298.150 Kelvin.  Pressure   1.00000 Atm.
 Atom     1 has atomic number  6 and mass  12.00000

 Molecular mass:   185.02590 amu.
 Principal axes and moments of inertia in atomic units:
                           1         2         3
     Eigenvalues --  1872.371832382.838053623.52272
           X            0.99499  -0.09823   0.01845
           Y            0.09855   0.99498  -0.01733
           Z           -0.01665   0.01907   0.99968
 This molecule is an asymmetric top.
 Rotational symmetry number  1.
 Warning -- assumption of classical behavior for rotation
           may cause significant error
 Rotational temperatures (Kelvin)      0.04626     0.03635     0.02390
 Rotational constants (GHZ):           0.96388     0.75739     0.49806
 Zero-point vibrational energy     350498.4 (Joules/Mol)
                                   83.77113 (Kcal/Mol)
 Warning -- explicit consideration of  16 degrees of freedom as
           vibrations may cause significant error
 Vibrational temperatures:     63.81    76.64   115.09   131.37   144.69
          (Kelvin)            176.01   288.67   356.65   417.63   440.70
                              498.13   621.29   682.59   777.35   827.93
                              845.46   914.36  1000.40  1014.37  1117.89
                             1148.84  1205.32  1278.95  1352.87  1381.17
                             1449.17  1482.10  1516.28  1549.34  1616.35
                             1719.30  1754.58  1778.14  1860.33  1872.70
                             1941.13  2047.36  2062.24  2153.34  2160.09
                             2176.53  2261.31  2328.67  2681.45  3870.44
                             4426.10  4469.02  4517.69  4548.09  4592.38
                             4598.25

 Zero-point correction=                           0.133498 (Hartree/Particle)
 Thermal correction to Energy=                    0.145284
 Thermal correction to Enthalpy=                  0.146228
 Thermal correction to Gibbs Free Energy=         0.093891
 Sum of electronic and zero-point Energies=           -945.581495
 Sum of electronic and thermal Energies=              -945.569709
 Sum of electronic and thermal Enthalpies=            -945.568765
 Sum of electronic and thermal Free Energies=         -945.621102

                     E (Thermal)             CV                S
                      KCal/Mol        Cal/Mol-Kelvin    Cal/Mol-Kelvin
 Total                   91.167             41.350            110.152
 Electronic               0.000              0.000              0.000
 Translational            0.889              2.981             41.552
 Rotational               0.889              2.981             31.159
 Vibrational             89.389             35.389             37.441
 Vibration     1          0.595              1.980              5.055
 Vibration     2          0.596              1.976              4.692
 Vibration     3          0.600              1.963              3.891
 Vibration     4          0.602              1.955              3.632
 Vibration     5          0.604              1.949              3.443
 Vibration     6          0.610              1.930              3.063
 Vibration     7          0.638              1.839              2.127
 Vibration     8          0.662              1.766              1.746
 Vibration     9          0.686              1.692              1.472
 Vibration    10          0.697              1.662              1.382
 Vibration    11          0.724              1.583              1.183
 Vibration    12          0.793              1.401              0.853
 Vibration    13          0.831              1.307              0.725
 Vibration    14          0.895              1.161              0.565
 Vibration    15          0.932              1.084              0.494
 Vibration    16          0.945              1.058              0.471

 Optimization completed.
    -- Stationary point found.
 Normal termination of Gaussian 16 at Wed Dec  9 17:37:38 2020.

 ----------------------------------------------------------------------
 # B3LYP/6-311++G(d,p) empiricaldispersion=gd3bj scf=xqc pop=npa geom=c
 heck
 ----------------------------------------------------------------------

 ---------------------------------------
 CID_141084931_JID_2745_Energie_neutraal
 ---------------------------------------
 Structure from the checkpoint file:  "JID_2745.chk"
 Charge =  0 Multiplicity = 1

 SCF Done:  E(RB3LYP) =  -945.896316523     A.U. after   15 cycles
 Normal termination of Gaussian 16 at Wed Dec  9 17:39:19 2020.

 ----------------------------------------------------------------------
 # B3LYP/6-311++G(d,p) empiricaldispersion=gd3bj scf=xqc pop=npa geom=c
 heck
 ----------------------------------------------------------------------

 -------------------------------------
 CID_141084931_JID_2745_Energie_kation
 -------------------------------------
 Structure from the checkpoint file:  "JID_2745.chk"
 Charge =  1 Multiplicity = 2

 SCF Done:  E(UB3LYP) =  -945.555994336     A.U. after   28 cycles
 Normal termination of Gaussian 16 at Wed Dec  9 17:45:35 2020.
 Gaussian 16:  ES64L-G16RevA.03 25-Dec-2016

 ----------------------------------------------------------------------
 # B3LYP/6-311++G(d,p) empiricaldispersion=gd3bj scf=xqc pop=npa geom=c
 heck
 ----------------------------------------------------------------------

 ------------------------------------
 CID_141084931_JID_2745_Energie_anion
 ------------------------------------
 Structure from the checkpoint file:  "JID_2745.chk"
 Charge = -1 Multiplicity = 2

                         Standard orientation:
 ---------------------------------------------------------------------
 Center     Atomic      Atomic             Coordinates (Angstroms)
 Number     Number       Type             X           Y           Z
 ---------------------------------------------------------------------
      1          6           0       -3.244193    1.175561   -0.320705
      2          6           0       -1.880338    1.037259    0.292345
      3          8           0       -1.580407    1.166821    1.450016
      4          8           0       -0.954850    0.715755   -0.687693
      5          6           0        0.376959    0.656370   -0.319542
      6          7           0        1.114578    1.668981   -0.748570
      7          7           0        2.425118    1.675617   -0.522391
      8          7           0        3.004022    0.683660    0.132774
      9          6           0        2.263495   -0.341370    0.574573
     10          6           0        0.889632   -0.433698    0.381313
     11          6           0        0.065230   -1.590391    0.853789
     12         16           0       -0.446247   -2.720839   -0.517306
     13          1           0       -3.971175    1.396088    0.460712
     14          1           0       -3.518212    0.252090   -0.840754
     15          1           0       -3.233387    1.979428   -1.063473
     16          1           0        2.808746   -1.118652    1.104844
     17          1           0        0.653290   -2.218618    1.527392
     18          1           0       -0.812821   -1.244237    1.401065
     19          1           0       -1.135174   -1.793497   -1.214805
 ---------------------------------------------------------------------

 SCF Done:  E(UB3LYP) =  -945.921821977     A.U. after   26 cycles

 The electronic state is 2-A.
 Alpha  occ. eigenvalues --  -88.71690 -19.05969 -19.01817 -14.17429 -14.17278
 Alpha  occ. eigenvalues --  -14.16985 -10.21032 -10.11764 -10.09636 -10.08192
 Alpha  occ. eigenvalues --  -10.05774 -10.02908  -7.80418  -5.76785  -5.76455
 Alpha  occ. eigenvalues --   -5.75808  -1.00699  -0.93076  -0.88375  -0.73522
 Alpha  occ. eigenvalues --   -0.70282  -0.66953  -0.63774  -0.56056  -0.53999
 Alpha  occ. eigenvalues --   -0.49616  -0.46155  -0.40508  -0.40080  -0.38392
 Alpha  occ. eigenvalues --   -0.36546  -0.33785  -0.32848  -0.31471  -0.31221
 Alpha  occ. eigenvalues --   -0.30117  -0.28222  -0.26866  -0.26686  -0.23322
 Alpha  occ. eigenvalues --   -0.21030  -0.20506  -0.18879  -0.16178  -0.14679
 Alpha  occ. eigenvalues --   -0.11973  -0.10336  -0.07934   0.03958
 Alpha virt. eigenvalues --    0.07038   0.08701   0.09556   0.09881   0.11028
 Alpha virt. eigenvalues --    0.11628   0.11950   0.12293   0.13286   0.13844
 Alpha virt. eigenvalues --    0.15448   0.15744   0.16988   0.17200   0.17624

  Beta  occ. eigenvalues --  -88.71632 -19.05973 -19.01816 -14.17319 -14.16887
  Beta  occ. eigenvalues --  -14.16350 -10.21024 -10.11736 -10.09632 -10.08194
  Beta  occ. eigenvalues --  -10.05724 -10.02425  -7.80357  -5.76700  -5.76363
  Beta  occ. eigenvalues --   -5.75767  -1.00678  -0.93032  -0.87468  -0.73091
  Beta  occ. eigenvalues --   -0.69659  -0.66846  -0.63284  -0.55526  -0.53658
  Beta  occ. eigenvalues --   -0.49258  -0.45861  -0.40365  -0.39925  -0.38324
  Beta  occ. eigenvalues --   -0.36461  -0.33607  -0.32732  -0.31333  -0.30720
  Beta  occ. eigenvalues --   -0.29899  -0.27746  -0.26581  -0.25470  -0.22856
  Beta  occ. eigenvalues --   -0.20833  -0.20132  -0.18795  -0.15015  -0.12652
  Beta  occ. eigenvalues --   -0.11058  -0.10129  -0.06947
  Beta virt. eigenvalues --    0.06922   0.08717   0.09399   0.09774   0.10913
  Beta virt. eigenvalues --    0.11332   0.11942   0.12141   0.12640   0.13231
  Beta virt. eigenvalues --    0.14385   0.15435   0.15725   0.16932   0.17249

 Mulliken charges and spin densities:
               1          2
     1  C   -0.458787  -0.044533
     2  C   -0.004015   0.015680
     3  O   -0.210344  -0.002822
     4  O    0.032724   0.007381
     5  C   -0.537307   0.028128
     6  N   -0.008201   0.038596
     7  N   -0.108318   0.403506
     8  N   -0.205634   0.036412
     9  C   -0.745352   0.048214
    10  C    1.092656   0.341377
    11  C   -0.567295   0.009263
    12  S   -0.136992  -0.052006
    13  H    0.147782   0.007261
    14  H    0.106666   0.042857
    15  H    0.162219   0.018864
    16  H    0.119848  -0.005027
    17  H    0.217238   0.003364
    18  H    0.119823   0.039140
    19  H   -0.016710   0.064344
 Sum of Mulliken charges =  -1.00000   1.00000

 Dipole moment (field-independent basis, Debye):
    X=             -7.7003    Y=             -2.4470    Z=              1.1713  Tot=              8.1642
 Quadrupole moment (field-independent basis, Debye-Ang):
   XX=           -105.4195   YY=           -107.8577   ZZ=            -88.6978
   XY=            -17.8718   XZ=              7.1095   YZ=             -2.6601

 Summary of Natural Population Analysis:

                                       Natural Population
                Natural  -----------------------------------------------
    Atom  No    Charge         Core      Valence    Rydberg      Total
 -----------------------------------------------------------------------
      C    1   -0.33457      0.99962     2.33022    0.00473     3.33457
      C    2    0.40712      0.99971     1.56867    0.02450     2.59288
      O    3   -0.29126      0.99986     3.28557    0.00583     4.29126
      O    4   -0.28801      0.99984     3.27641    0.01176     4.28801
      C    5    0.24760      0.99934     1.73265    0.02040     2.75240
      N    6   -0.14504      0.99966     2.63108    0.01431     3.64504
      N    7    0.09757      0.99980     2.38002    0.02261     3.40243
      N    8   -0.14171      0.99974     2.62400    0.01798     3.64171
      C    9    0.02939      0.99956     1.95641    0.01465     2.97061
      C   10    0.00729      0.99943     1.98311    0.01016     2.99271
      C   11   -0.24401      0.99955     2.23543    0.00903     3.24401
      S   12   -0.02565      4.99967     3.00893    0.01705     8.02565
      H   13    0.10641      0.00000     0.39249    0.00111     0.39359
      H   14    0.11276      0.00000     0.38578    0.00146     0.38724
      H   15    0.11412      0.00000     0.38453    0.00134     0.38588
      H   16    0.08153      0.00000     0.41697    0.00150     0.41847
      H   17    0.10136      0.00000     0.39647    0.00217     0.39864
      H   18    0.10815      0.00000     0.38967    0.00218     0.39185
      H   19    0.05695      0.00000     0.43957    0.00348     0.44305
 =======================================================================
   * Total *   -0.00000     15.99578    31.81799    0.18623    48.00000

 Normal termination of Gaussian 16 at Wed Dec  9 17:49:47 2020.
