 Gaussian 16, Revision A.03,

 -----------------------------------------------------------
 # opt freq B3LYP/6-31G(d) empiricaldispersion=gd3bj scf=xqc
 -----------------------------------------------------------

 --------------------------------
 CID_115679003_JID_10474_neutraal
 --------------------------------
 Symbolic Z-matrix:
 Charge =  0 Multiplicity = 1

 SCF Done:  E(RB3LYP) =  -971.954898861     A.U. after   18 cycles
 SCF Done:  E(RB3LYP) =  -971.959336799     A.U. after   15 cycles
 SCF Done:  E(RB3LYP) =  -971.931813237     A.U. after   16 cycles
 SCF Done:  E(RB3LYP) =  -971.943782941     A.U. after   15 cycles
 SCF Done:  E(RB3LYP) =  -971.960327382     A.U. after   12 cycles
 SCF Done:  E(RB3LYP) =  -971.963392563     A.U. after   15 cycles
 SCF Done:  E(RB3LYP) =  -971.961754873     A.U. after   16 cycles
 SCF Done:  E(RB3LYP) =  -971.965629445     A.U. after   15 cycles
 SCF Done:  E(RB3LYP) =  -971.965978496     A.U. after   14 cycles
 SCF Done:  E(RB3LYP) =  -971.966320864     A.U. after   14 cycles
 SCF Done:  E(RB3LYP) =  -971.966567731     A.U. after   11 cycles
 SCF Done:  E(RB3LYP) =  -971.966569880     A.U. after    9 cycles
 SCF Done:  E(RB3LYP) =  -971.966570739     A.U. after    9 cycles
 SCF Done:  E(RB3LYP) =  -971.966571042     A.U. after    8 cycles
 SCF Done:  E(RB3LYP) =  -971.966571203     A.U. after    8 cycles
 SCF Done:  E(RB3LYP) =  -971.966571268     A.U. after    7 cycles
 Optimization completed.
    -- Stationary point found.
 Normal termination of Gaussian 16 at Sat Dec 12 15:51:06 2020.

 --------------------------------------------------------------------
 #N Geom=AllCheck Guess=TCheck SCRF=Check GenChk RB3LYP/6-31G(d) Freq
 --------------------------------------------------------------------

 Structure from the checkpoint file:  "JID_10474.chk"
 --------------------------------
 CID_115679003_JID_10474_neutraal
 --------------------------------
 Charge =  0 Multiplicity = 1

 SCF Done:  E(RB3LYP) =  -971.966571268     A.U. after    1 cycles

  Exact polarizability: 220.423  -3.837 196.061 -13.122  -4.678 111.512
 Approx polarizability: 327.696   1.631 315.308 -35.893  -7.131 179.712

                      1                      2                      3
                      A                      A                      A
 Frequencies --     25.3652                38.0989                45.3500
 Red. masses --      4.1281                 4.2557                 4.6405
 Frc consts  --      0.0016                 0.0036                 0.0056
 IR Inten    --      0.2627                 0.4060                 2.9694

                      4                      5                      6
                      A                      A                      A
 Frequencies --     50.4608                60.5173                67.1176
 Red. masses --      6.4796                 1.9959                 3.8945
 Frc consts  --      0.0097                 0.0043                 0.0103
 IR Inten    --      0.4082                 1.2866                 1.9702

                      7                      8                      9
                      A                      A                      A
 Frequencies --     74.0824                78.4884               127.3945
 Red. masses --      5.1062                 3.6584                 3.4504
 Frc consts  --      0.0165                 0.0133                 0.0330
 IR Inten    --      0.9955                 0.8891                 5.4676

                     10                     11                     12
                      A                      A                      A
 Frequencies --    147.7170               154.4650               175.0360
 Red. masses --      6.9563                 5.2913                 3.9627
 Frc consts  --      0.0894                 0.0744                 0.0715
 IR Inten    --      1.2510                 0.8653                 3.6168

                     13                     14                     15
                      A                      A                      A
 Frequencies --    213.9482               229.4609               260.5427
 Red. masses --      3.7471                 1.1942                 1.4215
 Frc consts  --      0.1011                 0.0370                 0.0569
 IR Inten    --      0.9445                 0.4581                 1.5556

                     16                     17                     18
                      A                      A                      A
 Frequencies --    263.1833               286.1901               290.0817
 Red. masses --      2.1577                 3.0285                 5.3274
 Frc consts  --      0.0881                 0.1461                 0.2641
 IR Inten    --      0.4730                 1.8568                 4.3133

                     19                     20                     21
                      A                      A                      A
 Frequencies --    326.4597               331.9235               399.4152
 Red. masses --      3.7464                 4.1343                 5.0140
 Frc consts  --      0.2352                 0.2684                 0.4713
 IR Inten    --      1.2662                 0.2527                 6.8357

                     22                     23                     24
                      A                      A                      A
 Frequencies --    409.9500               417.5905               431.0727
 Red. masses --      2.8062                 4.3672                 5.3186
 Frc consts  --      0.2779                 0.4487                 0.5823
 IR Inten    --      5.3001                10.8823                 0.2309

                     25                     26                     27
                      A                      A                      A
 Frequencies --    439.9522               473.3584               521.8762
 Red. masses --      2.8562                 3.5885                 3.4032
 Frc consts  --      0.3257                 0.4737                 0.5461
 IR Inten    --      0.2493                 7.3079                 4.0654

                     28                     29                     30
                      A                      A                      A
 Frequencies --    547.4121               556.8270               572.2375
 Red. masses --      3.4389                 3.3919                 1.5514
 Frc consts  --      0.6072                 0.6196                 0.2993
 IR Inten    --      2.5204                31.9466               123.1952

                     31                     32                     33
                      A                      A                      A
 Frequencies --    605.4157               620.5530               630.9010
 Red. masses --      2.7434                 4.0929                 1.3241
 Frc consts  --      0.5924                 0.9286                 0.3105
 IR Inten    --     61.3765                 4.2143                 8.6253

                     34                     35                     36
                      A                      A                      A
 Frequencies --    675.5258               712.3426               751.2004
 Red. masses --      3.3301                 6.3513                 2.5420
 Frc consts  --      0.8954                 1.8989                 0.8452
 IR Inten    --     20.9820                11.3022                32.2922

                     37                     38                     39
                      A                      A                      A
 Frequencies --    754.1321               776.9555               793.0482
 Red. masses --      6.0010                 4.3242                 1.2283
 Frc consts  --      2.0108                 1.5380                 0.4552
 IR Inten    --      4.8769                14.0646                 8.6652

                     40                     41                     42
                      A                      A                      A
 Frequencies --    816.9790               832.6250               842.6855
 Red. masses --      2.4625                 1.1156                 2.1732
 Frc consts  --      0.9684                 0.4557                 0.9092
 IR Inten    --      8.4375                 0.8647                 3.3928

                     43                     44                     45
                      A                      A                      A
 Frequencies --    854.2357               882.4433               916.7718
 Red. masses --      2.9699                 4.5743                 3.3075
 Frc consts  --      1.2769                 2.0987                 1.6378
 IR Inten    --      4.4989                 7.6129                22.6858

                     46                     47                     48
                      A                      A                      A
 Frequencies --    948.6767               961.3666               974.8740
 Red. masses --      2.0259                 1.3941                 2.0695
 Frc consts  --      1.0742                 0.7592                 1.1588
 IR Inten    --     18.4324                 1.6843                 1.2451

                     49                     50                     51
                      A                      A                      A
 Frequencies --    976.2207              1026.4168              1068.5617
 Red. masses --      1.2893                 2.5296                 3.1233
 Frc consts  --      0.7239                 1.5702                 2.1012
 IR Inten    --      0.9462                 6.7483                36.5588

                     52                     53                     54
                      A                      A                      A
 Frequencies --   1096.2762              1106.1813              1122.0882
 Red. masses --      2.0364                 1.8313                 2.2302
 Frc consts  --      1.4420                 1.3203                 1.6545
 IR Inten    --     35.1355                58.7661               100.4336

                     55                     56                     57
                      A                      A                      A
 Frequencies --   1126.6219              1134.6072              1162.8467
 Red. masses --      1.9201                 1.9099                 2.6273
 Frc consts  --      1.4359                 1.4486                 2.0932
 IR Inten    --      2.3446                21.5517                46.3762

                     58                     59                     60
                      A                      A                      A
 Frequencies --   1175.8772              1194.3678              1195.7541
 Red. masses --      4.2409                 1.5346                 1.5055
 Frc consts  --      3.4549                 1.2898                 1.2683
 IR Inten    --    177.1118                 9.2337                19.0454

                     61                     62                     63
                      A                      A                      A
 Frequencies --   1211.4378              1255.3586              1273.7362
 Red. masses --      2.2852                 2.3693                 1.5088
 Frc consts  --      1.9759                 2.2000                 1.4423
 IR Inten    --      3.3317                12.9367                41.6013

                     64                     65                     66
                      A                      A                      A
 Frequencies --   1296.6938              1307.5188              1312.8169
 Red. masses --      1.3866                 1.3796                 1.1193
 Frc consts  --      1.3736                 1.3896                 1.1366
 IR Inten    --      0.7608                38.5697                 1.4542

                     67                     68                     69
                      A                      A                      A
 Frequencies --   1320.1447              1343.8115              1365.6737
 Red. masses --      5.7653                 1.5606                 3.0408
 Frc consts  --      5.9199                 1.6604                 3.3415
 IR Inten    --    398.3164               120.9156                53.8036

                     70                     71                     72
                      A                      A                      A
 Frequencies --   1399.0821              1401.3350              1405.9480
 Red. masses --      1.3300                 4.3669                 1.2816
 Frc consts  --      1.5339                 5.0525                 1.4926
 IR Inten    --     14.6449               112.6015                26.9095

                     73                     74                     75
                      A                      A                      A
 Frequencies --   1417.7815              1434.1782              1437.5220
 Red. masses --      1.4618                 1.3122                 1.2880
 Frc consts  --      1.7312                 1.5902                 1.5681
 IR Inten    --     37.1004                24.4873                 2.0524

                     76                     77                     78
                      A                      A                      A
 Frequencies --   1452.5297              1472.1811              1501.9703
 Red. masses --      1.8787                 1.5118                 2.7655
 Frc consts  --      2.3354                 1.9304                 3.6757
 IR Inten    --    110.5543                13.2457                90.5914

                     79                     80                     81
                      A                      A                      A
 Frequencies --   1507.1585              1512.7103              1515.6879
 Red. masses --      2.6266                 1.1156                 1.0432
 Frc consts  --      3.5154                 1.5040                 1.4121
 IR Inten    --     37.0479                19.0277                 6.7678

                     82                     83                     84
                      A                      A                      A
 Frequencies --   1521.4127              1529.6258              1534.6713
 Red. masses --      1.1129                 1.0519                 1.0655
 Frc consts  --      1.5177                 1.4501                 1.4786
 IR Inten    --      9.8927                11.7969                 3.0526

                     85                     86                     87
                      A                      A                      A
 Frequencies --   1536.4318              1548.4781              1567.3598
 Red. masses --      1.0795                 1.0848                 1.0964
 Frc consts  --      1.5014                 1.5325                 1.5870
 IR Inten    --      4.9233                 6.9442                 1.3083

                     88                     89                     90
                      A                      A                      A
 Frequencies --   1593.2214              1621.3667              1660.5708
 Red. masses --      5.2659                 6.1465                 1.9457
 Frc consts  --      7.8754                 9.5201                 3.1611
 IR Inten    --    196.0864               120.4263                14.7249

                     91                     92                     93
                      A                      A                      A
 Frequencies --   1682.2933              1739.5534              2988.5051
 Red. masses --      3.0809                10.1639                 1.0553
 Frc consts  --      5.1373                18.1212                 5.5528
 IR Inten    --    315.7874               240.6872                19.1682

                     94                     95                     96
                      A                      A                      A
 Frequencies --   2999.3419              3021.1837              3023.8918
 Red. masses --      1.0566                 1.1066                 1.1081
 Frc consts  --      5.6002                 5.9509                 5.9696
 IR Inten    --     77.1076                84.8181                 8.1367

                     97                     98                     99
                      A                      A                      A
 Frequencies --   3025.5125              3055.8444              3062.5896
 Red. masses --      1.0733                 1.0373                 1.0351
 Frc consts  --      5.7884                 5.7069                 5.7203
 IR Inten    --     49.8431                30.1234                12.0880

                    100                    101                    102
                      A                      A                      A
 Frequencies --   3093.0007              3115.4264              3135.5593
 Red. masses --      1.0673                 1.1010                 1.1030
 Frc consts  --      6.0157                 6.2964                 6.3894
 IR Inten    --     30.2394                29.1824                30.1090

                    103                    104                    105
                      A                      A                      A
 Frequencies --   3137.8812              3142.9248              3162.0009
 Red. masses --      1.1035                 1.0992                 1.1005
 Frc consts  --      6.4015                 6.3974                 6.4825
 IR Inten    --     23.9107                20.0318                11.7086

                    106                    107                    108
                      A                      A                      A
 Frequencies --   3164.5850              3209.4958              3225.0655
 Red. masses --      1.0889                 1.0880                 1.0938
 Frc consts  --      6.4247                 6.6032                 6.7030
 IR Inten    --     10.9425                 2.4565                10.1129

                    109                    110                    111
                      A                      A                      A
 Frequencies --   3258.5135              3546.5588              3661.9085
 Red. masses --      1.0923                 1.0455                 1.1051
 Frc consts  --      6.8335                 7.7477                 8.7308
 IR Inten    --      2.5788               167.8732               206.1578

 - Thermochemistry -
 -------------------
 Temperature   298.150 Kelvin.  Pressure   1.00000 Atm.
 Atom     1 has atomic number  6 and mass  12.00000

 Molecular mass:   281.13756 amu.
 Principal axes and moments of inertia in atomic units:
                           1         2         3
     Eigenvalues --  4255.228437002.93231**********
           X            0.99934   0.03626   0.00180
           Y           -0.03623   0.99925  -0.01373
           Z           -0.00230   0.01366   0.99990
 This molecule is an asymmetric top.
 Rotational symmetry number  1.
 Warning -- assumption of classical behavior for rotation
           may cause significant error
 Rotational temperatures (Kelvin)      0.02035     0.01237     0.00844
 Rotational constants (GHZ):           0.42412     0.25771     0.17588
 Zero-point vibrational energy     852113.1 (Joules/Mol)
                                  203.65991 (Kcal/Mol)
 Warning -- explicit consideration of  32 degrees of freedom as
           vibrations may cause significant error
 Vibrational temperatures:     36.49    54.82    65.25    72.60    87.07
          (Kelvin)             96.57   106.59   112.93   183.29   212.53
                              222.24   251.84   307.82   330.14   374.86
                              378.66   411.76   417.36   469.70   477.56
                              574.67   589.83   600.82   620.22   632.99
                              681.06   750.86   787.60   801.15   823.32
                              871.06   892.84   907.73   971.93  1024.90
                             1080.81  1085.03  1117.87  1141.02  1175.45
                             1197.96  1212.44  1229.05  1269.64  1319.03
                             1364.93  1383.19  1402.63  1404.56  1476.78
                             1537.42  1577.30  1591.55  1614.43  1620.96
                             1632.45  1673.08  1691.83  1718.43  1720.42
                             1742.99  1806.18  1832.62  1865.65  1881.23
                             1888.85  1899.39  1933.45  1964.90  2012.97
                             2016.21  2022.85  2039.87  2063.46  2068.27
                             2089.87  2118.14  2161.00  2168.46  2176.45
                             2180.74  2188.97  2200.79  2208.05  2210.58
                             2227.91  2255.08  2292.29  2332.79  2389.19
                             2420.44  2502.83  4299.79  4315.38  4346.81
                             4350.71  4353.04  4396.68  4406.38  4450.14
                             4482.40  4511.37  4514.71  4521.97  4549.41
                             4553.13  4617.75  4640.15  4688.27  5102.71
                             5268.67

 Zero-point correction=                           0.324553 (Hartree/Particle)
 Thermal correction to Energy=                    0.344697
 Thermal correction to Enthalpy=                  0.345641
 Thermal correction to Gibbs Free Energy=         0.273893
 Sum of electronic and zero-point Energies=           -971.642019
 Sum of electronic and thermal Energies=              -971.621875
 Sum of electronic and thermal Enthalpies=            -971.620930
 Sum of electronic and thermal Free Energies=         -971.692678

                     E (Thermal)             CV                S
                      KCal/Mol        Cal/Mol-Kelvin    Cal/Mol-Kelvin
 Total                  216.300             74.488            151.006
 Electronic               0.000              0.000              0.000
 Translational            0.889              2.981             42.799
 Rotational               0.889              2.981             34.080
 Vibrational            214.523             68.526             74.127
 Vibration     1          0.593              1.985              6.162
 Vibration     2          0.594              1.982              5.356
 Vibration     3          0.595              1.979              5.011
 Vibration     4          0.595              1.977              4.799
 Vibration     5          0.597              1.973              4.440
 Vibration     6          0.598              1.970              4.236
 Vibration     7          0.599              1.966              4.042
 Vibration     8          0.600              1.964              3.928
 Vibration     9          0.611              1.926              2.985
 Vibration    10          0.617              1.905              2.701
 Vibration    11          0.620              1.898              2.616
 Vibration    12          0.627              1.873              2.381
 Vibration    13          0.644              1.820              2.010
 Vibration    14          0.652              1.796              1.883
 Vibration    15          0.669              1.745              1.658
 Vibration    16          0.670              1.740              1.641
 Vibration    17          0.684              1.699              1.496
 Vibration    18          0.686              1.692              1.473
 Vibration    19          0.710              1.623              1.278
 Vibration    20          0.714              1.612              1.251
 Vibration    21          0.765              1.471              0.965
 Vibration    22          0.774              1.449              0.927
 Vibration    23          0.781              1.432              0.900
 Vibration    24          0.792              1.403              0.855
 Vibration    25          0.800              1.383              0.827
 Vibration    26          0.830              1.309              0.728
 Vibration    27          0.877              1.202              0.606
 Vibration    28          0.903              1.145              0.550
 Vibration    29          0.912              1.125              0.530
 Vibration    30          0.928              1.091              0.500
 Vibration    31          0.964              1.020              0.440
 Vibration    32          0.981              0.989              0.416

                           ! Non-Optimized Parameters !
 Normal termination of Gaussian 16 at Sat Dec 12 16:10:36 2020.

 ----------------------------------------------------------------------
 # B3LYP/6-311++G(d,p) empiricaldispersion=gd3bj scf=xqc pop=npa geom=c
 heck
 ----------------------------------------------------------------------

 ----------------------------------------
 CID_115679003_JID_10474_Energie_neutraal
 ----------------------------------------
 Structure from the checkpoint file:  "JID_10474.chk"
 Charge =  0 Multiplicity = 1

 SCF Done:  E(RB3LYP) =  -972.248645890     A.U. after   19 cycles
 Normal termination of Gaussian 16 at Sat Dec 12 16:20:05 2020.

 ----------------------------------------------------------------------
 # B3LYP/6-311++G(d,p) empiricaldispersion=gd3bj scf=xqc pop=npa geom=c
 heck
 ----------------------------------------------------------------------

 --------------------------------------
 CID_115679003_JID_10474_Energie_kation
 --------------------------------------
 Structure from the checkpoint file:  "JID_10474.chk"
 Charge =  1 Multiplicity = 2

 SCF Done:  E(UB3LYP) =  -971.954300024     A.U. after   32 cycles
 Normal termination of Gaussian 16 at Sat Dec 12 16:41:24 2020.
 Gaussian 16:  ES64L-G16RevA.03 25-Dec-2016

 ----------------------------------------------------------------------
 # B3LYP/6-311++G(d,p) empiricaldispersion=gd3bj scf=xqc pop=npa geom=c
 heck
 ----------------------------------------------------------------------

 -------------------------------------
 CID_115679003_JID_10474_Energie_anion
 -------------------------------------
 Structure from the checkpoint file:  "JID_10474.chk"
 Charge = -1 Multiplicity = 2

                         Standard orientation:
 ---------------------------------------------------------------------
 Center     Atomic      Atomic             Coordinates (Angstroms)
 Number     Number       Type             X           Y           Z
 ---------------------------------------------------------------------
      1          6           0        3.642825   -2.576051    0.230336
      2          6           0        3.004031   -1.408377   -0.522523
      3          7           0        1.663848   -1.062265   -0.035033
      4          6           0        1.568351   -0.429447    1.279415
      5          6           0        2.400276    0.845308    1.387806
      6          8           0        2.099290    1.681152    0.291533
      7          6           0        2.797020    2.919755    0.301652
      8          6           0        2.373570    3.712725   -0.921084
      9          6           0        0.609796   -1.759562   -0.594190
     10          8           0        0.795558   -2.649681   -1.419100
     11          6           0       -0.795158   -1.400449   -0.188707
     12          6           0       -1.318198   -0.072950   -0.301398
     13          6           0       -2.701775    0.086637    0.019832
     14          6           0       -3.502023   -1.000972    0.398235
     15          6           0       -2.974301   -2.275011    0.466201
     16          6           0       -1.622326   -2.460290    0.153884
     17          7           0       -3.353216    1.380846   -0.009944
     18          8           0       -4.545387    1.446669    0.296386
     19          8           0       -2.695400    2.388999   -0.333739
     20          7           0       -0.536452    0.945071   -0.724863
     21          1           0        3.770386   -2.357529    1.296829
     22          1           0        4.632742   -2.795930   -0.183963
     23          1           0        3.020874   -3.469711    0.127992
     24          1           0        3.624739   -0.509835   -0.461944
     25          1           0        2.893235   -1.666573   -1.575791
     26          1           0        0.521388   -0.202603    1.477527
     27          1           0        1.901752   -1.119564    2.068665
     28          1           0        2.159910    1.341290    2.341858
     29          1           0        3.477262    0.615102    1.405196
     30          1           0        2.563867    3.469896    1.227189
     31          1           0        3.883069    2.732753    0.293523
     32          1           0        1.297122    3.910858   -0.897032
     33          1           0        2.900023    4.672076   -0.954643
     34          1           0        2.603206    3.157703   -1.836136
     35          1           0       -4.540652   -0.802967    0.627784
     36          1           0       -3.598033   -3.116391    0.746625
     37          1           0       -1.188319   -3.455120    0.166838
     38          1           0        0.471676    0.854163   -0.731315
     39          1           0       -0.938535    1.871812   -0.687706
 ---------------------------------------------------------------------

 SCF Done:  E(UB3LYP) =  -972.281375441     A.U. after   30 cycles

 The electronic state is 2-A.
 Alpha  occ. eigenvalues --  -19.05822 -18.97681 -18.94008 -18.93796 -14.31606
 Alpha  occ. eigenvalues --  -14.24110 -14.17656 -10.15925 -10.15409 -10.15025
 Alpha  occ. eigenvalues --  -10.12291 -10.11435 -10.09462 -10.09356 -10.08423
 Alpha  occ. eigenvalues --  -10.05845 -10.04080 -10.03003 -10.02752 -10.02263
 Alpha  occ. eigenvalues --   -1.01765  -0.97394  -0.93049  -0.84491  -0.83829
 Alpha  occ. eigenvalues --   -0.79307  -0.70949  -0.70755  -0.67841  -0.65325
 Alpha  occ. eigenvalues --   -0.63850  -0.60463  -0.56617  -0.55191  -0.53967
 Alpha  occ. eigenvalues --   -0.52850  -0.48921  -0.45849  -0.44882  -0.43711
 Alpha  occ. eigenvalues --   -0.42042  -0.41182  -0.39028  -0.38090  -0.37634
 Alpha  occ. eigenvalues --   -0.36437  -0.35853  -0.35704  -0.34430  -0.34164
 Alpha  occ. eigenvalues --   -0.33230  -0.32555  -0.32292  -0.31726  -0.31275
 Alpha  occ. eigenvalues --   -0.30426  -0.29391  -0.29198  -0.28815  -0.27520
 Alpha  occ. eigenvalues --   -0.27393  -0.26238  -0.25658  -0.24362  -0.23565
 Alpha  occ. eigenvalues --   -0.22058  -0.19923  -0.18540  -0.15862  -0.14582
 Alpha  occ. eigenvalues --   -0.13252  -0.12144  -0.11794  -0.09731  -0.07619
 Alpha  occ. eigenvalues --    0.03073
 Alpha virt. eigenvalues --    0.04991   0.06210   0.07194   0.08008   0.08864
 Alpha virt. eigenvalues --    0.09235   0.09719   0.10082   0.10769   0.11355
 Alpha virt. eigenvalues --    0.11625   0.11762   0.12239   0.13211   0.13456

  Beta  occ. eigenvalues --  -19.05821 -18.97665 -18.93500 -18.93354 -14.30909
  Beta  occ. eigenvalues --  -14.24108 -14.17618 -10.15909 -10.15408 -10.15025
  Beta  occ. eigenvalues --  -10.12288 -10.11434 -10.09462 -10.09299 -10.08421
  Beta  occ. eigenvalues --  -10.05887 -10.04068 -10.02875 -10.02690 -10.01975
  Beta  occ. eigenvalues --   -1.00672  -0.97393  -0.93018  -0.83838  -0.83580
  Beta  occ. eigenvalues --   -0.79175  -0.70945  -0.70474  -0.67818  -0.65271
  Beta  occ. eigenvalues --   -0.63395  -0.60229  -0.56597  -0.55150  -0.53917
  Beta  occ. eigenvalues --   -0.51973  -0.48717  -0.45771  -0.44664  -0.43678
  Beta  occ. eigenvalues --   -0.41911  -0.41148  -0.38975  -0.38056  -0.37404
  Beta  occ. eigenvalues --   -0.36377  -0.35782  -0.35260  -0.34106  -0.33209
  Beta  occ. eigenvalues --   -0.32365  -0.32199  -0.31580  -0.31373  -0.31105
  Beta  occ. eigenvalues --   -0.30310  -0.29350  -0.29148  -0.28568  -0.27492
  Beta  occ. eigenvalues --   -0.27283  -0.26128  -0.25594  -0.23870  -0.23359
  Beta  occ. eigenvalues --   -0.21908  -0.19872  -0.17862  -0.15741  -0.14494
  Beta  occ. eigenvalues --   -0.11674  -0.10804  -0.09830  -0.09262  -0.07124
  Beta virt. eigenvalues --    0.04946   0.06160   0.07146   0.07967   0.08828
  Beta virt. eigenvalues --    0.09207   0.09538   0.09853   0.10612   0.11042
  Beta virt. eigenvalues --    0.11377   0.11609   0.11876   0.12214   0.13189

 Mulliken charges and spin densities:
               1          2
     1  C   -0.415186  -0.034198
     2  C   -0.249657   0.021965
     3  N    0.201117   0.001815
     4  C   -0.556886  -0.006158
     5  C   -0.311627  -0.011071
     6  O   -0.095427   0.002291
     7  C    0.017422  -0.004578
     8  C   -0.597243  -0.002569
     9  C   -1.020563   0.014036
    10  O   -0.278845   0.003793
    11  C    1.091078  -0.046586
    12  C    0.085790   0.034065
    13  C    0.026725  -0.075547
    14  C   -0.094244   0.288785
    15  C   -0.537127  -0.088569
    16  C   -0.403506   0.256369
    17  N   -0.350614   0.225475
    18  O   -0.171632   0.175968
    19  O   -0.211089   0.192144
    20  N   -0.362916   0.024103
    21  H    0.109145   0.007176
    22  H    0.118904   0.011409
    23  H    0.181570   0.008645
    24  H    0.113315   0.013145
    25  H    0.193657   0.001088
    26  H    0.209400   0.001058
    27  H    0.148908   0.001922
    28  H    0.149671  -0.000354
    29  H    0.154808   0.007479
    30  H    0.124037   0.001535
    31  H    0.109498   0.005049
    32  H    0.176075  -0.000331
    33  H    0.124321   0.000810
    34  H    0.145533   0.000522
    35  H    0.225787  -0.016836
    36  H    0.116925   0.005877
    37  H    0.154115  -0.015811
    38  H    0.355180  -0.000569
    39  H    0.323580  -0.003343
 Sum of Mulliken charges =  -1.00000   1.00000

 Dipole moment (field-independent basis, Debye):
    X=             15.1405    Y=             -0.0260    Z=              3.1501  Tot=             15.4647
 Quadrupole moment (field-independent basis, Debye-Ang):
   XX=           -178.1877   YY=           -151.7119   ZZ=           -130.0818
   XY=             25.4434   XZ=              4.0522   YZ=             -5.5840

 Summary of Natural Population Analysis:

                                       Natural Population
                Natural  -----------------------------------------------
    Atom  No    Charge         Core      Valence    Rydberg      Total
 -----------------------------------------------------------------------
      C    1   -0.29429      0.99966     2.29084    0.00378     3.29429
      C    2   -0.08901      0.99963     2.07948    0.00990     3.08901
      N    3   -0.26817      0.99964     2.75574    0.01279     3.76817
      C    4   -0.09599      0.99960     2.08734    0.00906     3.09599
      C    5   -0.01096      0.99959     2.00199    0.00938     3.01096
      O    6   -0.30539      0.99987     3.29349    0.01203     4.30539
      C    7   -0.00465      0.99962     1.99587    0.00916     3.00465
      C    8   -0.29486      0.99966     2.29068    0.00451     3.29486
      C    9    0.35242      0.99960     1.62450    0.02348     2.64758
      O   10   -0.32425      0.99988     3.31889    0.00547     4.32425
      C   11   -0.11438      0.99944     2.10214    0.01280     3.11438
      C   12    0.10970      0.99948     1.87654    0.01428     2.89030
      C   13    0.00184      0.99941     1.98834    0.01041     2.99816
      C   14   -0.02429      0.99954     2.01535    0.00939     3.02429
      C   15   -0.16152      0.99957     2.15234    0.00961     3.16152
      C   16   -0.01138      0.99954     2.00355    0.00830     3.01138
      N   17    0.31541      0.99970     2.15894    0.02595     3.18459
      O   18   -0.19877      0.99990     3.19105    0.00782     4.19877
      O   19   -0.21505      0.99989     3.20716    0.00800     4.21505
      N   20   -0.39490      0.99968     2.88429    0.01094     3.89490
      H   21    0.09154      0.00000     0.40759    0.00086     0.40846
      H   22    0.09559      0.00000     0.40358    0.00083     0.40441
      H   23    0.10807      0.00000     0.39092    0.00101     0.39193
      H   24    0.08820      0.00000     0.40988    0.00191     0.41180
      H   25    0.11195      0.00000     0.38696    0.00109     0.38805
      H   26    0.12160      0.00000     0.37727    0.00113     0.37840
      H   27    0.09030      0.00000     0.40852    0.00118     0.40970
      H   28    0.08378      0.00000     0.41493    0.00128     0.41622
      H   29    0.07481      0.00000     0.42363    0.00156     0.42519
      H   30    0.07736      0.00000     0.42123    0.00141     0.42264
      H   31    0.07346      0.00000     0.42500    0.00154     0.42654
      H   32    0.10850      0.00000     0.39051    0.00099     0.39150
      H   33    0.09661      0.00000     0.40266    0.00073     0.40339
      H   34    0.10176      0.00000     0.39718    0.00106     0.39824
      H   35    0.11192      0.00000     0.38690    0.00119     0.38808
      H   36    0.09291      0.00000     0.40605    0.00104     0.40709
      H   37    0.09328      0.00000     0.40538    0.00134     0.40672
      H   38    0.19578      0.00000     0.30201    0.00221     0.30422
      H   39    0.21102      0.00000     0.28715    0.00183     0.28898
 =======================================================================
   * Total *    0.00000     19.99290    54.76586    0.24123    75.00000

 Normal termination of Gaussian 16 at Sat Dec 12 17:00:51 2020.
