 Gaussian 16, Revision A.03,

 -----------------------------------------------------------
 # opt freq B3LYP/6-31G(d) empiricaldispersion=gd3bj scf=xqc
 -----------------------------------------------------------

 --------------------------------
 CID_106822637_JID_10597_neutraal
 --------------------------------
 Symbolic Z-matrix:
 Charge =  0 Multiplicity = 1

 SCF Done:  E(RB3LYP) =  -939.891559226     A.U. after   15 cycles
 SCF Done:  E(RB3LYP) =  -939.897468176     A.U. after   14 cycles
 SCF Done:  E(RB3LYP) =  -939.899685156     A.U. after   14 cycles
 SCF Done:  E(RB3LYP) =  -939.905162781     A.U. after   13 cycles
 SCF Done:  E(RB3LYP) =  -939.906803040     A.U. after   12 cycles
 SCF Done:  E(RB3LYP) =  -939.907922853     A.U. after   13 cycles
 SCF Done:  E(RB3LYP) =  -939.908656209     A.U. after   13 cycles
 SCF Done:  E(RB3LYP) =  -939.909139490     A.U. after   12 cycles
 SCF Done:  E(RB3LYP) =  -939.909633409     A.U. after   13 cycles
 SCF Done:  E(RB3LYP) =  -939.910367327     A.U. after   12 cycles
 SCF Done:  E(RB3LYP) =  -939.921014380     A.U. after    6 cycles
 SCF Done:  E(RB3LYP) =  -939.921014393     A.U. after    6 cycles
 SCF Done:  E(RB3LYP) =  -939.921014409     A.U. after    6 cycles
 SCF Done:  E(RB3LYP) =  -939.921014419     A.U. after    6 cycles
 SCF Done:  E(RB3LYP) =  -939.921014423     A.U. after    5 cycles
 Optimization completed.
    -- Stationary point found.
 Normal termination of Gaussian 16 at Sat Dec 12 16:58:04 2020.

 --------------------------------------------------------------------
 #N Geom=AllCheck Guess=TCheck SCRF=Check GenChk RB3LYP/6-31G(d) Freq
 --------------------------------------------------------------------

 Structure from the checkpoint file:  "JID_10597.chk"
 --------------------------------
 CID_106822637_JID_10597_neutraal
 --------------------------------
 Charge =  0 Multiplicity = 1

 SCF Done:  E(RB3LYP) =  -939.921014423     A.U. after    1 cycles

  Exact polarizability: 215.591  -2.112 160.184   6.795  25.096 141.963
 Approx polarizability: 285.076  -1.614 234.531  12.263  51.779 233.773

                      1                      2                      3
                      A                      A                      A
 Frequencies --     31.3698                36.9278                41.1485
 Red. masses --      4.0359                 4.2083                 2.6329
 Frc consts  --      0.0023                 0.0034                 0.0026
 IR Inten    --      0.4374                 0.7810                 0.9092

                      4                      5                      6
                      A                      A                      A
 Frequencies --     47.6107                62.8298                71.7526
 Red. masses --      2.9126                 3.8704                 3.2681
 Frc consts  --      0.0039                 0.0090                 0.0099
 IR Inten    --      0.8243                 0.6832                 0.3247

                      7                      8                      9
                      A                      A                      A
 Frequencies --     89.0624                98.1102               128.5537
 Red. masses --      3.3562                 4.0610                 4.1092
 Frc consts  --      0.0157                 0.0230                 0.0400
 IR Inten    --      3.8293                 2.6069                 0.6531

                     10                     11                     12
                      A                      A                      A
 Frequencies --    170.8144               184.4750               198.0578
 Red. masses --      2.2236                 2.0145                 3.0930
 Frc consts  --      0.0382                 0.0404                 0.0715
 IR Inten    --      0.7404                 0.7102                 1.6090

                     13                     14                     15
                      A                      A                      A
 Frequencies --    208.7704               226.0693               241.1183
 Red. masses --      3.8291                 2.2948                 1.6359
 Frc consts  --      0.0983                 0.0691                 0.0560
 IR Inten    --      1.6233                 1.1377                 1.2826

                     16                     17                     18
                      A                      A                      A
 Frequencies --    251.7855               272.1780               282.0776
 Red. masses --      1.6773                 3.8725                 1.6286
 Frc consts  --      0.0626                 0.1690                 0.0764
 IR Inten    --      2.3848                 0.8149                 0.5007

                     19                     20                     21
                      A                      A                      A
 Frequencies --    297.7378               332.9527               349.9546
 Red. masses --      3.2081                 2.4482                 3.2232
 Frc consts  --      0.1676                 0.1599                 0.2326
 IR Inten    --      1.8693                 9.8659                 7.5700

                     22                     23                     24
                      A                      A                      A
 Frequencies --    369.0070               393.4859               441.1917
 Red. masses --      3.0173                 3.9305                 4.3263
 Frc consts  --      0.2421                 0.3586                 0.4962
 IR Inten    --     13.6570                 2.6477                17.1516

                     25                     26                     27
                      A                      A                      A
 Frequencies --    457.7622               465.9709               507.3852
 Red. masses --      3.8312                 2.9445                 3.4040
 Frc consts  --      0.4730                 0.3767                 0.5163
 IR Inten    --      2.2115                10.8159                 3.0316

                     28                     29                     30
                      A                      A                      A
 Frequencies --    526.2775               540.3803               558.5114
 Red. masses --      3.3815                 2.0202                 2.9636
 Frc consts  --      0.5518                 0.3476                 0.5447
 IR Inten    --     47.7790                16.1619                19.5238

                     31                     32                     33
                      A                      A                      A
 Frequencies --    581.5195               630.9706               654.7304
 Red. masses --      3.9276                 4.4435                 3.5662
 Frc consts  --      0.7825                 1.0423                 0.9007
 IR Inten    --     10.8920                 2.3538                12.8986

                     34                     35                     36
                      A                      A                      A
 Frequencies --    694.5077               706.8061               758.6715
 Red. masses --      3.0148                 2.2722                 2.9540
 Frc consts  --      0.8568                 0.6688                 1.0018
 IR Inten    --     44.3239                16.5933                 9.3695

                     37                     38                     39
                      A                      A                      A
 Frequencies --    768.8284               774.1733               784.5249
 Red. masses --      5.1769                 1.8442                 1.7123
 Frc consts  --      1.8029                 0.6512                 0.6209
 IR Inten    --     13.0229                46.5695                 6.2888

                     40                     41                     42
                      A                      A                      A
 Frequencies --    841.3765               842.8198               850.2912
 Red. masses --      1.4225                 1.4826                 1.9629
 Frc consts  --      0.5933                 0.6205                 0.8362
 IR Inten    --      1.7709                 4.2417                 5.1074

                     43                     44                     45
                      A                      A                      A
 Frequencies --    868.5047               890.9001               920.5603
 Red. masses --      1.5030                 2.7471                 3.8964
 Frc consts  --      0.6680                 1.2847                 1.9454
 IR Inten    --     42.1906                 2.4858                 0.6970

                     46                     47                     48
                      A                      A                      A
 Frequencies --    948.8044               950.9684               980.0897
 Red. masses --      3.0172                 1.2467                 3.1086
 Frc consts  --      1.6003                 0.6643                 1.7593
 IR Inten    --      4.6411                 0.0452                14.5091

                     49                     50                     51
                      A                      A                      A
 Frequencies --   1003.0711              1016.0058              1017.1805
 Red. masses --      3.5163                 4.1618                 5.0337
 Frc consts  --      2.0845                 2.5312                 3.0686
 IR Inten    --     12.9061                32.8563                13.2261

                     52                     53                     54
                      A                      A                      A
 Frequencies --   1034.9399              1064.9399              1088.4048
 Red. masses --      3.1575                 1.5561                 3.2964
 Frc consts  --      1.9926                 1.0397                 2.3008
 IR Inten    --     19.8390                 6.5107                68.6347

                     55                     56                     57
                      A                      A                      A
 Frequencies --   1102.7248              1120.5207              1133.1301
 Red. masses --      2.9601                 1.8875                 1.7726
 Frc consts  --      2.1208                 1.3963                 1.3410
 IR Inten    --     86.1412                 4.4561                 4.6857

                     58                     59                     60
                      A                      A                      A
 Frequencies --   1134.1137              1178.7960              1187.1225
 Red. masses --      1.9248                 2.2033                 1.2714
 Frc consts  --      1.4587                 1.8039                 1.0557
 IR Inten    --     23.1731                49.8968                 0.6764

                     61                     62                     63
                      A                      A                      A
 Frequencies --   1188.0097              1203.2046              1206.4258
 Red. masses --      1.2880                 1.3395                 1.8790
 Frc consts  --      1.0711                 1.1426                 1.6113
 IR Inten    --      1.3777                77.6593                45.4034

                     64                     65                     66
                      A                      A                      A
 Frequencies --   1213.6886              1214.6146              1238.1458
 Red. masses --      1.7802                 1.8521                 1.4493
 Frc consts  --      1.5450                 1.6099                 1.3090
 IR Inten    --     76.3880                99.7079                19.7159

                     67                     68                     69
                      A                      A                      A
 Frequencies --   1242.0707              1254.6252              1263.7687
 Red. masses --      1.6468                 2.1726                 3.2224
 Frc consts  --      1.4969                 2.0149                 3.0322
 IR Inten    --     38.5189               201.5960                78.2214

                     70                     71                     72
                      A                      A                      A
 Frequencies --   1295.9771              1304.7152              1311.4664
 Red. masses --      1.9247                 1.6347                 1.7381
 Frc consts  --      1.9047                 1.6395                 1.7613
 IR Inten    --    107.0776                25.5024                46.5782

                     73                     74                     75
                      A                      A                      A
 Frequencies --   1330.2857              1339.1305              1348.6338
 Red. masses --      2.3083                 1.2361                 1.5852
 Frc consts  --      2.4067                 1.3060                 1.6987
 IR Inten    --     41.7012                20.4501                36.7580

                     76                     77                     78
                      A                      A                      A
 Frequencies --   1394.1394              1418.3546              1425.5790
 Red. masses --      4.6059                 1.2978                 1.2442
 Frc consts  --      5.2745                 1.5382                 1.4898
 IR Inten    --     41.3927                 1.6081                22.9453

                     79                     80                     81
                      A                      A                      A
 Frequencies --   1447.6929              1471.8745              1493.8015
 Red. masses --      1.2949                 1.8364                 1.1131
 Frc consts  --      1.5989                 2.3440                 1.4634
 IR Inten    --      6.5564                18.3964                 8.3230

                     82                     83                     84
                      A                      A                      A
 Frequencies --   1502.5529              1506.6673              1517.3229
 Red. masses --      1.2440                 1.1723                 1.0728
 Frc consts  --      1.6547                 1.5679                 1.4552
 IR Inten    --     14.9132                 1.1235                 9.1218

                     85                     86                     87
                      A                      A                      A
 Frequencies --   1519.6718              1520.3633              1520.5370
 Red. masses --      1.0589                 1.1685                 1.1020
 Frc consts  --      1.4408                 1.5913                 1.5012
 IR Inten    --      2.5430                 5.2860                 7.9664

                     88                     89                     90
                      A                      A                      A
 Frequencies --   1525.5966              1530.0288              1535.7750
 Red. masses --      1.1021                 1.4685                 1.0658
 Frc consts  --      1.5113                 2.0255                 1.4812
 IR Inten    --     10.2272                 2.0435                23.7029

                     91                     92                     93
                      A                      A                      A
 Frequencies --   1538.2908              1539.3828              1560.8772
 Red. masses --      1.0595                 1.2186                 2.0329
 Frc consts  --      1.4771                 1.7014                 2.9181
 IR Inten    --     18.0128                39.3217               107.7807

                     94                     95                     96
                      A                      A                      A
 Frequencies --   1648.2304              1677.0224              1812.8790
 Red. masses --      5.2350                 5.8912                11.7603
 Frc consts  --      8.3792                 9.7618                22.7723
 IR Inten    --     78.1413               215.6666               156.4601

                     97                     98                     99
                      A                      A                      A
 Frequencies --   3013.6285              3026.3315              3062.7019
 Red. masses --      1.0361                 1.0345                 1.1030
 Frc consts  --      5.5441                 5.5822                 6.0957
 IR Inten    --     40.4872                59.7011                42.1105

                    100                    101                    102
                      A                      A                      A
 Frequencies --   3063.5157              3084.7823              3087.1174
 Red. masses --      1.0379                 1.1066                 1.0596
 Frc consts  --      5.7391                 6.2041                 5.9498
 IR Inten    --     14.1865                42.8565                32.8617

                    103                    104                    105
                      A                      A                      A
 Frequencies --   3095.6290              3116.5693              3121.4786
 Red. masses --      1.0585                 1.0585                 1.0904
 Frc consts  --      5.9765                 6.0573                 6.2598
 IR Inten    --     31.3520                 9.2794                 5.5678

                    106                    107                    108
                      A                      A                      A
 Frequencies --   3132.5793              3138.5048              3142.6896
 Red. masses --      1.1005                 1.0980                 1.1056
 Frc consts  --      6.3627                 6.3725                 6.4333
 IR Inten    --     28.3235                44.9439                 6.4311

                    109                    110                    111
                      A                      A                      A
 Frequencies --   3144.1725              3156.3807              3163.6979
 Red. masses --      1.1050                 1.1000                 1.1063
 Frc consts  --      6.4361                 6.4569                 6.5239
 IR Inten    --     23.6677                25.2704                21.3919

                    112                    113                    114
                      A                      A                      A
 Frequencies --   3174.8575              3182.1342              3199.1462
 Red. masses --      1.1081                 1.0864                 1.0940
 Frc consts  --      6.5809                 6.4817                 6.5966
 IR Inten    --     20.6226                 8.1322                24.9193

                    115                    116                    117
                      A                      A                      A
 Frequencies --   3236.2134              3257.5978              3557.1009
 Red. masses --      1.0916                 1.0896                 1.0749
 Frc consts  --      6.7360                 6.8123                 8.0135
 IR Inten    --     10.4660                 0.5992                10.8113

 - Thermochemistry -
 -------------------
 Temperature   298.150 Kelvin.  Pressure   1.00000 Atm.
 Atom     1 has atomic number  6 and mass  12.00000

 Molecular mass:   279.14706 amu.
 Principal axes and moments of inertia in atomic units:
                           1         2         3
     Eigenvalues --  3690.680098221.443529421.80355
           X            1.00000   0.00286   0.00052
           Y           -0.00288   0.99965   0.02643
           Z           -0.00044  -0.02644   0.99965
 This molecule is an asymmetric top.
 Rotational symmetry number  1.
 Warning -- assumption of classical behavior for rotation
           may cause significant error
 Rotational temperatures (Kelvin)      0.02347     0.01054     0.00919
 Rotational constants (GHZ):           0.48900     0.21952     0.19155
 Zero-point vibrational energy     912939.5 (Joules/Mol)
                                  218.19777 (Kcal/Mol)
 Warning -- explicit consideration of  31 degrees of freedom as
           vibrations may cause significant error
 Vibrational temperatures:     45.13    53.13    59.20    68.50    90.40
          (Kelvin)            103.24   128.14   141.16   184.96   245.76
                              265.42   284.96   300.37   325.26   346.92
                              362.26   391.60   405.85   428.38   479.04
                              503.51   530.92   566.14   634.78   658.62
                              670.43   730.01   757.20   777.49   803.57
                              836.68   907.83   942.01   999.24  1016.94
                             1091.56  1106.17  1113.86  1128.76  1210.55
                             1212.63  1223.38  1249.58  1281.81  1324.48
                             1365.12  1368.23  1410.13  1443.20  1461.81
                             1463.50  1489.05  1532.21  1565.97  1586.58
                             1612.18  1630.32  1631.74  1696.02  1708.00
                             1709.28  1731.14  1735.78  1746.23  1747.56
                             1781.42  1787.06  1805.13  1818.28  1864.62
                             1877.19  1886.91  1913.98  1926.71  1940.38
                             2005.86  2040.70  2051.09  2082.91  2117.70
                             2149.25  2161.84  2167.76  2183.09  2186.47
                             2187.46  2187.71  2194.99  2201.37  2209.64
                             2213.26  2214.83  2245.75  2371.44  2412.86
                             2608.33  4335.94  4354.22  4406.54  4407.72
                             4438.31  4441.67  4453.92  4484.05  4491.11
                             4507.08  4515.61  4521.63  4523.76  4541.33
                             4551.86  4567.91  4578.38  4602.86  4656.19
                             4686.96  5117.87

 Zero-point correction=                           0.347720 (Hartree/Particle)
 Thermal correction to Energy=                    0.367999
 Thermal correction to Enthalpy=                  0.368944
 Thermal correction to Gibbs Free Energy=         0.297535
 Sum of electronic and zero-point Energies=           -939.573294
 Sum of electronic and thermal Energies=              -939.553015
 Sum of electronic and thermal Enthalpies=            -939.552071
 Sum of electronic and thermal Free Energies=         -939.623479

                     E (Thermal)             CV                S
                      KCal/Mol        Cal/Mol-Kelvin    Cal/Mol-Kelvin
 Total                  230.923             75.956            150.292
 Electronic               0.000              0.000              0.000
 Translational            0.889              2.981             42.778
 Rotational               0.889              2.981             34.013
 Vibrational            229.146             69.994             73.501
 Vibration     1          0.594              1.983              5.741
 Vibration     2          0.594              1.982              5.417
 Vibration     3          0.594              1.981              5.203
 Vibration     4          0.595              1.978              4.914
 Vibration     5          0.597              1.972              4.366
 Vibration     6          0.598              1.967              4.105
 Vibration     7          0.602              1.957              3.681
 Vibration     8          0.604              1.950              3.492
 Vibration     9          0.611              1.925              2.968
 Vibration    10          0.626              1.878              2.427
 Vibration    11          0.631              1.861              2.283
 Vibration    12          0.637              1.843              2.151
 Vibration    13          0.642              1.827              2.054
 Vibration    14          0.650              1.801              1.910
 Vibration    15          0.658              1.777              1.795
 Vibration    16          0.664              1.760              1.718
 Vibration    17          0.675              1.725              1.582
 Vibration    18          0.681              1.707              1.521
 Vibration    19          0.691              1.678              1.430
 Vibration    20          0.715              1.610              1.246
 Vibration    21          0.727              1.575              1.166
 Vibration    22          0.741              1.536              1.084
 Vibration    23          0.761              1.484              0.987
 Vibration    24          0.801              1.380              0.823
 Vibration    25          0.816              1.344              0.773
 Vibration    26          0.823              1.326              0.749
 Vibration    27          0.863              1.234              0.640
 Vibration    28          0.881              1.192              0.596
 Vibration    29          0.895              1.161              0.564
 Vibration    30          0.914              1.121              0.527
 Vibration    31          0.938              1.071              0.483

 Optimization completed.
    -- Stationary point found.
 Normal termination of Gaussian 16 at Sat Dec 12 17:20:05 2020.

 ----------------------------------------------------------------------
 # B3LYP/6-311++G(d,p) empiricaldispersion=gd3bj scf=xqc pop=npa geom=c
 heck
 ----------------------------------------------------------------------

 ----------------------------------------
 CID_106822637_JID_10597_Energie_neutraal
 ----------------------------------------
 Structure from the checkpoint file:  "JID_10597.chk"
 Charge =  0 Multiplicity = 1

 SCF Done:  E(RB3LYP) =  -940.187975038     A.U. after   16 cycles
 Normal termination of Gaussian 16 at Sat Dec 12 17:30:42 2020.

 ----------------------------------------------------------------------
 # B3LYP/6-311++G(d,p) empiricaldispersion=gd3bj scf=xqc pop=npa geom=c
 heck
 ----------------------------------------------------------------------

 --------------------------------------
 CID_106822637_JID_10597_Energie_kation
 --------------------------------------
 Structure from the checkpoint file:  "JID_10597.chk"
 Charge =  1 Multiplicity = 2

 SCF Done:  E(UB3LYP) =  -939.914553263     A.U. after   26 cycles
 Normal termination of Gaussian 16 at Sat Dec 12 17:55:02 2020.
 Gaussian 16:  ES64L-G16RevA.03 25-Dec-2016

 ----------------------------------------------------------------------
 # B3LYP/6-311++G(d,p) empiricaldispersion=gd3bj scf=xqc pop=npa geom=c
 heck
 ----------------------------------------------------------------------

 -------------------------------------
 CID_106822637_JID_10597_Energie_anion
 -------------------------------------
 Structure from the checkpoint file:  "JID_10597.chk"
 Charge = -1 Multiplicity = 2

                         Standard orientation:
 ---------------------------------------------------------------------
 Center     Atomic      Atomic             Coordinates (Angstroms)
 Number     Number       Type             X           Y           Z
 ---------------------------------------------------------------------
      1          6           0        1.283381    3.110704   -0.539698
      2          6           0       -0.234009    3.216318   -0.541340
      3          8           0       -0.837458    1.969474   -0.111468
      4          6           0       -0.903031    0.990737   -1.035313
      5          8           0       -0.602336    1.127894   -2.202290
      6          6           0       -1.406632   -0.337108   -0.469794
      7          6           0       -1.822706   -0.442788    1.025662
      8          6           0       -3.058941   -1.256977    0.565114
      9          6           0       -2.876593   -0.672649   -0.859417
     10          8           0       -4.293598   -1.169658    1.232747
     11          6           0       -4.815113    0.126862    1.441449
     12          7           0       -0.532335   -1.427364   -0.873024
     13          6           0        0.838076   -1.371088   -0.569275
     14          6           0        1.361408   -0.473935    0.365255
     15          6           0        2.734947   -0.454467    0.636421
     16          6           0        3.605279   -1.336328   -0.006809
     17          6           0        3.067394   -2.237092   -0.934183
     18          6           0        1.711175   -2.265437   -1.219309
     19          8           0        3.121614    0.492347    1.546125
     20          6           0        4.502713    0.591695    1.847259
     21          1           0        1.656293    2.794514    0.439307
     22          1           0        1.720743    4.085646   -0.783727
     23          1           0        1.615478    2.384583   -1.285636
     24          1           0       -0.592411    3.950280    0.183731
     25          1           0       -0.616221    3.465841   -1.533999
     26          1           0       -1.118239   -0.931813    1.700018
     27          1           0       -2.084536    0.540800    1.417984
     28          1           0       -2.821068   -2.322136    0.559254
     29          1           0       -3.452625    0.243288   -1.014955
     30          1           0       -3.021467   -1.335648   -1.717335
     31          1           0       -4.171991    0.737740    2.090310
     32          1           0       -4.979790    0.672073    0.500785
     33          1           0       -5.780230   -0.007895    1.935825
     34          1           0       -0.687908   -1.686154   -1.841270
     35          1           0        0.741085    0.243602    0.883789
     36          1           0        4.669624   -1.332069    0.191296
     37          1           0        3.732626   -2.928137   -1.444731
     38          1           0        1.312926   -2.972134   -1.942218
     39          1           0        4.886677   -0.338022    2.287163
     40          1           0        5.092739    0.835708    0.954028
     41          1           0        4.594785    1.400352    2.574500
 ---------------------------------------------------------------------

 SCF Done:  E(UB3LYP) =  -940.175794342     A.U. after   33 cycles
 SCF Done:  E(UB3LYP) =  -940.175794342     a.u. after    1 cycles

 The electronic state is 2-A.
 Alpha  occ. eigenvalues --  -19.08508 -19.06549 -19.04714 -19.02878 -14.24488
 Alpha  occ. eigenvalues --  -10.21659 -10.14905 -10.14775 -10.14430 -10.14091
 Alpha  occ. eigenvalues --  -10.13126 -10.13100 -10.12710 -10.09919 -10.09230
 Alpha  occ. eigenvalues --  -10.08862 -10.08097 -10.07876 -10.07702 -10.07387
 Alpha  occ. eigenvalues --   -1.02470  -0.98070  -0.95904  -0.93906  -0.86632
 Alpha  occ. eigenvalues --   -0.77556  -0.74595  -0.68792  -0.67312  -0.65354
 Alpha  occ. eigenvalues --   -0.62950  -0.61048  -0.59819  -0.59429  -0.55369
 Alpha  occ. eigenvalues --   -0.52217  -0.51104  -0.48507  -0.47112  -0.45607
 Alpha  occ. eigenvalues --   -0.45204  -0.42511  -0.41401  -0.40468  -0.40011
 Alpha  occ. eigenvalues --   -0.39371  -0.38674  -0.38226  -0.38050  -0.37107
 Alpha  occ. eigenvalues --   -0.36841  -0.34749  -0.34278  -0.33075  -0.32655
 Alpha  occ. eigenvalues --   -0.31878  -0.31085  -0.30381  -0.29662  -0.29003
 Alpha  occ. eigenvalues --   -0.28840  -0.28504  -0.28349  -0.27442  -0.25911
 Alpha  occ. eigenvalues --   -0.25406  -0.25126  -0.24490  -0.22882  -0.22288
 Alpha  occ. eigenvalues --   -0.21359  -0.18864  -0.17780  -0.14537  -0.12611
 Alpha  occ. eigenvalues --    0.03847
 Alpha virt. eigenvalues --    0.05139   0.06068   0.06505   0.06872   0.07252
 Alpha virt. eigenvalues --    0.07806   0.08136   0.08598   0.08674   0.08821
 Alpha virt. eigenvalues --    0.09366   0.09774   0.09853   0.10381   0.10571

  Beta  occ. eigenvalues --  -19.08503 -19.06541 -19.04709 -19.02865 -14.24483
  Beta  occ. eigenvalues --  -10.21650 -10.14906 -10.14775 -10.14429 -10.14072
  Beta  occ. eigenvalues --  -10.13125 -10.13055 -10.12673 -10.09902 -10.09221
  Beta  occ. eigenvalues --  -10.08855 -10.08094 -10.07863 -10.07699 -10.07370
  Beta  occ. eigenvalues --   -1.02454  -0.98053  -0.95891  -0.93888  -0.86625
  Beta  occ. eigenvalues --   -0.77547  -0.74583  -0.68764  -0.67290  -0.65337
  Beta  occ. eigenvalues --   -0.62914  -0.60998  -0.59785  -0.59398  -0.55339
  Beta  occ. eigenvalues --   -0.52193  -0.51072  -0.48466  -0.47081  -0.45585
  Beta  occ. eigenvalues --   -0.45184  -0.42486  -0.41383  -0.40438  -0.39982
  Beta  occ. eigenvalues --   -0.39352  -0.38647  -0.38196  -0.38021  -0.37081
  Beta  occ. eigenvalues --   -0.36813  -0.34727  -0.34261  -0.33043  -0.32630
  Beta  occ. eigenvalues --   -0.31849  -0.31065  -0.30351  -0.29637  -0.28981
  Beta  occ. eigenvalues --   -0.28819  -0.28483  -0.28325  -0.27423  -0.25891
  Beta  occ. eigenvalues --   -0.25387  -0.25108  -0.24458  -0.22864  -0.22256
  Beta  occ. eigenvalues --   -0.21340  -0.18849  -0.17766  -0.14520  -0.12600
  Beta virt. eigenvalues --    0.05757   0.06178   0.06503   0.06843   0.07173
  Beta virt. eigenvalues --    0.07583   0.08110   0.08349   0.08727   0.08979
  Beta virt. eigenvalues --    0.09109   0.09829   0.09958   0.10028   0.10671

 Mulliken charges and spin densities:
               1          2
     1  C   -0.350676  -0.142137
     2  C    0.453838  -0.533086
     3  O    0.089743   0.026163
     4  C   -0.589320   0.180141
     5  O   -0.133331   0.007951
     6  C   -0.609395   0.364680
     7  C    1.010880  -1.114284
     8  C   -1.908743   1.304949
     9  C    0.817846  -1.213054
    10  O   -0.089603   0.014177
    11  C    0.761593  -1.039098
    12  N    0.303648   0.016171
    13  C   -0.058435   0.198520
    14  C   -0.484421   0.194222
    15  C   -0.560555   0.245589
    16  C    0.174440  -0.146567
    17  C    0.398888  -0.620754
    18  C    0.135850  -0.323004
    19  O   -0.153093   0.043558
    20  C    0.872175  -1.194397
    21  H    0.206231  -0.045095
    22  H   -0.278033   0.421236
    23  H    0.177634   0.036656
    24  H   -0.421258   0.609053
    25  H    0.053374   0.100187
    26  H    0.147119   0.019706
    27  H    0.174520   0.014813
    28  H    0.108796   0.111990
    29  H    0.073432   0.121058
    30  H    0.034736   0.090363
    31  H   -0.247259   0.376140
    32  H   -0.330020   0.456939
    33  H   -0.172987   0.337837
    34  H    0.216049   0.047418
    35  H    0.380423  -0.100341
    36  H   -0.203521   0.375645
    37  H   -0.124791   0.295609
    38  H    0.056178   0.054578
    39  H   -0.195888   0.340994
    40  H   -0.220600   0.379659
    41  H   -0.515462   0.685819
 Sum of Mulliken charges =  -1.00000   1.00000

 Dipole moment (field-independent basis, Debye):
    X=             -1.9954    Y=             -4.1501    Z=             -3.0573  Tot=              5.5274
 Quadrupole moment (field-independent basis, Debye-Ang):
   XX=           -229.1895   YY=           -171.3964   ZZ=           -161.6568
   XY=              0.9323   XZ=             -2.7462   YZ=             -0.9990

 Summary of Natural Population Analysis:

                                       Natural Population
                Natural  -----------------------------------------------
    Atom  No    Charge         Core      Valence    Rydberg      Total
 -----------------------------------------------------------------------
      C    1   -0.30278      0.99966     2.29765    0.00548     3.30278
      C    2   -0.01591      0.99957     2.00511    0.01123     3.01591
      O    3   -0.28101      0.99986     3.27156    0.00959     4.28101
      C    4    0.41147      0.99958     1.56196    0.02698     2.58853
      O    5   -0.30703      0.99987     3.30180    0.00536     4.30703
      C    6    0.01886      0.99952     1.96683    0.01480     2.98114
      C    7   -0.20295      0.99958     2.19436    0.00901     3.20295
      C    8    0.06966      0.99952     1.91534    0.01548     2.93034
      C    9   -0.19124      0.99959     2.18216    0.00950     3.19124
      O   10   -0.29447      0.99987     3.28513    0.00947     4.29447
      C   11   -0.10137      0.99960     2.09227    0.00950     3.10137
      N   12   -0.31644      0.99966     2.80582    0.01096     3.81644
      C   13    0.09562      0.99950     1.89358    0.01130     2.90438
      C   14   -0.15776      0.99948     2.14979    0.00849     3.15776
      C   15    0.17381      0.99939     1.81359    0.01321     2.82619
      C   16   -0.16302      0.99952     2.15446    0.00904     3.16302
      C   17   -0.08227      0.99958     2.07346    0.00924     3.08227
      C   18   -0.13338      0.99953     2.12547    0.00838     3.13338
      O   19   -0.27228      0.99986     3.26263    0.00979     4.27228
      C   20   -0.10061      0.99960     2.09179    0.00922     3.10061
      H   21    0.10675      0.00000     0.39184    0.00141     0.39325
      H   22    0.10227      0.00000     0.39680    0.00093     0.39773
      H   23    0.10728      0.00000     0.39164    0.00107     0.39272
      H   24    0.09320      0.00000     0.40525    0.00155     0.40680
      H   25    0.09368      0.00000     0.40512    0.00121     0.40632
      H   26    0.10771      0.00000     0.39132    0.00097     0.39229
      H   27    0.11238      0.00000     0.38570    0.00192     0.38762
      H   28    0.09508      0.00000     0.40349    0.00144     0.40492
      H   29    0.10724      0.00000     0.39139    0.00137     0.39276
      H   30    0.10158      0.00000     0.39746    0.00096     0.39842
      H   31    0.08162      0.00000     0.41688    0.00150     0.41838
      H   32    0.08024      0.00000     0.41804    0.00172     0.41976
      H   33    0.09146      0.00000     0.40749    0.00104     0.40854
      H   34    0.18754      0.00000     0.31027    0.00219     0.31246
      H   35    0.11323      0.00000     0.38406    0.00271     0.38677
      H   36    0.10757      0.00000     0.39112    0.00131     0.39243
      H   37    0.09960      0.00000     0.39958    0.00082     0.40040
      H   38    0.09840      0.00000     0.40040    0.00120     0.40160
      H   39    0.08433      0.00000     0.41400    0.00168     0.41567
      H   40    0.08604      0.00000     0.41210    0.00186     0.41396
      H   41    0.09592      0.00000     0.40271    0.00137     0.40408
 =======================================================================
   * Total *    0.00000     19.99233    54.76142    0.24626    75.00000

 Normal termination of Gaussian 16 at Sat Dec 12 18:26:22 2020.
