 Gaussian 16, Revision A.03,

 -----------------------------------------------------------
 # opt freq B3LYP/6-31G(d) empiricaldispersion=gd3bj scf=xqc
 -----------------------------------------------------------

 ------------------------------
 CID_68023756_JID_5444_neutraal
 ------------------------------
 Symbolic Z-matrix:
 Charge =  0 Multiplicity = 1

 SCF Done:  E(RB3LYP) =  -753.170887044     A.U. after   15 cycles
 SCF Done:  E(RB3LYP) =  -753.177182044     A.U. after   13 cycles
 SCF Done:  E(RB3LYP) =  -753.177061456     A.U. after   13 cycles
 SCF Done:  E(RB3LYP) =  -753.177995929     A.U. after   12 cycles
 SCF Done:  E(RB3LYP) =  -753.178066677     A.U. after   11 cycles
 SCF Done:  E(RB3LYP) =  -753.178073798     A.U. after   11 cycles
 SCF Done:  E(RB3LYP) =  -753.178082590     A.U. after   10 cycles
 SCF Done:  E(RB3LYP) =  -753.178083621     A.U. after    9 cycles
 SCF Done:  E(RB3LYP) =  -753.178084545     A.U. after    8 cycles
 SCF Done:  E(RB3LYP) =  -753.178086341     A.U. after   10 cycles
 SCF Done:  E(RB3LYP) =  -753.179459692     A.U. after   12 cycles
 SCF Done:  E(RB3LYP) =  -753.179479117     A.U. after   12 cycles
 SCF Done:  E(RB3LYP) =  -753.179493276     A.U. after   11 cycles
 SCF Done:  E(RB3LYP) =  -753.179503172     A.U. after   11 cycles
 SCF Done:  E(RB3LYP) =  -753.179503902     A.U. after   11 cycles
 SCF Done:  E(RB3LYP) =  -753.179504031     A.U. after    9 cycles
 Optimization completed.
    -- Stationary point found.
 Normal termination of Gaussian 16 at Thu Dec 10 16:56:51 2020.

 --------------------------------------------------------------------
 #N Geom=AllCheck Guess=TCheck SCRF=Check GenChk RB3LYP/6-31G(d) Freq
 --------------------------------------------------------------------

 Structure from the checkpoint file:  "JID_5444.chk"
 ------------------------------
 CID_68023756_JID_5444_neutraal
 ------------------------------
 Charge =  0 Multiplicity = 1

 SCF Done:  E(RB3LYP) =  -753.179504031     A.U. after    1 cycles

  Exact polarizability: 134.819  -3.592 137.440  11.929  -0.091  60.730
 Approx polarizability: 225.897 -17.245 253.857  32.113  -3.644  96.790

                      1                      2                      3
                      A                      A                      A
 Frequencies --     20.7535                58.4662                75.0381
 Red. masses --     10.1513                 8.7269                 7.0502
 Frc consts  --      0.0026                 0.0176                 0.0234
 IR Inten    --      1.6929                 2.1011                 1.0448

                      4                      5                      6
                      A                      A                      A
 Frequencies --    113.9423               143.3518               199.5301
 Red. masses --      7.1913                 7.1432                 6.1353
 Frc consts  --      0.0550                 0.0865                 0.1439
 IR Inten    --      0.4260                 0.4478                 0.4886

                      7                      8                      9
                      A                      A                      A
 Frequencies --    238.8829               311.3326               347.9576
 Red. masses --      5.1689                10.3492                 8.5582
 Frc consts  --      0.1738                 0.5910                 0.6105
 IR Inten    --      0.3059                 2.8703                 0.5995

                     10                     11                     12
                      A                      A                      A
 Frequencies --    400.4151               420.4264               468.3709
 Red. masses --      4.3335                 2.8532                 4.6045
 Frc consts  --      0.4094                 0.2971                 0.5951
 IR Inten    --      0.6370                 0.6859                 4.4738

                     13                     14                     15
                      A                      A                      A
 Frequencies --    474.1013               492.6476               524.1696
 Red. masses --      5.7799                 7.9254                 5.2552
 Frc consts  --      0.7654                 1.1333                 0.8507
 IR Inten    --      3.9081                 1.6370                14.4294

                     16                     17                     18
                      A                      A                      A
 Frequencies --    586.7154               591.6753               621.4470
 Red. masses --      6.4240                 4.0423                 2.1333
 Frc consts  --      1.3029                 0.8338                 0.4854
 IR Inten    --     17.2372                41.0596                24.9735

                     19                     20                     21
                      A                      A                      A
 Frequencies --    662.1872               696.9320               718.6001
 Red. masses --      1.5292                 3.2748                 4.3315
 Frc consts  --      0.3951                 0.9372                 1.3179
 IR Inten    --     90.0484                20.6036                52.4915

                     22                     23                     24
                      A                      A                      A
 Frequencies --    727.7318               754.4831               827.1196
 Red. masses --      2.0740                 5.5152                 7.3449
 Frc consts  --      0.6472                 1.8498                 2.9606
 IR Inten    --     80.7823                26.2948                13.7859

                     25                     26                     27
                      A                      A                      A
 Frequencies --    837.3279               854.7697               901.6978
 Red. masses --      7.4000                 5.6916                 4.7893
 Frc consts  --      3.0568                 2.4501                 2.2943
 IR Inten    --      4.4865                 6.6292                 2.5345

                     28                     29                     30
                      A                      A                      A
 Frequencies --    954.0475               962.4886              1012.5553
 Red. masses --      1.5305                 2.1143                 1.4733
 Frc consts  --      0.8208                 1.1540                 0.8900
 IR Inten    --      3.9312                28.6333                 2.3470

                     31                     32                     33
                      A                      A                      A
 Frequencies --   1068.6849              1139.0332              1157.7855
 Red. masses --      5.7964                 2.8241                 3.3354
 Frc consts  --      3.9004                 2.1588                 2.6342
 IR Inten    --     16.4489                40.8986                45.2141

                     34                     35                     36
                      A                      A                      A
 Frequencies --   1194.3843              1201.6393              1249.9602
 Red. masses --      4.1603                 2.8908                 1.6890
 Frc consts  --      3.4967                 2.4594                 1.5548
 IR Inten    --    106.4908                78.3684                95.8923

                     37                     38                     39
                      A                      A                      A
 Frequencies --   1274.4596              1285.6850              1337.0273
 Red. masses --      2.9181                 4.0259                 1.7603
 Frc consts  --      2.7925                 3.9208                 1.8540
 IR Inten    --     14.1569                14.8152                15.8241

                     40                     41                     42
                      A                      A                      A
 Frequencies --   1353.0170              1385.4458              1403.4810
 Red. masses --      2.8887                 2.4475                 2.4552
 Frc consts  --      3.1157                 2.7679                 2.8494
 IR Inten    --     47.8897                23.7818                57.3175

                     43                     44                     45
                      A                      A                      A
 Frequencies --   1450.1468              1465.6704              1492.9228
 Red. masses --      1.7702                 2.4122                 1.3328
 Frc consts  --      2.1933                 3.0531                 1.7503
 IR Inten    --     20.6212                43.5647                11.8342

                     46                     47                     48
                      A                      A                      A
 Frequencies --   1500.5597              1576.5762              1634.3884
 Red. masses --      1.5698                 5.3652                 5.8762
 Frc consts  --      2.0825                 7.8572                 9.2483
 IR Inten    --      7.4572                40.4621                30.7265

                     49                     50                     51
                      A                      A                      A
 Frequencies --   1648.4792              1814.9039              1842.1539
 Red. masses --      7.3683                 9.6598                 9.6615
 Frc consts  --     11.7973                18.7466                19.3174
 IR Inten    --     34.7282               408.5482               231.3455

                     52                     53                     54
                      A                      A                      A
 Frequencies --   3095.1805              3154.4075              3203.7752
 Red. masses --      1.0596                 1.1055                 1.0899
 Frc consts  --      5.9806                 6.4811                 6.5911
 IR Inten    --      4.7155                 1.1483                12.7716

                     55                     56                     57
                      A                      A                      A
 Frequencies --   3206.5595              3599.4220              3681.9408
 Red. masses --      1.0944                 1.0786                 1.0640
 Frc consts  --      6.6297                 8.2335                 8.4987
 IR Inten    --      8.7007                64.6192                61.7362

 - Thermochemistry -
 -------------------
 Temperature   298.150 Kelvin.  Pressure   1.00000 Atm.
 Atom     1 has atomic number  6 and mass  12.00000

 Molecular mass:   206.04399 amu.
 Principal axes and moments of inertia in atomic units:
                           1         2         3
     Eigenvalues --  1922.763943518.439255032.88684
           X            0.99988   0.01559   0.00222
           Y           -0.01560   0.99988   0.00258
           Z           -0.00218  -0.00261   0.99999
 This molecule is an asymmetric top.
 Rotational symmetry number  1.
 Warning -- assumption of classical behavior for rotation
           may cause significant error
 Rotational temperatures (Kelvin)      0.04505     0.02462     0.01721
 Rotational constants (GHZ):           0.93862     0.51294     0.35859
 Zero-point vibrational energy     391279.7 (Joules/Mol)
                                   93.51809 (Kcal/Mol)
 Warning -- explicit consideration of  17 degrees of freedom as
           vibrations may cause significant error
 Vibrational temperatures:     29.86    84.12   107.96   163.94   206.25
          (Kelvin)            287.08   343.70   447.94   500.63   576.11
                              604.90   673.88   682.13   708.81   754.16
                              844.15   851.29   894.12   952.74  1002.73
                             1033.91  1047.04  1085.53  1190.04  1204.73
                             1229.82  1297.34  1372.66  1384.81  1456.84
                             1537.60  1638.81  1665.80  1718.45  1728.89
                             1798.41  1833.66  1849.81  1923.68  1946.69
                             1993.35  2019.30  2086.44  2108.77  2147.98
                             2158.97  2268.34  2351.52  2371.79  2611.24
                             2650.45  4453.27  4538.49  4609.52  4613.52
                             5178.77  5297.49

 Zero-point correction=                           0.149031 (Hartree/Particle)
 Thermal correction to Energy=                    0.160696
 Thermal correction to Enthalpy=                  0.161640
 Thermal correction to Gibbs Free Energy=         0.109277
 Sum of electronic and zero-point Energies=           -753.030473
 Sum of electronic and thermal Energies=              -753.018808
 Sum of electronic and thermal Enthalpies=            -753.017864
 Sum of electronic and thermal Free Energies=         -753.070227

                     E (Thermal)             CV                S
                      KCal/Mol        Cal/Mol-Kelvin    Cal/Mol-Kelvin
 Total                  100.838             43.865            110.208
 Electronic               0.000              0.000              0.000
 Translational            0.889              2.981             41.873
 Rotational               0.889              2.981             31.899
 Vibrational             99.061             37.904             36.436
 Vibration     1          0.593              1.986              6.561
 Vibration     2          0.596              1.974              4.508
 Vibration     3          0.599              1.966              4.017
 Vibration     4          0.607              1.938              3.201
 Vibration     5          0.616              1.910              2.759
 Vibration     6          0.638              1.841              2.137
 Vibration     7          0.657              1.781              1.811
 Vibration     8          0.700              1.652              1.355
 Vibration     9          0.726              1.579              1.175
 Vibration    10          0.766              1.469              0.961
 Vibration    11          0.783              1.426              0.891
 Vibration    12          0.826              1.320              0.742
 Vibration    13          0.831              1.308              0.726
 Vibration    14          0.848              1.266              0.677
 Vibration    15          0.879              1.196              0.600
 Vibration    16          0.944              1.060              0.473
 Vibration    17          0.949              1.050              0.464

 Optimization completed.
    -- Stationary point found.
 Normal termination of Gaussian 16 at Thu Dec 10 17:09:38 2020.

 ----------------------------------------------------------------------
 # B3LYP/6-311++G(d,p) empiricaldispersion=gd3bj scf=xqc pop=npa geom=c
 heck
 ----------------------------------------------------------------------

 --------------------------------------
 CID_68023756_JID_5444_Energie_neutraal
 --------------------------------------
 Structure from the checkpoint file:  "JID_5444.chk"
 Charge =  0 Multiplicity = 1

 SCF Done:  E(RB3LYP) =  -753.395703939     A.U. after   17 cycles
 Normal termination of Gaussian 16 at Thu Dec 10 17:15:47 2020.

 ----------------------------------------------------------------------
 # B3LYP/6-311++G(d,p) empiricaldispersion=gd3bj scf=xqc pop=npa geom=c
 heck
 ----------------------------------------------------------------------

 ------------------------------------
 CID_68023756_JID_5444_Energie_kation
 ------------------------------------
 Structure from the checkpoint file:  "JID_5444.chk"
 Charge =  1 Multiplicity = 2

 SCF Done:  E(UB3LYP) =  -753.061341940     A.U. after   28 cycles
 Normal termination of Gaussian 16 at Thu Dec 10 17:25:05 2020.
 Gaussian 16:  ES64L-G16RevA.03 25-Dec-2016

 ----------------------------------------------------------------------
 # B3LYP/6-311++G(d,p) empiricaldispersion=gd3bj scf=xqc pop=npa geom=c
 heck
 ----------------------------------------------------------------------

 -----------------------------------
 CID_68023756_JID_5444_Energie_anion
 -----------------------------------
 Structure from the checkpoint file:  "JID_5444.chk"
 Charge = -1 Multiplicity = 2

                         Standard orientation:
 ---------------------------------------------------------------------
 Center     Atomic      Atomic             Coordinates (Angstroms)
 Number     Number       Type             X           Y           Z
 ---------------------------------------------------------------------
      1          6           0       -0.119573    1.735630   -0.378987
      2          6           0        0.268228    0.379670   -0.299777
      3          6           0       -0.602358   -0.749418   -0.564470
      4          7           0       -0.182302   -1.976695   -0.481016
      5          7           0        1.105531   -2.178892   -0.129321
      6          6           0        2.103403   -1.248353    0.167329
      7          8           0        3.227234   -1.601747    0.471611
      8          6           0        1.610719    0.148731    0.056923
      9          7           0        2.474377    1.144560    0.301705
     10          6           0        1.988663    2.375084    0.185899
     11          7           0        0.729650    2.727791   -0.142310
     12          6           0       -2.048270   -0.564401   -0.965036
     13          6           0       -2.887366    0.015979    0.162264
     14          8           0       -3.281766    1.159536    0.223073
     15          8           0       -3.128724   -0.901033    1.122477
     16          1           0       -1.141915    2.013245   -0.622529
     17          1           0        1.379138   -3.153399   -0.078590
     18          1           0        2.679718    3.192273    0.377494
     19          1           0       -2.136550    0.112255   -1.819393
     20          1           0       -2.440819   -1.546275   -1.238102
     21          1           0       -3.644986   -0.447036    1.815540
 ---------------------------------------------------------------------

 SCF Done:  E(UB3LYP) =  -753.430981631     A.U. after   30 cycles

 The electronic state is 2-A.
 Alpha  occ. eigenvalues --  -19.07961 -19.01814 -18.94805 -14.25251 -14.21582
 Alpha  occ. eigenvalues --  -14.16198 -14.15212 -10.20697 -10.12973 -10.08618
 Alpha  occ. eigenvalues --  -10.08364 -10.08279 -10.08225 -10.05838 -10.04635
 Alpha  occ. eigenvalues --   -1.01812  -0.92662  -0.92178  -0.87598  -0.83362
 Alpha  occ. eigenvalues --   -0.73958  -0.73041  -0.66438  -0.64786  -0.55574
 Alpha  occ. eigenvalues --   -0.54247  -0.51918  -0.48197  -0.44713  -0.41622
 Alpha  occ. eigenvalues --   -0.39696  -0.38688  -0.37454  -0.36340  -0.35543
 Alpha  occ. eigenvalues --   -0.33103  -0.31834  -0.30494  -0.30271  -0.28827
 Alpha  occ. eigenvalues --   -0.27541  -0.27082  -0.26192  -0.23895  -0.23194
 Alpha  occ. eigenvalues --   -0.19118  -0.18672  -0.17245  -0.16573  -0.15242
 Alpha  occ. eigenvalues --   -0.12319  -0.10661  -0.10227   0.02783
 Alpha virt. eigenvalues --    0.07068   0.07222   0.09234   0.10031   0.10357
 Alpha virt. eigenvalues --    0.10906   0.11916   0.13797   0.14403   0.14795
 Alpha virt. eigenvalues --    0.15413   0.15946   0.16359   0.17207   0.17887

  Beta  occ. eigenvalues --  -19.07944 -19.01809 -18.94592 -14.25344 -14.21355
  Beta  occ. eigenvalues --  -14.16121 -14.14804 -10.20631 -10.12822 -10.08428
  Beta  occ. eigenvalues --  -10.08397 -10.08296 -10.08105 -10.05930 -10.04084
  Beta  occ. eigenvalues --   -1.01763  -0.92636  -0.91922  -0.87256  -0.82842
  Beta  occ. eigenvalues --   -0.73341  -0.72863  -0.66065  -0.64690  -0.54994
  Beta  occ. eigenvalues --   -0.54007  -0.51749  -0.47841  -0.44463  -0.41444
  Beta  occ. eigenvalues --   -0.39613  -0.38535  -0.37149  -0.36173  -0.35329
  Beta  occ. eigenvalues --   -0.32545  -0.31560  -0.30283  -0.30163  -0.28674
  Beta  occ. eigenvalues --   -0.26920  -0.26309  -0.25921  -0.23115  -0.22717
  Beta  occ. eigenvalues --   -0.18950  -0.18415  -0.16217  -0.14953  -0.14887
  Beta  occ. eigenvalues --   -0.12073  -0.09950  -0.09513
  Beta virt. eigenvalues --    0.07163   0.07676   0.08584   0.09765   0.10284
  Beta virt. eigenvalues --    0.10566   0.10922   0.11941   0.13790   0.14495
  Beta virt. eigenvalues --    0.15425   0.15984   0.16219   0.16450   0.17225

 Mulliken charges and spin densities:
               1          2
     1  C   -0.849784   0.371021
     2  C    1.686638  -0.032417
     3  C   -0.793465   0.106294
     4  N    0.018051   0.105511
     5  N   -0.288806  -0.052249
     6  C    0.106332   0.086685
     7  O   -0.395761   0.081064
     8  C   -0.623297   0.001748
     9  N   -0.104777   0.192462
    10  C    0.118596   0.089953
    11  N   -0.118347   0.029698
    12  C   -0.632110  -0.044468
    13  C    0.006600   0.039238
    14  O   -0.260994   0.005586
    15  O   -0.146801   0.002131
    16  H    0.178000  -0.029519
    17  H    0.326915   0.001038
    18  H    0.170915  -0.008263
    19  H    0.154683   0.035516
    20  H    0.171708   0.017370
    21  H    0.275705   0.001601
 Sum of Mulliken charges =  -1.00000   1.00000

 Dipole moment (field-independent basis, Debye):
    X=             -6.4715    Y=             -3.0639    Z=             -0.3099  Tot=              7.1669
 Quadrupole moment (field-independent basis, Debye-Ang):
   XX=           -125.0583   YY=           -112.7390   ZZ=            -87.4672
   XY=              7.0641   XZ=             -7.1566   YZ=              1.5252

 Summary of Natural Population Analysis:

                                       Natural Population
                Natural  -----------------------------------------------
    Atom  No    Charge         Core      Valence    Rydberg      Total
 -----------------------------------------------------------------------
      C    1    0.14477      0.99959     1.84196    0.01369     2.85523
      C    2   -0.09782      0.99946     2.08673    0.01162     3.09782
      C    3    0.12304      0.99955     1.86357    0.01384     2.87696
      N    4   -0.11032      0.99964     2.59695    0.01373     3.61032
      N    5   -0.21640      0.99968     2.70458    0.01214     3.71640
      C    6    0.32769      0.99962     1.65029    0.02241     2.67231
      O    7   -0.29736      0.99988     3.29001    0.00748     4.29736
      C    8    0.07043      0.99946     1.91742    0.01268     2.92957
      N    9   -0.18460      0.99968     2.67425    0.01068     3.68460
      C   10    0.15553      0.99967     1.82463    0.02016     2.84447
      N   11   -0.24062      0.99972     2.72960    0.01130     3.74062
      C   12   -0.25221      0.99955     2.24171    0.01095     3.25221
      C   13    0.41656      0.99974     1.55815    0.02555     2.58344
      O   14   -0.30966      0.99987     3.30211    0.00768     4.30966
      O   15   -0.34217      0.99987     3.33574    0.00656     4.34217
      H   16    0.08665      0.00000     0.41174    0.00161     0.41335
      H   17    0.18823      0.00000     0.30915    0.00262     0.31177
      H   18    0.07083      0.00000     0.42792    0.00125     0.42917
      H   19    0.11277      0.00000     0.38569    0.00154     0.38723
      H   20    0.11890      0.00000     0.37987    0.00123     0.38110
      H   21    0.23577      0.00000     0.26146    0.00277     0.26423
 =======================================================================
   * Total *    0.00000     14.99498    37.79354    0.21148    53.00000

 Normal termination of Gaussian 16 at Thu Dec 10 17:33:47 2020.
