 Gaussian 16, Revision A.03,

 -----------------------------------------------------------
 # opt freq B3LYP/6-31G(d) empiricaldispersion=gd3bj scf=xqc
 -----------------------------------------------------------

 ------------------------------
 CID_19034724_JID_9177_neutraal
 ------------------------------
 Symbolic Z-matrix:
 Charge =  0 Multiplicity = 1

 SCF Done:  E(RB3LYP) =  -891.886819734     A.U. after   17 cycles
 SCF Done:  E(RB3LYP) =  -891.894198274     A.U. after   15 cycles
 SCF Done:  E(RB3LYP) =  -891.880097387     A.U. after   17 cycles
 SCF Done:  E(RB3LYP) =  -891.897757528     A.U. after   15 cycles
 SCF Done:  E(RB3LYP) =  -891.898272058     A.U. after   14 cycles
 SCF Done:  E(RB3LYP) =  -891.898482796     A.U. after   15 cycles
 SCF Done:  E(RB3LYP) =  -891.898758958     A.U. after   12 cycles
 SCF Done:  E(RB3LYP) =  -891.898785364     A.U. after   12 cycles
 SCF Done:  E(RB3LYP) =  -891.898794319     A.U. after   12 cycles
 SCF Done:  E(RB3LYP) =  -891.898800032     A.U. after   10 cycles
 SCF Done:  E(RB3LYP) =  -891.898814237     A.U. after   10 cycles
 SCF Done:  E(RB3LYP) =  -891.898815459     A.U. after    9 cycles
 SCF Done:  E(RB3LYP) =  -891.898815617     A.U. after    9 cycles
 SCF Done:  E(RB3LYP) =  -891.898815731     A.U. after    8 cycles
 SCF Done:  E(RB3LYP) =  -891.898815785     A.U. after    8 cycles
 Optimization completed.
    -- Stationary point found.
 Normal termination of Gaussian 16 at Mon Dec 14 16:48:25 2020.

 --------------------------------------------------------------------
 #N Geom=AllCheck Guess=TCheck SCRF=Check GenChk RB3LYP/6-31G(d) Freq
 --------------------------------------------------------------------

 Structure from the checkpoint file:  "JID_9177.chk"
 ------------------------------
 CID_19034724_JID_9177_neutraal
 ------------------------------
 Charge =  0 Multiplicity = 1

 SCF Done:  E(RB3LYP) =  -891.898815785     A.U. after    1 cycles

  Exact polarizability: 209.994   6.953 166.207  13.114   7.305  98.767
 Approx polarizability: 307.102  -5.063 296.486  26.187  13.147 168.675

                      1                      2                      3
                      A                      A                      A
 Frequencies --     21.3508                28.4289                35.9393
 Red. masses --      4.4303                 4.5569                 9.0155
 Frc consts  --      0.0012                 0.0022                 0.0069
 IR Inten    --      0.8392                 0.9473                 1.1263

                      4                      5                      6
                      A                      A                      A
 Frequencies --     47.4945                70.4448                89.0988
 Red. masses --      5.7212                 9.3563                 5.7824
 Frc consts  --      0.0076                 0.0274                 0.0270
 IR Inten    --      2.0656                 0.8286                 1.2561

                      7                      8                      9
                      A                      A                      A
 Frequencies --    124.2761               143.2010               173.6897
 Red. masses --      5.4342                11.2745                 4.4963
 Frc consts  --      0.0494                 0.1362                 0.0799
 IR Inten    --      0.3953                 0.7782                 1.2484

                     10                     11                     12
                      A                      A                      A
 Frequencies --    212.3392               258.7215               274.0322
 Red. masses --      6.3514                 5.6531                 4.1992
 Frc consts  --      0.1687                 0.2229                 0.1858
 IR Inten    --      2.8542                 1.0688                 1.9698

                     13                     14                     15
                      A                      A                      A
 Frequencies --    329.3688               354.9283               394.5167
 Red. masses --      4.3395                 4.3252                 6.2150
 Frc consts  --      0.2774                 0.3210                 0.5699
 IR Inten    --      3.2852                 2.8578                10.4681

                     16                     17                     18
                      A                      A                      A
 Frequencies --    410.1485               416.6166               430.3087
 Red. masses --      6.0075                 2.9978                 4.8741
 Frc consts  --      0.5954                 0.3066                 0.5317
 IR Inten    --      1.8757                 0.2431                 1.9912

                     19                     20                     21
                      A                      A                      A
 Frequencies --    490.5008               563.7039               581.9275
 Red. masses --      3.8070                 3.2297                 5.3541
 Frc consts  --      0.5397                 0.6047                 1.0683
 IR Inten    --      4.9681                13.0290                 6.8913

                     22                     23                     24
                      A                      A                      A
 Frequencies --    595.9435               628.7497               636.8764
 Red. masses --      1.8877                 5.0760                 5.8015
 Frc consts  --      0.3950                 1.1823                 1.3864
 IR Inten    --     38.5496                19.8539                 3.2756

                     25                     26                     27
                      A                      A                      A
 Frequencies --    649.1872               682.6679               713.1183
 Red. masses --      3.4831                 6.2217                 4.5677
 Frc consts  --      0.8649                 1.7083                 1.3686
 IR Inten    --     25.0049                31.9973                 6.3045

                     28                     29                     30
                      A                      A                      A
 Frequencies --    716.5937               753.4619               766.2903
 Red. masses --      1.9996                 6.1676                 2.0023
 Frc consts  --      0.6050                 2.0629                 0.6927
 IR Inten    --     27.7963                22.1562                26.6753

                     31                     32                     33
                      A                      A                      A
 Frequencies --    794.4468               813.6962               831.7538
 Red. masses --      5.1519                 9.2647                 1.6860
 Frc consts  --      1.9158                 3.6141                 0.6872
 IR Inten    --     23.9311                 1.0673                18.1057

                     34                     35                     36
                      A                      A                      A
 Frequencies --    843.4216               865.3508               873.2996
 Red. masses --      2.7501                 1.2489                 9.6230
 Frc consts  --      1.1526                 0.5510                 4.3240
 IR Inten    --     12.7022                 0.3313                31.0684

                     37                     38                     39
                      A                      A                      A
 Frequencies --    930.3294               968.7192               973.8274
 Red. masses --      1.3609                 1.3876                 1.3477
 Frc consts  --      0.6940                 0.7672                 0.7530
 IR Inten    --      1.1939                 3.1699                 0.0313

                     40                     41                     42
                      A                      A                      A
 Frequencies --    984.2609              1001.9474              1002.9853
 Red. masses --      1.8089                 1.3414                 1.2932
 Frc consts  --      1.0325                 0.7934                 0.7665
 IR Inten    --     18.5313                 0.6625                 1.1892

                     43                     44                     45
                      A                      A                      A
 Frequencies --   1022.6966              1060.9722              1086.5862
 Red. masses --      6.1519                 2.2236                 3.2473
 Frc consts  --      3.7910                 1.4748                 2.2589
 IR Inten    --      0.6751                 4.9278                 3.8350

                     46                     47                     48
                      A                      A                      A
 Frequencies --   1096.4552              1120.2581              1134.2674
 Red. masses --      3.8503                 1.5799                 3.2252
 Frc consts  --      2.7273                 1.1682                 2.4448
 IR Inten    --     14.7326                 4.8553                 8.9292

                     49                     50                     51
                      A                      A                      A
 Frequencies --   1172.2634              1195.3494              1202.1188
 Red. masses --      1.4994                 1.1008                 2.6876
 Frc consts  --      1.2140                 0.9267                 2.2883
 IR Inten    --      3.3768                 0.0219                27.6567

                     52                     53                     54
                      A                      A                      A
 Frequencies --   1217.7525              1237.8617              1263.7723
 Red. masses --      1.1356                 2.8456                 1.2482
 Frc consts  --      0.9922                 2.5690                 1.1746
 IR Inten    --      1.8486                 0.4022                19.5027

                     55                     56                     57
                      A                      A                      A
 Frequencies --   1285.1727              1346.0627              1352.2208
 Red. masses --      2.3640                 3.1498                 2.0129
 Frc consts  --      2.3005                 3.3625                 2.1685
 IR Inten    --      2.7470                17.3459                 4.1032

                     58                     59                     60
                      A                      A                      A
 Frequencies --   1370.8036              1381.5407              1409.2314
 Red. masses --      2.0883                 1.8065                 4.5526
 Frc consts  --      2.3121                 2.0315                 5.3269
 IR Inten    --     13.1818               131.0940                59.0606

                     61                     62                     63
                      A                      A                      A
 Frequencies --   1422.0903              1459.3333              1484.7326
 Red. masses --      2.6559                 2.5500                 1.8454
 Frc consts  --      3.1646                 3.1997                 2.3969
 IR Inten    --    189.1908                24.3230               108.5813

                     64                     65                     66
                      A                      A                      A
 Frequencies --   1502.6394              1506.6283              1530.7735
 Red. masses --      2.4280                 2.2493                 1.1236
 Frc consts  --      3.2301                 3.0083                 1.5513
 IR Inten    --     18.0500                 4.7302                 1.2387

                     67                     68                     69
                      A                      A                      A
 Frequencies --   1550.1755              1614.5907              1646.2569
 Red. masses --      2.1517                 5.0449                 8.1536
 Frc consts  --      3.0464                 7.7487                13.0196
 IR Inten    --     11.1147                11.3453               174.9001

                     70                     71                     72
                      A                      A                      A
 Frequencies --   1649.5851              1668.8723              1674.0196
 Red. masses --      5.6413                 5.5209                11.7112
 Frc consts  --      9.0444                 9.0596                19.3363
 IR Inten    --     11.0955                 2.4861               174.4995

                     73                     74                     75
                      A                      A                      A
 Frequencies --   1788.8993              3041.2085              3108.6655
 Red. masses --      9.4362                 1.0683                 1.0949
 Frc consts  --     17.7917                 5.8218                 6.2340
 IR Inten    --    425.5890                34.4095                13.8506

                     76                     77                     78
                      A                      A                      A
 Frequencies --   3177.3566              3189.0464              3198.1908
 Red. masses --      1.0870                 1.0874                 1.0893
 Frc consts  --      6.4658                 6.5154                 6.5644
 IR Inten    --      7.6972                 2.6063                 8.7392

                     79                     80                     81
                      A                      A                      A
 Frequencies --   3199.6516              3209.4369              3210.9751
 Red. masses --      1.0918                 1.0907                 1.0962
 Frc consts  --      6.5854                 6.6192                 6.6591
 IR Inten    --     27.0406                 6.5854                23.1351

                     82                     83                     84
                      A                      A                      A
 Frequencies --   3224.3729              3226.8607              3587.1292
 Red. masses --      1.0937                 1.0971                 1.0759
 Frc consts  --      6.6996                 6.7306                 8.1565
 IR Inten    --      5.5589                11.0049                36.8026

 - Thermochemistry -
 -------------------
 Temperature   298.150 Kelvin.  Pressure   1.00000 Atm.
 Atom     1 has atomic number  6 and mass  12.00000

 Molecular mass:   257.08004 amu.
 Principal axes and moments of inertia in atomic units:
                           1         2         3
     Eigenvalues --  2496.374568189.728549062.61799
           X            0.99993   0.01154   0.00167
           Y           -0.01156   0.99976   0.01880
           Z           -0.00146  -0.01881   0.99982
 This molecule is an asymmetric top.
 Rotational symmetry number  1.
 Warning -- assumption of classical behavior for rotation
           may cause significant error
 Rotational temperatures (Kelvin)      0.03470     0.01058     0.00956
 Rotational constants (GHZ):           0.72294     0.22037     0.19914
 Zero-point vibrational energy     599956.2 (Joules/Mol)
                                  143.39297 (Kcal/Mol)
 Warning -- explicit consideration of  22 degrees of freedom as
           vibrations may cause significant error
 Vibrational temperatures:     30.72    40.90    51.71    68.33   101.35
          (Kelvin)            128.19   178.81   206.03   249.90   305.51
                              372.24   394.27   473.89   510.66   567.62
                              590.11   599.42   619.12   705.72   811.04
                              837.26   857.43   904.63   916.32   934.04
                              982.21  1026.02  1031.02  1084.06  1102.52
                             1143.03  1170.73  1196.71  1213.50  1245.05
                             1256.48  1338.54  1393.77  1401.12  1416.13
                             1441.58  1443.07  1471.43  1526.50  1563.36
                             1577.55  1611.80  1631.96  1686.63  1719.84
                             1729.58  1752.07  1781.01  1818.29  1849.08
                             1936.68  1945.54  1972.28  1987.73  2027.57
                             2046.07  2099.66  2136.20  2161.96  2167.70
                             2202.44  2230.36  2323.04  2368.60  2373.38
                             2401.14  2408.54  2573.83  4375.62  4472.68
                             4571.51  4588.33  4601.48  4603.59  4617.66
                             4619.88  4639.15  4642.73  5161.08

 Zero-point correction=                           0.228511 (Hartree/Particle)
 Thermal correction to Energy=                    0.244415
 Thermal correction to Enthalpy=                  0.245359
 Thermal correction to Gibbs Free Energy=         0.181893
 Sum of electronic and zero-point Energies=           -891.670305
 Sum of electronic and thermal Energies=              -891.654401
 Sum of electronic and thermal Enthalpies=            -891.653457
 Sum of electronic and thermal Free Energies=         -891.716923

                     E (Thermal)             CV                S
                      KCal/Mol        Cal/Mol-Kelvin    Cal/Mol-Kelvin
 Total                  153.373             59.464            133.575
 Electronic               0.000              0.000              0.000
 Translational            0.889              2.981             42.533
 Rotational               0.889              2.981             33.582
 Vibrational            151.595             53.503             57.461
 Vibration     1          0.593              1.985              6.504
 Vibration     2          0.593              1.984              5.936
 Vibration     3          0.594              1.982              5.471
 Vibration     4          0.595              1.979              4.919
 Vibration     5          0.598              1.968              4.141
 Vibration     6          0.602              1.957              3.680
 Vibration     7          0.610              1.929              3.033
 Vibration     8          0.616              1.910              2.761
 Vibration     9          0.627              1.875              2.395
 Vibration    10          0.643              1.822              2.023
 Vibration    11          0.668              1.748              1.670
 Vibration    12          0.676              1.721              1.571
 Vibration    13          0.712              1.617              1.263
 Vibration    14          0.731              1.565              1.144
 Vibration    15          0.761              1.482              0.983
 Vibration    16          0.774              1.448              0.926
 Vibration    17          0.780              1.434              0.904
 Vibration    18          0.792              1.404              0.858
 Vibration    19          0.846              1.271              0.682
 Vibration    20          0.919              1.110              0.516
 Vibration    21          0.939              1.070              0.482
 Vibration    22          0.954              1.040              0.457

                           ! Non-Optimized Parameters !
 Normal termination of Gaussian 16 at Mon Dec 14 17:02:48 2020.

 ----------------------------------------------------------------------
 # B3LYP/6-311++G(d,p) empiricaldispersion=gd3bj scf=xqc pop=npa geom=c
 heck
 ----------------------------------------------------------------------

 --------------------------------------
 CID_19034724_JID_9177_Energie_neutraal
 --------------------------------------
 Structure from the checkpoint file:  "JID_9177.chk"
 Charge =  0 Multiplicity = 1

 SCF Done:  E(RB3LYP) =  -892.147473152     A.U. after   17 cycles
 Normal termination of Gaussian 16 at Mon Dec 14 17:09:24 2020.

 ----------------------------------------------------------------------
 # B3LYP/6-311++G(d,p) empiricaldispersion=gd3bj scf=xqc pop=npa geom=c
 heck
 ----------------------------------------------------------------------

 ------------------------------------
 CID_19034724_JID_9177_Energie_kation
 ------------------------------------
 Structure from the checkpoint file:  "JID_9177.chk"
 Charge =  1 Multiplicity = 2

 SCF Done:  E(UB3LYP) =  -891.825720832     A.U. after   33 cycles
 SCF Done:  E(UB3LYP) =  -891.825720832     a.u. after    1 cycles
 Normal termination of Gaussian 16 at Mon Dec 14 17:27:55 2020.
 Gaussian 16:  ES64L-G16RevA.03 25-Dec-2016

 ----------------------------------------------------------------------
 # B3LYP/6-311++G(d,p) empiricaldispersion=gd3bj scf=xqc pop=npa geom=c
 heck
 ----------------------------------------------------------------------

 -----------------------------------
 CID_19034724_JID_9177_Energie_anion
 -----------------------------------
 Structure from the checkpoint file:  "JID_9177.chk"
 Charge = -1 Multiplicity = 2

                         Standard orientation:
 ---------------------------------------------------------------------
 Center     Atomic      Atomic             Coordinates (Angstroms)
 Number     Number       Type             X           Y           Z
 ---------------------------------------------------------------------
      1          6           0        5.010755    0.561569   -0.482579
      2          6           0        3.912965    1.384212   -0.216399
      3          6           0        2.637035    0.837260   -0.099739
      4          6           0        2.446539   -0.543368   -0.247984
      5          6           0        3.548735   -1.361129   -0.509808
      6          6           0        4.826929   -0.812486   -0.630259
      7          6           0        1.063345   -1.140922   -0.115183
      8          7           0        0.503068   -0.894476    1.214810
      9          6           0       -0.742139   -0.423997    1.491272
     10          8           0       -1.084524    0.007944    2.581970
     11          6           0       -1.779992   -0.591522    0.401748
     12          6           0       -2.370160    0.470750   -0.285844
     13          7           0       -3.391455    0.390150   -1.116475
     14          6           0       -3.907205   -0.823865   -1.331756
     15          6           0       -3.408533   -1.975183   -0.719384
     16          6           0       -2.336074   -1.851825    0.160209
     17          7           0       -1.796044    1.835663   -0.136687
     18          8           0       -2.541797    2.791823   -0.253412
     19          8           0       -0.581729    1.887545    0.080846
     20          1           0        6.004277    0.991390   -0.573359
     21          1           0        4.050898    2.455700   -0.102784
     22          1           0        1.783557    1.476179    0.103884
     23          1           0        3.406325   -2.433641   -0.620028
     24          1           0        5.675808   -1.458922   -0.834328
     25          1           0        0.386308   -0.695477   -0.849636
     26          1           0        1.104427   -2.218724   -0.318731
     27          1           0        1.162270   -0.776667    1.975965
     28          1           0       -4.745533   -0.872468   -2.021715
     29          1           0       -3.855552   -2.942590   -0.923199
     30          1           0       -1.930564   -2.719607    0.671390
 ---------------------------------------------------------------------

 SCF Done:  E(UB3LYP) =  -892.192163742     A.U. after   25 cycles

 The electronic state is 2-A.
 Alpha  occ. eigenvalues --  -18.97210 -18.95361 -18.95225 -14.32712 -14.22982
 Alpha  occ. eigenvalues --  -14.17429 -10.16186 -10.11678 -10.09989 -10.09945
 Alpha  occ. eigenvalues --  -10.09788 -10.09701 -10.09470 -10.09409 -10.08399
 Alpha  occ. eigenvalues --  -10.08366 -10.06832 -10.06551 -10.04877  -1.03367
 Alpha  occ. eigenvalues --   -0.92394  -0.86426  -0.82397  -0.82138  -0.77587
 Alpha  occ. eigenvalues --   -0.69055  -0.68277  -0.66706  -0.65749  -0.60056
 Alpha  occ. eigenvalues --   -0.56314  -0.53028  -0.52747  -0.50837  -0.48240
 Alpha  occ. eigenvalues --   -0.45945  -0.43876  -0.40401  -0.39176  -0.38376
 Alpha  occ. eigenvalues --   -0.38048  -0.37539  -0.36080  -0.34785  -0.34546
 Alpha  occ. eigenvalues --   -0.34146  -0.33374  -0.31866  -0.31366  -0.30743
 Alpha  occ. eigenvalues --   -0.28801  -0.28686  -0.27483  -0.27258  -0.26626
 Alpha  occ. eigenvalues --   -0.25988  -0.25763  -0.17997  -0.17708  -0.17343
 Alpha  occ. eigenvalues --   -0.15789  -0.15134  -0.14752  -0.13981  -0.12906
 Alpha  occ. eigenvalues --   -0.12191  -0.10710   0.02175
 Alpha virt. eigenvalues --    0.05778   0.06252   0.06482   0.07340   0.08108
 Alpha virt. eigenvalues --    0.08772   0.08955   0.10002   0.10293   0.10975
 Alpha virt. eigenvalues --    0.11832   0.12139   0.12285   0.13426   0.13892

  Beta  occ. eigenvalues --  -18.97198 -18.94943 -18.94696 -14.32162 -14.22981
  Beta  occ. eigenvalues --  -14.17201 -10.16189 -10.11676 -10.09982 -10.09940
  Beta  occ. eigenvalues --  -10.09783 -10.09703 -10.09410 -10.09255 -10.08437
  Beta  occ. eigenvalues --  -10.08394 -10.06830 -10.06469 -10.04607  -1.02384
  Beta  occ. eigenvalues --   -0.92366  -0.85552  -0.82279  -0.81816  -0.77578
  Beta  occ. eigenvalues --   -0.68864  -0.68119  -0.66697  -0.65211  -0.60038
  Beta  occ. eigenvalues --   -0.55481  -0.52894  -0.52716  -0.50826  -0.48086
  Beta  occ. eigenvalues --   -0.45429  -0.43868  -0.40226  -0.39109  -0.38294
  Beta  occ. eigenvalues --   -0.37678  -0.37073  -0.35974  -0.34477  -0.33996
  Beta  occ. eigenvalues --   -0.33343  -0.32394  -0.31401  -0.31060  -0.30667
  Beta  occ. eigenvalues --   -0.28718  -0.28534  -0.27250  -0.26691  -0.26548
  Beta  occ. eigenvalues --   -0.25902  -0.25477  -0.17907  -0.17681  -0.16536
  Beta  occ. eigenvalues --   -0.15191  -0.14624  -0.14387  -0.12455  -0.11879
  Beta  occ. eigenvalues --   -0.10810  -0.10082
  Beta virt. eigenvalues --    0.05772   0.06285   0.06487   0.07327   0.08093
  Beta virt. eigenvalues --    0.08922   0.09020   0.09158   0.10010   0.10294
  Beta virt. eigenvalues --    0.10957   0.11887   0.12193   0.13405   0.13789

 Mulliken charges and spin densities:
               1          2
     1  C   -0.331620   0.005148
     2  C   -0.312665   0.007656
     3  C   -0.402878   0.013495
     4  C    0.953360   0.031619
     5  C   -0.331436   0.003960
     6  C   -0.390228   0.001253
     7  C   -0.556125  -0.044914
     8  N   -0.087882   0.001381
     9  C   -0.474981   0.006225
    10  O   -0.264310  -0.002206
    11  C    0.943352   0.071257
    12  C   -0.843820   0.105509
    13  N    0.024490   0.108637
    14  C    0.004080  -0.044893
    15  C   -0.416530   0.221420
    16  C    0.079522  -0.006048
    17  N   -0.412440   0.191334
    18  O   -0.046163   0.191400
    19  O   -0.140100   0.155081
    20  H    0.133505  -0.000204
    21  H    0.174749   0.000250
    22  H    0.316215  -0.003702
    23  H    0.135951   0.001358
    24  H    0.145955  -0.000369
    25  H    0.190595   0.003369
    26  H    0.184086  -0.004287
    27  H    0.277284   0.000221
    28  H    0.156623   0.003005
    29  H    0.127431  -0.016591
    30  H    0.163980  -0.000364
 Sum of Mulliken charges =  -1.00000   1.00000

 Dipole moment (field-independent basis, Debye):
    X=              9.2239    Y=             -7.8750    Z=             -1.6045  Tot=             12.2340
 Quadrupole moment (field-independent basis, Debye-Ang):
   XX=           -144.9615   YY=           -132.5566   ZZ=           -129.6209
   XY=             15.3352   XZ=              1.3165   YZ=              1.4094

 Summary of Natural Population Analysis:

                                       Natural Population
                Natural  -----------------------------------------------
    Atom  No    Charge         Core      Valence    Rydberg      Total
 -----------------------------------------------------------------------
      C    1   -0.10804      0.99957     2.09938    0.00909     3.10804
      C    2   -0.09996      0.99958     2.09146    0.00892     3.09996
      C    3   -0.09315      0.99952     2.08502    0.00862     3.09315
      C    4   -0.02051      0.99950     2.01243    0.00857     3.02051
      C    5   -0.10459      0.99952     2.09629    0.00878     3.10459
      C    6   -0.10628      0.99958     2.09735    0.00935     3.10628
      C    7   -0.09475      0.99958     2.08521    0.00997     3.09475
      N    8   -0.31883      0.99965     2.80816    0.01102     3.81883
      C    9    0.35158      0.99962     1.62576    0.02303     2.64842
      O   10   -0.31082      0.99987     3.30489    0.00605     4.31082
      C   11   -0.06667      0.99940     2.05238    0.01489     3.06667
      C   12    0.20321      0.99938     1.77848    0.01893     2.79679
      N   13   -0.18366      0.99966     2.67445    0.00956     3.68366
      C   14    0.00488      0.99960     1.98114    0.01438     2.99512
      C   15   -0.08136      0.99957     2.07307    0.00872     3.08136
      C   16   -0.08683      0.99953     2.07919    0.00810     3.08683
      N   17    0.29710      0.99974     2.17622    0.02695     3.20290
      O   18   -0.15422      0.99989     3.14672    0.00761     4.15422
      O   19   -0.21672      0.99989     3.20708    0.00975     4.21672
      H   20    0.09670      0.00000     0.40238    0.00092     0.40330
      H   21    0.10059      0.00000     0.39852    0.00089     0.39941
      H   22    0.12825      0.00000     0.37042    0.00133     0.37175
      H   23    0.09780      0.00000     0.40109    0.00111     0.40220
      H   24    0.09648      0.00000     0.40253    0.00098     0.40352
      H   25    0.12034      0.00000     0.37836    0.00130     0.37966
      H   26    0.08787      0.00000     0.41087    0.00127     0.41213
      H   27    0.19058      0.00000     0.30783    0.00158     0.30942
      H   28    0.08270      0.00000     0.41599    0.00131     0.41730
      H   29    0.09230      0.00000     0.40657    0.00113     0.40770
      H   30    0.09599      0.00000     0.40291    0.00110     0.40401
 =======================================================================
   * Total *    0.00000     18.99265    47.77211    0.23524    67.00000

 Normal termination of Gaussian 16 at Mon Dec 14 17:41:45 2020.
