 Gaussian 16, Revision A.03,

 -----------------------------------------------------------
 # opt freq B3LYP/6-31G(d) empiricaldispersion=gd3bj scf=xqc
 -----------------------------------------------------------

 ------------------------------
 CID_57837274_JID_3060_neutraal
 ------------------------------
 Symbolic Z-matrix:
 Charge =  0 Multiplicity = 1

 SCF Done:  E(RB3LYP) =  -535.892447105     A.U. after   15 cycles
 SCF Done:  E(RB3LYP) =  -535.897581228     A.U. after   12 cycles
 SCF Done:  E(RB3LYP) =  -535.897916263     A.U. after   12 cycles
 SCF Done:  E(RB3LYP) =  -535.897977895     A.U. after   11 cycles
 SCF Done:  E(RB3LYP) =  -535.898014224     A.U. after   11 cycles
 SCF Done:  E(RB3LYP) =  -535.898030063     A.U. after   10 cycles
 SCF Done:  E(RB3LYP) =  -535.898040307     A.U. after   10 cycles
 SCF Done:  E(RB3LYP) =  -535.898045795     A.U. after   10 cycles
 SCF Done:  E(RB3LYP) =  -535.898047742     A.U. after    9 cycles
 SCF Done:  E(RB3LYP) =  -535.898048138     A.U. after    8 cycles
 Optimization completed.
    -- Stationary point found.
 Normal termination of Gaussian 16 at Wed Dec  9 22:20:25 2020.

 --------------------------------------------------------------------
 #N Geom=AllCheck Guess=TCheck SCRF=Check GenChk RB3LYP/6-31G(d) Freq
 --------------------------------------------------------------------

 Structure from the checkpoint file:  "JID_3060.chk"
 ------------------------------
 CID_57837274_JID_3060_neutraal
 ------------------------------
 Charge =  0 Multiplicity = 1

 SCF Done:  E(RB3LYP) =  -535.898048138     A.U. after    1 cycles

  Exact polarizability: 256.641  -1.413 130.089   0.513   0.114  57.211
 Approx polarizability: 401.528  -5.810 202.271  -1.177   0.022  86.805

                      1                      2                      3
                      A                      A                      A
 Frequencies --     45.6611                83.7939                90.6660
 Red. masses --      3.2111                 3.6241                 6.1019
 Frc consts  --      0.0039                 0.0150                 0.0296
 IR Inten    --      0.5617                 2.1260                 1.9972

                      4                      5                      6
                      A                      A                      A
 Frequencies --    129.2100               189.8055               198.8669
 Red. masses --      2.7764                 1.0507                 1.5385
 Frc consts  --      0.0273                 0.0223                 0.0358
 IR Inten    --      0.3440                 1.3769                 4.5056

                      7                      8                      9
                      A                      A                      A
 Frequencies --    201.1177               221.2097               233.0874
 Red. masses --      6.6875                 1.8833                 2.5994
 Frc consts  --      0.1594                 0.0543                 0.0832
 IR Inten    --      1.4796                 1.4851                 2.1804

                     10                     11                     12
                      A                      A                      A
 Frequencies --    286.8332               323.1201               340.7336
 Red. masses --      2.8718                 2.5813                 3.4717
 Frc consts  --      0.1392                 0.1588                 0.2375
 IR Inten    --      0.4874                 3.3792                 2.1770

                     13                     14                     15
                      A                      A                      A
 Frequencies --    346.1180               375.6882               409.7120
 Red. masses --      4.2678                 1.2748                 5.1397
 Frc consts  --      0.3012                 0.1060                 0.5083
 IR Inten    --      3.4719                16.2321                 7.9603

                     16                     17                     18
                      A                      A                      A
 Frequencies --    430.3637               503.2110               511.0513
 Red. masses --      5.7087                 3.2040                 4.9993
 Frc consts  --      0.6230                 0.4780                 0.7693
 IR Inten    --      5.9835                 0.2834                45.1645

                     19                     20                     21
                      A                      A                      A
 Frequencies --    532.4341               570.1043               575.6831
 Red. masses --      4.1247                 1.4482                 3.2763
 Frc consts  --      0.6889                 0.2773                 0.6397
 IR Inten    --     11.0313               351.6673                 6.2920

                     22                     23                     24
                      A                      A                      A
 Frequencies --    619.7595               683.9542               743.5570
 Red. masses --      3.1528                 4.9459                 5.0911
 Frc consts  --      0.7135                 1.3632                 1.6584
 IR Inten    --     48.5819                 5.2954                12.1702

                     25                     26                     27
                      A                      A                      A
 Frequencies --    816.3446               834.5066               882.8363
 Red. masses --      3.7788                 1.7890                 1.3748
 Frc consts  --      1.4837                 0.7340                 0.6313
 IR Inten    --      6.3614                10.5146                 4.5459

                     28                     29                     30
                      A                      A                      A
 Frequencies --    896.3407               947.4419               987.3435
 Red. masses --      1.3718                 3.1082                 1.1726
 Frc consts  --      0.6494                 1.6439                 0.6735
 IR Inten    --      2.9542                 1.1522                34.8406

                     31                     32                     33
                      A                      A                      A
 Frequencies --    998.7554              1042.7687              1056.4346
 Red. masses --      2.4966                 1.4071                 2.0039
 Frc consts  --      1.4673                 0.9015                 1.3177
 IR Inten    --      4.2676                 5.7136                10.1216

                     34                     35                     36
                      A                      A                      A
 Frequencies --   1071.7230              1075.8565              1080.8964
 Red. masses --      1.4824                 1.4723                 4.6392
 Frc consts  --      1.0032                 1.0041                 3.1935
 IR Inten    --      3.5802                 0.0587                 4.3871

                     37                     38                     39
                      A                      A                      A
 Frequencies --   1177.2071              1197.7584              1286.2188
 Red. masses --      1.7383                 1.8076                 2.0005
 Frc consts  --      1.4193                 1.5279                 1.9499
 IR Inten    --      3.5146                39.3361                 0.5949

                     40                     41                     42
                      A                      A                      A
 Frequencies --   1319.5817              1334.4946              1353.3268
 Red. masses --      1.4040                 1.8477                 1.2896
 Frc consts  --      1.4404                 1.9387                 1.3916
 IR Inten    --      1.3566                 8.7339                 9.7839

                     43                     44                     45
                      A                      A                      A
 Frequencies --   1367.6687              1390.4931              1443.6076
 Red. masses --      5.8329                 3.3097                 1.3036
 Frc consts  --      6.4283                 3.7703                 1.6007
 IR Inten    --    125.1558                 8.3176                 1.0624

                     46                     47                     48
                      A                      A                      A
 Frequencies --   1443.8745              1480.1903              1502.8292
 Red. masses --      1.2773                 3.1543                 1.6539
 Frc consts  --      1.5690                 4.0718                 2.2008
 IR Inten    --      0.5210                19.2886                50.5781

                     49                     50                     51
                      A                      A                      A
 Frequencies --   1515.4745              1516.8222              1538.1412
 Red. masses --      1.0440                 1.0437                 1.1641
 Frc consts  --      1.4127                 1.4148                 1.6227
 IR Inten    --     13.8729                 1.0303                15.2117

                     52                     53                     54
                      A                      A                      A
 Frequencies --   1552.0605              1639.7256              1666.3747
 Red. masses --      1.6418                 6.2544                 3.8008
 Frc consts  --      2.3302                 9.9078                 6.2182
 IR Inten    --     61.1845                 2.4285                55.6217

                     55                     56                     57
                      A                      A                      A
 Frequencies --   1695.3226              1703.9870              2195.8612
 Red. masses --      2.5618                 1.6930                12.8016
 Frc consts  --      4.3381                 2.8963                36.3685
 IR Inten    --     97.5957                75.4036               136.6056

                     58                     59                     60
                      A                      A                      A
 Frequencies --   3019.5071              3020.6358              3070.2560
 Red. masses --      1.0454                 1.0456                 1.0950
 Frc consts  --      5.6160                 5.6208                 6.0813
 IR Inten    --     37.4792                46.6869                21.4485

                     61                     62                     63
                      A                      A                      A
 Frequencies --   3071.6483              3133.5601              3133.7609
 Red. masses --      1.0947                 1.0973                 1.0973
 Frc consts  --      6.0855                 6.3485                 6.3488
 IR Inten    --     24.4195                14.3401                 7.3843

                     64                     65                     66
                      A                      A                      A
 Frequencies --   3175.2903              3181.3411              3187.9267
 Red. masses --      1.0900                 1.0902                 1.0892
 Frc consts  --      6.4752                 6.5007                 6.5220
 IR Inten    --      5.8022                16.9142                10.8056

                     67                     68                     69
                      A                      A                      A
 Frequencies --   3211.9001              3574.8839              3673.9269
 Red. masses --      1.0882                 1.0473                 1.0987
 Frc consts  --      6.6145                 7.8861                 8.7377
 IR Inten    --     18.1412                27.4907                15.2661

 - Thermochemistry -
 -------------------
 Temperature   298.150 Kelvin.  Pressure   1.00000 Atm.
 Atom     1 has atomic number  6 and mass  12.00000

 Molecular mass:   172.10005 amu.
 Principal axes and moments of inertia in atomic units:
                           1         2         3
     Eigenvalues --  1064.550074633.186405673.76332
           X            0.99999  -0.00303   0.00160
           Y            0.00303   1.00000   0.00060
           Z           -0.00160  -0.00060   1.00000
 This molecule is an asymmetric top.
 Rotational symmetry number  1.
 Warning -- assumption of classical behavior for rotation
           may cause significant error
 Rotational temperatures (Kelvin)      0.08136     0.01869     0.01527
 Rotational constants (GHZ):           1.69531     0.38952     0.31809
 Zero-point vibrational energy     538993.3 (Joules/Mol)
                                  128.82250 (Kcal/Mol)
 Warning -- explicit consideration of  22 degrees of freedom as
           vibrations may cause significant error
 Vibrational temperatures:     65.70   120.56   130.45   185.90   273.09
          (Kelvin)            286.13   289.36   318.27   335.36   412.69
                              464.90   490.24   497.99   540.53   589.48
                              619.20   724.01   735.29   766.05   820.25
                              828.28   891.70   984.06  1069.81  1174.54
                             1200.67  1270.20  1289.63  1363.16  1420.57
                             1436.99  1500.31  1519.97  1541.97  1547.92
                             1555.17  1693.74  1723.31  1850.58  1898.58
                             1920.04  1947.14  1967.77  2000.61  2077.03
                             2077.41  2129.66  2162.24  2180.43  2182.37
                             2213.04  2233.07  2359.20  2397.54  2439.19
                             2451.66  3159.35  4344.40  4346.02  4417.41
                             4419.42  4508.49  4508.78  4568.53  4577.24
                             4586.72  4621.21  5143.46  5285.96

 Zero-point correction=                           0.205292 (Hartree/Particle)
 Thermal correction to Energy=                    0.218401
 Thermal correction to Enthalpy=                  0.219346
 Thermal correction to Gibbs Free Energy=         0.165987
 Sum of electronic and zero-point Energies=           -535.692756
 Sum of electronic and thermal Energies=              -535.679647
 Sum of electronic and thermal Enthalpies=            -535.678702
 Sum of electronic and thermal Free Energies=         -535.732061

                     E (Thermal)             CV                S
                      KCal/Mol        Cal/Mol-Kelvin    Cal/Mol-Kelvin
 Total                  137.049             49.207            112.302
 Electronic               0.000              0.000              0.000
 Translational            0.889              2.981             41.336
 Rotational               0.889              2.981             31.704
 Vibrational            135.272             43.246             39.262
 Vibration     1          0.595              1.979              4.997
 Vibration     2          0.601              1.960              3.800
 Vibration     3          0.602              1.956              3.646
 Vibration     4          0.612              1.924              2.958
 Vibration     5          0.633              1.854              2.230
 Vibration     6          0.637              1.841              2.144
 Vibration     7          0.638              1.838              2.123
 Vibration     8          0.648              1.809              1.949
 Vibration     9          0.654              1.790              1.855
 Vibration    10          0.684              1.698              1.493
 Vibration    11          0.708              1.629              1.294
 Vibration    12          0.720              1.594              1.209
 Vibration    13          0.724              1.583              1.184
 Vibration    14          0.747              1.522              1.056
 Vibration    15          0.774              1.449              0.928
 Vibration    16          0.792              1.404              0.857
 Vibration    17          0.859              1.243              0.650
 Vibration    18          0.866              1.226              0.631
 Vibration    19          0.887              1.178              0.582
 Vibration    20          0.926              1.096              0.504
 Vibration    21          0.932              1.084              0.493
 Vibration    22          0.980              0.990              0.417

                           ! Non-Optimized Parameters !
 Normal termination of Gaussian 16 at Wed Dec  9 22:25:55 2020.

 ----------------------------------------------------------------------
 # B3LYP/6-311++G(d,p) empiricaldispersion=gd3bj scf=xqc pop=npa geom=c
 heck
 ----------------------------------------------------------------------

 --------------------------------------
 CID_57837274_JID_3060_Energie_neutraal
 --------------------------------------
 Structure from the checkpoint file:  "JID_3060.chk"
 Charge =  0 Multiplicity = 1

 SCF Done:  E(RB3LYP) =  -536.045580754     A.U. after   15 cycles
 Normal termination of Gaussian 16 at Wed Dec  9 22:27:54 2020.

 ----------------------------------------------------------------------
 # B3LYP/6-311++G(d,p) empiricaldispersion=gd3bj scf=xqc pop=npa geom=c
 heck
 ----------------------------------------------------------------------

 ------------------------------------
 CID_57837274_JID_3060_Energie_kation
 ------------------------------------
 Structure from the checkpoint file:  "JID_3060.chk"
 Charge =  1 Multiplicity = 2

 SCF Done:  E(UB3LYP) =  -535.774913438     A.U. after   20 cycles
 Normal termination of Gaussian 16 at Wed Dec  9 22:31:29 2020.
 Gaussian 16:  ES64L-G16RevA.03 25-Dec-2016

 ----------------------------------------------------------------------
 # B3LYP/6-311++G(d,p) empiricaldispersion=gd3bj scf=xqc pop=npa geom=c
 heck
 ----------------------------------------------------------------------

 -----------------------------------
 CID_57837274_JID_3060_Energie_anion
 -----------------------------------
 Structure from the checkpoint file:  "JID_3060.chk"
 Charge = -1 Multiplicity = 2

                         Standard orientation:
 ---------------------------------------------------------------------
 Center     Atomic      Atomic             Coordinates (Angstroms)
 Number     Number       Type             X           Y           Z
 ---------------------------------------------------------------------
      1          6           0        2.541351   -2.391105   -0.014883
      2          6           0        1.620782   -1.197632   -0.001136
      3          6           0        0.239226   -1.356163   -0.003157
      4          6           0       -0.644644   -0.265328   -0.001503
      5          6           0       -0.082365    1.023401   -0.004293
      6          6           0        1.290233    1.229364   -0.002745
      7          6           0        2.154971    0.108673    0.004723
      8          7           0        3.533378    0.297606   -0.045307
      9          6           0        1.865724    2.622538   -0.018771
     10          6           0       -2.077674   -0.520494   -0.000389
     11          6           0       -3.063225    0.397775    0.004814
     12          7           0       -4.393072    0.045867    0.005958
     13          6           0       -5.545567   -0.218430    0.007521
     14          1           0        3.210148   -2.374818   -0.885561
     15          1           0        3.177636   -2.431685    0.881726
     16          1           0        1.972069   -3.323808   -0.048261
     17          1           0       -0.169323   -2.364271   -0.005720
     18          1           0       -0.729274    1.896211   -0.008991
     19          1           0        3.869896    1.187889    0.295118
     20          1           0        4.096131   -0.473761    0.286543
     21          1           0        2.465084    2.831416    0.879807
     22          1           0        2.519450    2.778386   -0.886964
     23          1           0        1.072167    3.373427   -0.058321
     24          1           0       -2.376307   -1.566740   -0.003536
     25          1           0       -2.882692    1.467851    0.008527
 ---------------------------------------------------------------------

 SCF Done:  E(UB3LYP) =  -536.052840397     A.U. after   31 cycles

 The electronic state is 2-A.
 Alpha  occ. eigenvalues --  -14.21126 -14.20789 -10.08215 -10.06844 -10.06783
 Alpha  occ. eigenvalues --  -10.06744 -10.05899 -10.05697 -10.05585 -10.04476
 Alpha  occ. eigenvalues --  -10.04402 -10.04034 -10.03490  -0.81563  -0.81178
 Alpha  occ. eigenvalues --   -0.72708  -0.67343  -0.66694  -0.62421  -0.58304
 Alpha  occ. eigenvalues --   -0.56945  -0.52798  -0.47403  -0.45298  -0.41806
 Alpha  occ. eigenvalues --   -0.40178  -0.38511  -0.34895  -0.33015  -0.32708
 Alpha  occ. eigenvalues --   -0.31445  -0.30867  -0.30609  -0.28991  -0.28011
 Alpha  occ. eigenvalues --   -0.26957  -0.26278  -0.24864  -0.23551  -0.22056
 Alpha  occ. eigenvalues --   -0.21118  -0.20001  -0.17501  -0.14151  -0.12721
 Alpha  occ. eigenvalues --   -0.07639   0.03890
 Alpha virt. eigenvalues --    0.05758   0.07438   0.08671   0.09967   0.10250
 Alpha virt. eigenvalues --    0.10447   0.10982   0.11898   0.12476   0.12610
 Alpha virt. eigenvalues --    0.13204   0.13278   0.14090   0.15056   0.15790

  Beta  occ. eigenvalues --  -14.21220 -14.20713 -10.07998 -10.06829 -10.06726
  Beta  occ. eigenvalues --  -10.06539 -10.05975 -10.05744 -10.05341 -10.04416
  Beta  occ. eigenvalues --  -10.04363 -10.03868 -10.03250  -0.81413  -0.81000
  Beta  occ. eigenvalues --   -0.72532  -0.67307  -0.66307  -0.62180  -0.58052
  Beta  occ. eigenvalues --   -0.56741  -0.52252  -0.47346  -0.45134  -0.41673
  Beta  occ. eigenvalues --   -0.40033  -0.38305  -0.34737  -0.32937  -0.32610
  Beta  occ. eigenvalues --   -0.31452  -0.30782  -0.30544  -0.28930  -0.27904
  Beta  occ. eigenvalues --   -0.26227  -0.26171  -0.24413  -0.23375  -0.21991
  Beta  occ. eigenvalues --   -0.20436  -0.19937  -0.16925  -0.13036  -0.12259
  Beta  occ. eigenvalues --   -0.06570
  Beta virt. eigenvalues --    0.06327   0.07558   0.08639   0.08880   0.10049
  Beta virt. eigenvalues --    0.10235   0.10546   0.11001   0.12025   0.12521
  Beta virt. eigenvalues --    0.12621   0.13226   0.13665   0.14112   0.15173

 Mulliken charges and spin densities:
               1          2
     1  C    0.026158  -0.617503
     2  C    0.179538   0.197680
     3  C   -0.448913   0.062436
     4  C    1.471602   0.069624
     5  C   -0.921361   0.138894
     6  C    0.526417   0.045245
     7  C   -1.557000   0.158390
     8  N   -0.247462  -0.005133
     9  C    0.012712  -0.582448
    10  C   -0.335956   0.077515
    11  C   -0.103894   0.232077
    12  N    0.241795  -0.054472
    13  C   -0.424830   0.198874
    14  H    0.071724   0.079843
    15  H   -0.002895   0.140470
    16  H    0.128237   0.011028
    17  H    0.045488   0.004883
    18  H   -0.068441  -0.031953
    19  H   -0.052238   0.301827
    20  H   -0.069741   0.314760
    21  H   -0.059296   0.198372
    22  H    0.086147   0.062253
    23  H    0.133572   0.018420
    24  H    0.155534  -0.017780
    25  H    0.213101  -0.003301
 Sum of Mulliken charges =  -1.00000   1.00000

 Dipole moment (field-independent basis, Debye):
    X=              6.5446    Y=              0.2399    Z=             -0.5312  Tot=              6.5706
 Quadrupole moment (field-independent basis, Debye-Ang):
   XX=           -182.9447   YY=            -88.3838   ZZ=            -93.2498
   XY=             -6.4470   XZ=             -1.8070   YZ=             -1.0252

 Summary of Natural Population Analysis:

                                       Natural Population
                Natural  -----------------------------------------------
    Atom  No    Charge         Core      Valence    Rydberg      Total
 -----------------------------------------------------------------------
      C    1   -0.29496      0.99964     2.28924    0.00608     3.29496
      C    2   -0.05587      0.99949     2.04719    0.00920     3.05587
      C    3   -0.06503      0.99950     2.05812    0.00741     3.06503
      C    4   -0.05092      0.99951     2.04267    0.00874     3.05092
      C    5   -0.05067      0.99949     2.04310    0.00808     3.05067
      C    6   -0.05395      0.99949     2.04565    0.00881     3.05395
      C    7    0.11879      0.99941     1.87065    0.01115     2.88121
      N    8   -0.39636      0.99971     2.88614    0.01050     3.89636
      C    9   -0.29484      0.99964     2.28920    0.00600     3.29484
      C   10   -0.04148      0.99953     2.03371    0.00825     3.04148
      C   11    0.00274      0.99946     1.98731    0.01050     2.99726
      N   12   -0.26734      0.99962     2.75640    0.01132     3.76734
      C   13    0.12032      0.99975     1.86640    0.01353     2.87968
      H   14    0.09990      0.00000     0.39901    0.00108     0.40010
      H   15    0.09625      0.00000     0.40255    0.00120     0.40375
      H   16    0.10139      0.00000     0.39791    0.00070     0.39861
      H   17    0.08990      0.00000     0.40880    0.00130     0.41010
      H   18    0.09037      0.00000     0.40832    0.00131     0.40963
      H   19    0.18670      0.00000     0.31109    0.00221     0.31330
      H   20    0.18618      0.00000     0.31167    0.00215     0.31382
      H   21    0.09694      0.00000     0.40181    0.00126     0.40306
      H   22    0.09948      0.00000     0.39946    0.00106     0.40052
      H   23    0.10194      0.00000     0.39737    0.00069     0.39806
      H   24    0.09038      0.00000     0.40829    0.00132     0.40962
      H   25    0.09016      0.00000     0.40857    0.00128     0.40984
 =======================================================================
   * Total *   -0.00000     12.99425    32.87063    0.13512    46.00000

 Normal termination of Gaussian 16 at Wed Dec  9 22:36:55 2020.
