 Gaussian 16, Revision A.03,

 -----------------------------------------------------------
 # opt freq B3LYP/6-31G(d) empiricaldispersion=gd3bj scf=xqc
 -----------------------------------------------------------

 -------------------------------
 CID_139502544_JID_8047_neutraal
 -------------------------------
 Symbolic Z-matrix:
 Charge =  0 Multiplicity = 1

 SCF Done:  E(RB3LYP) =  -822.569312960     A.U. after   13 cycles
 SCF Done:  E(RB3LYP) =  -822.578219922     A.U. after   11 cycles
 SCF Done:  E(RB3LYP) =  -822.579247603     A.U. after   11 cycles
 SCF Done:  E(RB3LYP) =  -822.579280110     A.U. after    9 cycles
 SCF Done:  E(RB3LYP) =  -822.579280936     A.U. after    8 cycles
 SCF Done:  E(RB3LYP) =  -822.579281297     A.U. after    8 cycles
 SCF Done:  E(RB3LYP) =  -822.579281410     A.U. after    7 cycles
 SCF Done:  E(RB3LYP) =  -822.579281445     A.U. after    7 cycles
 Optimization completed.
    -- Stationary point found.

 1\1\GINC-NODE222\FOpt\RB3LYP\6-31G(d)\C10H6N8\VSC10255\11-Dec-2020\0\\
 # opt freq B3LYP/6-31G(d) empiricaldispersion=gd3bj scf=xqc\\CID_13950
 2544_JID_8047_neutraal\\0,1\C,1.3569066364,-0.2119386987,0.0451113315\
 C,0.8287159732,1.0645444394,0.1777703736\C,-0.5602692437,1.2490868601,
 0.267136369\C,-1.4111517808,0.1331909509,0.2213405849\C,-0.8829616501,
 -1.1432915219,0.0886718883\C,0.5060242749,-1.3278350082,-0.0006809588\
 C,1.0669959054,-2.6835404651,-0.1415643705\N,2.4091237976,-2.806640063
 3,-0.2230702324\N,2.9105981568,-4.0197662963,-0.349073292\C,2.04085406

 Normal termination of Gaussian 16 at Fri Dec 11 18:31:54 2020.

 --------------------------------------------------------------------
 #N Geom=AllCheck Guess=TCheck SCRF=Check GenChk RB3LYP/6-31G(d) Freq
 --------------------------------------------------------------------

 Structure from the checkpoint file:  "JID_8047.chk"
 -------------------------------
 CID_139502544_JID_8047_neutraal
 -------------------------------
 Charge =  0 Multiplicity = 1

 SCF Done:  E(RB3LYP) =  -822.579281445     A.U. after    1 cycles

  Exact polarizability: 316.734  -0.000 137.521   0.000  -0.000  55.366
 Approx polarizability: 444.602  -0.000 301.477   0.000  -0.000  91.071

                      1                      2                      3
                      A                      A                      A
 Frequencies --     36.1999                39.2937                62.8739
 Red. masses --     13.9766                 6.4501                 4.9832
 Frc consts  --      0.0108                 0.0059                 0.0116
 IR Inten    --      0.0000                 0.4395                 0.0000

                      4                      5                      6
                      A                      A                      A
 Frequencies --     89.0321                90.7747               136.0015
 Red. masses --      5.3573                 8.0600                 5.5811
 Frc consts  --      0.0250                 0.0391                 0.0608
 IR Inten    --      0.0000                 0.1200                28.2743

                      7                      8                      9
                      A                      A                      A
 Frequencies --    191.3714               225.8677               245.2346
 Red. masses --      6.9650                11.2425                 6.4001
 Frc consts  --      0.1503                 0.3379                 0.2268
 IR Inten    --      0.0000                 0.0000                 0.0000

                     10                     11                     12
                      A                      A                      A
 Frequencies --    337.2623               338.3787               409.5343
 Red. masses --     13.1885                13.9767                 9.3417
 Frc consts  --      0.8839                 0.9429                 0.9231
 IR Inten    --      0.0000                 0.0000                 4.6672

                     13                     14                     15
                      A                      A                      A
 Frequencies --    414.8232               414.9033               458.2201
 Red. masses --      5.2620                 3.0693                 7.3551
 Frc consts  --      0.5335                 0.3113                 0.9099
 IR Inten    --     24.1949                 0.0000                 1.7252

                     16                     17                     18
                      A                      A                      A
 Frequencies --    490.7511               544.8272               616.0038
 Red. masses --      5.0711                 6.9403                 3.2416
 Frc consts  --      0.7196                 1.2138                 0.7247
 IR Inten    --      0.0000                 0.0000                64.9090

                     19                     20                     21
                      A                      A                      A
 Frequencies --    641.3833               662.8677               671.6841
 Red. masses --      8.1592                12.4896                10.3078
 Frc consts  --      1.9776                 3.2334                 2.7400
 IR Inten    --      0.0000                 0.1559                 0.0000

                     22                     23                     24
                      A                      A                      A
 Frequencies --    703.9126               763.2152               803.0647
 Red. masses --      8.1389                 4.7917                10.0521
 Frc consts  --      2.3760                 1.6445                 3.8195
 IR Inten    --      0.0000                 0.0000                 0.0764

                     25                     26                     27
                      A                      A                      A
 Frequencies --    823.1688               836.7336               843.5118
 Red. masses --      3.8898                 9.1855                 5.9398
 Frc consts  --      1.5529                 3.7890                 2.4900
 IR Inten    --     11.1131                 0.0000                 0.0000

                     28                     29                     30
                      A                      A                      A
 Frequencies --    878.4462               899.7782               939.8994
 Red. masses --      1.2459                 1.7955                 1.3645
 Frc consts  --      0.5665                 0.8565                 0.7102
 IR Inten    --      0.0000                19.8080                 0.0000

                     31                     32                     33
                      A                      A                      A
 Frequencies --    940.9478              1007.9588              1014.4116
 Red. masses --      1.4024                 1.3419                12.9509
 Frc consts  --      0.7316                 0.8033                 7.8520
 IR Inten    --      1.1028                 0.0000                63.9244

                     34                     35                     36
                      A                      A                      A
 Frequencies --   1016.9105              1018.1401              1033.6985
 Red. masses --      1.3143                12.9790                 4.6193
 Frc consts  --      0.8007                 7.9269                 2.9081
 IR Inten    --      0.0000                 0.0000                25.6255

                     37                     38                     39
                      A                      A                      A
 Frequencies --   1052.0748              1072.7176              1083.1939
 Red. masses --      9.1040                 3.1581                 9.8854
 Frc consts  --      5.9371                 2.1411                 6.8337
 IR Inten    --      0.0000                 0.0673                16.1081

                     40                     41                     42
                      A                      A                      A
 Frequencies --   1084.2703              1151.6988              1180.8379
 Red. masses --     10.5560                 1.3425                 5.9370
 Frc consts  --      7.3118                 1.0492                 4.8775
 IR Inten    --      0.0000                 6.0159                 0.0000

                     43                     44                     45
                      A                      A                      A
 Frequencies --   1184.5227              1210.2767              1212.8432
 Red. masses --      5.1931                 2.2508                 2.1658
 Frc consts  --      4.2930                 1.9425                 1.8771
 IR Inten    --     57.6188                15.7664                 0.0000

                     46                     47                     48
                      A                      A                      A
 Frequencies --   1221.1872              1340.0017              1349.8398
 Red. masses --      1.2274                 1.3223                 4.7048
 Frc consts  --      1.0785                 1.3989                 5.0508
 IR Inten    --      0.0000                 0.0000                 1.0033

                     49                     50                     51
                      A                      A                      A
 Frequencies --   1383.2403              1406.4961              1418.7078
 Red. masses --      4.2989                11.2216                 3.0612
 Frc consts  --      4.8463                13.0792                 3.6302
 IR Inten    --    523.4538                 0.0000                14.5608

                     52                     53                     54
                      A                      A                      A
 Frequencies --   1430.9857              1479.0371              1497.4420
 Red. masses --      2.2424                 2.7590                12.4757
 Frc consts  --      2.7055                 3.5559                16.4822
 IR Inten    --      0.0000                 5.3937               221.4654

                     55                     56                     57
                      A                      A                      A
 Frequencies --   1499.4461              1544.6367              1553.6468
 Red. masses --     12.9560                 4.5410                 5.4134
 Frc consts  --     17.1626                 6.3835                 7.6988
 IR Inten    --      0.0000                 0.0000                 3.9898

                     58                     59                     60
                      A                      A                      A
 Frequencies --   1562.5329              1625.6945              1671.8530
 Red. masses --      2.7035                 7.5423                 5.6734
 Frc consts  --      3.8890                11.7444                 9.3431
 IR Inten    --     33.6667                 0.0000                 0.0000

                     61                     62                     63
                      A                      A                      A
 Frequencies --   3233.3370              3234.2681              3238.6756
 Red. masses --      1.0888                 1.0881                 1.0931
 Frc consts  --      6.7066                 6.7063                 6.7553
 IR Inten    --      0.0720                 0.0000                 9.2205

                     64                     65                     66
                      A                      A                      A
 Frequencies --   3238.6911              3245.3877              3246.7207
 Red. masses --      1.0931                 1.0938                 1.0950
 Frc consts  --      6.7554                 6.7874                 6.8009
 IR Inten    --      0.0004                 0.1804                 0.0000

 - Thermochemistry -
 -------------------
 Temperature   298.150 Kelvin.  Pressure   1.00000 Atm.
 Atom     1 has atomic number  6 and mass  12.00000

 Molecular mass:   238.07154 amu.
 Principal axes and moments of inertia in atomic units:
                           1         2         3
     Eigenvalues --   887.96471********************
           X            1.00000  -0.00000  -0.00000
           Y            0.00000   1.00000  -0.00000
           Z            0.00000   0.00000   1.00000
 This molecule is an asymmetric top.
 Rotational symmetry number  1.
 Warning -- assumption of classical behavior for rotation
           may cause significant error
 Rotational temperatures (Kelvin)      0.09754     0.00792     0.00733
 Rotational constants (GHZ):           2.03245     0.16506     0.15266
 Zero-point vibrational energy     432422.2 (Joules/Mol)
                                  103.35139 (Kcal/Mol)
 Warning -- explicit consideration of  18 degrees of freedom as
           vibrations may cause significant error
 Vibrational temperatures:     52.08    56.53    90.46   128.10   130.60
          (Kelvin)            195.68   275.34   324.97   352.84   485.25
                              486.85   589.23   596.84   596.95   659.28
                              706.08   783.88   886.29   922.81   953.72
                              966.40  1012.77  1098.10  1155.43  1184.36
                             1203.87  1213.63  1263.89  1294.58  1352.31
                             1353.81  1450.23  1459.51  1463.11  1464.88
                             1487.26  1513.70  1543.40  1558.47  1560.02
                             1657.04  1698.96  1704.26  1741.32  1745.01
                             1757.02  1927.96  1942.12  1990.17  2023.63
                             2041.20  2058.87  2128.00  2154.48  2157.37
                             2222.39  2235.35  2248.14  2339.01  2405.42
                             4652.05  4653.39  4659.73  4659.75  4669.39
                             4671.31

 Zero-point correction=                           0.164701 (Hartree/Particle)
 Thermal correction to Energy=                    0.177850
 Thermal correction to Enthalpy=                  0.178794
 Thermal correction to Gibbs Free Energy=         0.122594
 Sum of electronic and zero-point Energies=           -822.414581
 Sum of electronic and thermal Energies=              -822.401432
 Sum of electronic and thermal Enthalpies=            -822.400488
 Sum of electronic and thermal Free Energies=         -822.456687

                     E (Thermal)             CV                S
                      KCal/Mol        Cal/Mol-Kelvin    Cal/Mol-Kelvin
 Total                  111.602             49.497            118.282
 Electronic               0.000              0.000              0.000
 Translational            0.889              2.981             42.304
 Rotational               0.889              2.981             33.106
 Vibrational            109.825             43.536             42.872
 Vibration     1          0.594              1.982              5.457
 Vibration     2          0.594              1.981              5.294
 Vibration     3          0.597              1.972              4.365
 Vibration     4          0.602              1.957              3.681
 Vibration     5          0.602              1.956              3.643
 Vibration     6          0.614              1.917              2.859
 Vibration     7          0.634              1.852              2.215
 Vibration     8          0.650              1.802              1.912
 Vibration     9          0.660              1.771              1.765
 Vibration    10          0.718              1.601              1.225
 Vibration    11          0.719              1.599              1.220
 Vibration    12          0.774              1.450              0.928
 Vibration    13          0.778              1.438              0.910
 Vibration    14          0.778              1.438              0.909
 Vibration    15          0.816              1.343              0.771
 Vibration    16          0.847              1.271              0.682
 Vibration    17          0.900              1.151              0.555
 Vibration    18          0.976              0.998              0.423

 Optimization completed.
    -- Stationary point found.

 1\1\GINC-NODE222\Freq\RB3LYP\6-31G(d)\C10H6N8\VSC10255\11-Dec-2020\0\\
 #N Geom=AllCheck Guess=TCheck SCRF=Check GenChk RB3LYP/6-31G(d) Freq\\
 CID_139502544_JID_8047_neutraal\\0,1\C,1.3569066364,-0.2119386987,0.04
 51113315\C,0.8287159732,1.0645444394,0.1777703736\C,-0.5602692437,1.24
 90868601,0.267136369\C,-1.4111517808,0.1331909509,0.2213405849\C,-0.88
 29616501,-1.1432915219,0.0886718883\C,0.5060242749,-1.3278350082,-0.00
 06809588\C,1.0669959054,-2.6835404651,-0.1415643705\N,2.4091237976,-2.
 8066400633,-0.2230702324\N,2.9105981568,-4.0197662963,-0.349073292\C,2

 Normal termination of Gaussian 16 at Fri Dec 11 18:38:49 2020.

 ----------------------------------------------------------------------
 # B3LYP/6-311++G(d,p) empiricaldispersion=gd3bj scf=xqc pop=npa geom=c
 heck
 ----------------------------------------------------------------------

 ---------------------------------------
 CID_139502544_JID_8047_Energie_neutraal
 ---------------------------------------
 Structure from the checkpoint file:  "JID_8047.chk"
 Charge =  0 Multiplicity = 1

 SCF Done:  E(RB3LYP) =  -822.780014203     A.U. after   13 cycles
 Normal termination of Gaussian 16 at Fri Dec 11 18:41:20 2020.

 ----------------------------------------------------------------------
 # B3LYP/6-311++G(d,p) empiricaldispersion=gd3bj scf=xqc pop=npa geom=c
 heck
 ----------------------------------------------------------------------

 -------------------------------------
 CID_139502544_JID_8047_Energie_kation
 -------------------------------------
 Structure from the checkpoint file:  "JID_8047.chk"
 Charge =  1 Multiplicity = 2

 SCF Done:  E(UB3LYP) =  -822.465338685     A.U. after   24 cycles
 Normal termination of Gaussian 16 at Fri Dec 11 18:47:43 2020.
 Gaussian 16:  ES64L-G16RevA.03 25-Dec-2016

 ------------------------------------
 CID_139502544_JID_8047_Energie_anion
 ------------------------------------
 Structure from the checkpoint file:  "JID_8047.chk"
 Charge = -1 Multiplicity = 2

                         Standard orientation:
 ---------------------------------------------------------------------
 Center     Atomic      Atomic             Coordinates (Angstroms)
 Number     Number       Type             X           Y           Z
 ---------------------------------------------------------------------
      1          6           0        0.693901    1.213088   -0.000069
      2          6           0       -0.693901    1.213088   -0.000071
      3          6           0       -1.400824    0.000000   -0.000056
      4          6           0       -0.693901   -1.213087   -0.000052
      5          6           0        0.693901   -1.213087   -0.000059
      6          6           0        1.400824    0.000000   -0.000061
      7          6           0        2.874756    0.000000   -0.000049
      8          7           0        3.506580    1.193274    0.000263
      9          7           0        4.825302    1.192811    0.000310
     10          6           0        5.433511   -0.000001    0.000128
     11          7           0        4.825301   -1.192812   -0.000204
     12          7           0        3.506579   -1.193274   -0.000276
     13          6           0       -2.874756    0.000000   -0.000040
     14          7           0       -3.506579   -1.193274    0.000258
     15          7           0       -4.825301   -1.192812    0.000300
     16          6           0       -5.433511   -0.000001    0.000116
     17          7           0       -4.825302    1.192811   -0.000196
     18          7           0       -3.506580    1.193274   -0.000262
     19          1           0        1.244362    2.146219   -0.000065
     20          1           0       -1.244362    2.146219   -0.000086
     21          1           0       -1.244362   -2.146218   -0.000035
     22          1           0        1.244362   -2.146218   -0.000064
     23          1           0        6.518300   -0.000001    0.000087
     24          1           0       -6.518300   -0.000001    0.000087
 ---------------------------------------------------------------------

 SCF Done:  E(UB3LYP) =  -822.853655692     A.U. after   23 cycles

 The electronic state is 2-A.
 Alpha  occ. eigenvalues --  -14.24033 -14.24033 -14.24032 -14.24032 -14.23687
 Alpha  occ. eigenvalues --  -14.23687 -14.23685 -14.23685 -10.14234 -10.14233
 Alpha  occ. eigenvalues --  -10.13252 -10.13252 -10.09132 -10.09131 -10.07817
 Alpha  occ. eigenvalues --  -10.07814 -10.07759 -10.07758  -0.95930  -0.95927
 Alpha  occ. eigenvalues --   -0.87305  -0.87305  -0.78505  -0.76856  -0.73961
 Alpha  occ. eigenvalues --   -0.66482  -0.65769  -0.62841  -0.62137  -0.60000
 Alpha  occ. eigenvalues --   -0.56399  -0.51349  -0.49934  -0.46270  -0.44870
 Alpha  occ. eigenvalues --   -0.43448  -0.40443  -0.39855  -0.38797  -0.36231
 Alpha  occ. eigenvalues --   -0.36105  -0.35028  -0.34116  -0.32687  -0.28613
 Alpha  occ. eigenvalues --   -0.28490  -0.25887  -0.25875  -0.25059  -0.24024
 Alpha  occ. eigenvalues --   -0.23316  -0.23190  -0.22867  -0.22691  -0.20603
 Alpha  occ. eigenvalues --   -0.19849  -0.19655  -0.16260  -0.14209  -0.11028
 Alpha  occ. eigenvalues --   -0.10878  -0.01958
 Alpha virt. eigenvalues --   -0.00420   0.02054   0.06682   0.08257   0.08338
 Alpha virt. eigenvalues --    0.08647   0.09588   0.10413   0.11403   0.12217
 Alpha virt. eigenvalues --    0.12868   0.13775   0.14266   0.14340   0.14690

  Beta  occ. eigenvalues --  -14.23703 -14.23703 -14.23702 -14.23701 -14.23374
  Beta  occ. eigenvalues --  -14.23374 -14.23372 -14.23372 -10.14307 -10.14307
  Beta  occ. eigenvalues --  -10.13335 -10.13335 -10.09134 -10.09133 -10.07815
  Beta  occ. eigenvalues --  -10.07812 -10.07757 -10.07757  -0.95392  -0.95389
  Beta  occ. eigenvalues --   -0.86584  -0.86584  -0.78370  -0.76537  -0.73712
  Beta  occ. eigenvalues --   -0.66390  -0.65691  -0.62082  -0.61425  -0.59951
  Beta  occ. eigenvalues --   -0.56310  -0.51263  -0.49863  -0.46031  -0.44641
  Beta  occ. eigenvalues --   -0.43395  -0.40336  -0.39762  -0.38729  -0.35067
  Beta  occ. eigenvalues --   -0.34988  -0.34875  -0.34092  -0.32681  -0.28405
  Beta  occ. eigenvalues --   -0.28398  -0.25029  -0.23694  -0.23685  -0.23440
  Beta  occ. eigenvalues --   -0.22967  -0.22827  -0.22533  -0.22328  -0.19814
  Beta  occ. eigenvalues --   -0.19348  -0.19180  -0.16225  -0.13674  -0.10584
  Beta  occ. eigenvalues --   -0.10437
  Beta virt. eigenvalues --    0.02314   0.03400   0.03787   0.06885   0.08254
  Beta virt. eigenvalues --    0.08335   0.08929   0.09582   0.10409   0.11810
  Beta virt. eigenvalues --    0.12228   0.12885   0.13769   0.14360   0.14378

 Mulliken charges and spin densities:
               1          2
     1  C   -0.771520   0.015441
     2  C   -0.771520   0.015439
     3  C    0.944128  -0.022301
     4  C   -0.771518   0.015439
     5  C   -0.771518   0.015441
     6  C    0.944128  -0.022303
     7  C   -0.277753  -0.055443
     8  N   -0.023541   0.143792
     9  N   -0.050620   0.154720
    10  C   -0.063051  -0.048916
    11  N   -0.050620   0.154720
    12  N   -0.023541   0.143792
    13  C   -0.277753  -0.055444
    14  N   -0.023540   0.143793
    15  N   -0.050619   0.154719
    16  C   -0.063051  -0.048915
    17  N   -0.050620   0.154719
    18  N   -0.023541   0.143793
    19  H    0.208137  -0.001411
    20  H    0.208137  -0.001411
    21  H    0.208137  -0.001411
    22  H    0.208137  -0.001411
    23  H    0.171762   0.001581
    24  H    0.171762   0.001581
 Sum of Mulliken charges =  -1.00000   1.00000

 Dipole moment (field-independent basis, Debye):
    X=             -0.0000    Y=             -0.0000    Z=             -0.0001  Tot=              0.0001
 Quadrupole moment (field-independent basis, Debye-Ang):
   XX=           -188.0694   YY=           -127.9452   ZZ=           -106.1542
   XY=              0.0000   XZ=              0.0000   YZ=             -0.0002

 Summary of Natural Population Analysis:

                                       Natural Population
                Natural  -----------------------------------------------
    Atom  No    Charge         Core      Valence    Rydberg      Total
 -----------------------------------------------------------------------
      C    1   -0.08809      0.99954     2.07962    0.00893     3.08809
      C    2   -0.08646      0.99954     2.07839    0.00853     3.08646
      C    3   -0.05221      0.99951     2.04168    0.01102     3.05221
      C    4   -0.07970      0.99945     2.07144    0.00881     3.07970
      C    5   -0.08975      0.99956     2.08120    0.00900     3.08975
      C    6   -0.04936      0.99949     2.03914    0.01072     3.04936
      C    7    0.16568      0.99946     1.81737    0.01749     2.83432
      N    8   -0.08489      0.99970     2.56908    0.01611     3.58489
      N    9   -0.07847      0.99974     2.56182    0.01691     3.57847
      C   10    0.07121      0.99970     1.90962    0.01947     2.92879
      N   11   -0.07837      0.99974     2.56181    0.01682     3.57837
      N   12   -0.08465      0.99970     2.56917    0.01578     3.58465
      C   13    0.16606      0.99946     1.81713    0.01735     2.83394
      N   14   -0.08502      0.99970     2.56942    0.01590     3.58502
      N   15   -0.07843      0.99974     2.56182    0.01687     3.57843
      C   16    0.07122      0.99970     1.90961    0.01948     2.92878
      N   17   -0.07841      0.99974     2.56182    0.01684     3.57841
      N   18   -0.08472      0.99970     2.56928    0.01574     3.58472
      H   19    0.11522      0.00000     0.38403    0.00074     0.38478
      H   20    0.11308      0.00000     0.38543    0.00149     0.38692
      H   21    0.11269      0.00000     0.38582    0.00149     0.38731
      H   22    0.11311      0.00000     0.38546    0.00142     0.38689
      H   23    0.08513      0.00000     0.41360    0.00126     0.41487
      H   24    0.08513      0.00000     0.41360    0.00126     0.41487
 =======================================================================
   * Total *    0.00002     17.99318    42.73737    0.26943    60.99998

 Normal termination of Gaussian 16 at Fri Dec 11 18:53:51 2020.
