 Gaussian 16, Revision A.03,

 -----------------------------------------------------------
 # opt freq B3LYP/6-31G(d) empiricaldispersion=gd3bj scf=xqc
 -----------------------------------------------------------

 ------------------------------
 CID_66601377_JID_4835_neutraal
 ------------------------------
 Symbolic Z-matrix:
 Charge =  0 Multiplicity = 1

 SCF Done:  E(RB3LYP) =  -590.054450213     A.U. after   15 cycles
 SCF Done:  E(RB3LYP) =  -590.063057008     A.U. after   12 cycles
 SCF Done:  E(RB3LYP) =  -590.063885323     A.U. after   11 cycles
 SCF Done:  E(RB3LYP) =  -590.064049569     A.U. after   11 cycles
 SCF Done:  E(RB3LYP) =  -590.064210935     A.U. after   12 cycles
 SCF Done:  E(RB3LYP) =  -590.064408318     A.U. after   13 cycles
 SCF Done:  E(RB3LYP) =  -590.064429711     A.U. after   11 cycles
 SCF Done:  E(RB3LYP) =  -590.064486133     A.U. after   10 cycles
 SCF Done:  E(RB3LYP) =  -590.062772016     A.U. after   15 cycles
 SCF Done:  E(RB3LYP) =  -590.065610152     A.U. after   13 cycles
 SCF Done:  E(RB3LYP) =  -590.068556085     A.U. after   12 cycles
 SCF Done:  E(RB3LYP) =  -590.068621248     A.U. after   12 cycles
 SCF Done:  E(RB3LYP) =  -590.068750314     A.U. after   11 cycles
 SCF Done:  E(RB3LYP) =  -590.068813241     A.U. after   11 cycles
 SCF Done:  E(RB3LYP) =  -590.068819174     A.U. after   10 cycles
 SCF Done:  E(RB3LYP) =  -590.068819885     A.U. after    7 cycles
 Optimization completed.
    -- Stationary point found.
 Normal termination of Gaussian 16 at Thu Dec 10 10:43:20 2020.

 --------------------------------------------------------------------
 #N Geom=AllCheck Guess=TCheck SCRF=Check GenChk RB3LYP/6-31G(d) Freq
 --------------------------------------------------------------------

 Structure from the checkpoint file:  "JID_4835.chk"
 ------------------------------
 CID_66601377_JID_4835_neutraal
 ------------------------------
 Charge =  0 Multiplicity = 1

 SCF Done:  E(RB3LYP) =  -590.068819885     A.U. after    2 cycles

  Exact polarizability: 204.326  -6.346 130.520  -0.005  -0.004  64.453
 Approx polarizability: 311.323 -18.783 236.430  -0.010  -0.011 100.931

                      1                      2                      3
                      A                      A                      A
 Frequencies --     43.5042                86.1223               159.1299
 Red. masses --      3.3560                 4.2811                 4.3682
 Frc consts  --      0.0037                 0.0187                 0.0652
 IR Inten    --      2.3156                 0.3826                 1.9433

                      4                      5                      6
                      A                      A                      A
 Frequencies --    174.4144               211.9511               238.0678
 Red. masses --      4.2201                 1.5700                 2.0896
 Frc consts  --      0.0756                 0.0416                 0.0698
 IR Inten    --      3.5766                22.5691                16.0648

                      7                      8                      9
                      A                      A                      A
 Frequencies --    282.7407               344.9640               360.3505
 Red. masses --      4.3172                 4.1258                 2.5118
 Frc consts  --      0.2033                 0.2893                 0.1922
 IR Inten    --      0.2481                 6.1819                 1.3300

                     10                     11                     12
                      A                      A                      A
 Frequencies --    400.3029               441.6039               468.7721
 Red. masses --      2.9627                 3.2944                 3.7345
 Frc consts  --      0.2797                 0.3785                 0.4835
 IR Inten    --      5.9178                 0.0233                 6.7076

                     13                     14                     15
                      A                      A                      A
 Frequencies --    494.0717               500.2395               529.7813
 Red. masses --      3.1267                 4.1314                 8.4597
 Frc consts  --      0.4497                 0.6091                 1.3989
 IR Inten    --      1.9404                 4.9114                 1.3621

                     16                     17                     18
                      A                      A                      A
 Frequencies --    588.2145               643.9052               661.5158
 Red. masses --      4.6735                 5.8757                 8.2525
 Frc consts  --      0.9527                 1.4353                 2.1277
 IR Inten    --     12.4804                 3.2338                 9.2558

                     19                     20                     21
                      A                      A                      A
 Frequencies --    710.3751               795.5734               808.8825
 Red. masses --      2.7375                 1.2842                 3.0565
 Frc consts  --      0.8139                 0.4789                 1.1783
 IR Inten    --      0.9796                 3.9878                 4.7394

                     22                     23                     24
                      A                      A                      A
 Frequencies --    811.3382               822.9487               836.6306
 Red. masses --      3.4763                 1.7106                 3.3919
 Frc consts  --      1.3482                 0.6826                 1.3988
 IR Inten    --      1.2411                 0.3321                13.8154

                     25                     26                     27
                      A                      A                      A
 Frequencies --    864.2907               882.9571               921.8989
 Red. masses --      1.9854                 2.5287                 3.6802
 Frc consts  --      0.8738                 1.1615                 1.8428
 IR Inten    --     39.1237                 5.7175                49.5041

                     28                     29                     30
                      A                      A                      A
 Frequencies --    941.3573               956.4587               958.2185
 Red. masses --      1.7150                 1.2917                 1.2933
 Frc consts  --      0.8954                 0.6962                 0.6996
 IR Inten    --    167.1627                 1.0426                 0.2403

                     31                     32                     33
                      A                      A                      A
 Frequencies --    972.9588               979.9442               995.1956
 Red. masses --      3.6626                 1.4168                 1.3050
 Frc consts  --      2.0428                 0.8016                 0.7615
 IR Inten    --     32.5406                 0.2240                 0.9520

                     34                     35                     36
                      A                      A                      A
 Frequencies --   1050.4843              1071.5949              1076.3487
 Red. masses --      1.2589                 2.3720                 2.0595
 Frc consts  --      0.8185                 1.6048                 1.4057
 IR Inten    --     47.1009                 0.1727                 7.9919

                     37                     38                     39
                      A                      A                      A
 Frequencies --   1084.4060              1141.9416              1185.4030
 Red. masses --      1.3625                 2.5848                 1.3125
 Frc consts  --      0.9440                 1.9859                 1.0866
 IR Inten    --      2.0765                80.5779                 9.1976

                     40                     41                     42
                      A                      A                      A
 Frequencies --   1207.9712              1209.6221              1256.7283
 Red. masses --      1.2898                 2.1591                 1.7760
 Frc consts  --      1.1089                 1.8614                 1.6526
 IR Inten    --      0.0761                 0.5113                 7.3921

                     43                     44                     45
                      A                      A                      A
 Frequencies --   1293.7266              1305.1884              1327.0934
 Red. masses --      2.0856                 1.3200                 2.8199
 Frc consts  --      2.0567                 1.3248                 2.9261
 IR Inten    --      3.7006                 0.0541                 5.9047

                     46                     47                     48
                      A                      A                      A
 Frequencies --   1333.7714              1369.4675              1389.6181
 Red. masses --      2.5565                 4.4371                 2.5206
 Frc consts  --      2.6796                 4.9029                 2.8678
 IR Inten    --      2.3642                15.5232                 0.5997

                     49                     50                     51
                      A                      A                      A
 Frequencies --   1427.0019              1461.4132              1484.0881
 Red. masses --      5.9876                 3.2627                 1.0889
 Frc consts  --      7.1837                 4.1055                 1.4131
 IR Inten    --     11.5734                18.9130                 2.8294

                     52                     53                     54
                      A                      A                      A
 Frequencies --   1490.0435              1523.6882              1547.8723
 Red. masses --      2.2261                 1.3609                 3.0367
 Frc consts  --      2.9120                 1.8615                 4.2866
 IR Inten    --      4.2564                 6.0766                36.8552

                     55                     56                     57
                      A                      A                      A
 Frequencies --   1596.1309              1654.0599              1671.9560
 Red. masses --      8.7968                 5.6589                 6.8968
 Frc consts  --     13.2042                 9.1219                11.3592
 IR Inten    --     17.3930                67.4022                19.5706

                     58                     59                     60
                      A                      A                      A
 Frequencies --   1711.6942              3157.9293              3159.5599
 Red. masses --      1.0951                 1.0506                 1.0588
 Frc consts  --      1.8905                 6.1730                 6.2275
 IR Inten    --     22.3347                14.4537                 6.3148

                     61                     62                     63
                      A                      A                      A
 Frequencies --   3177.3623              3182.3221              3189.2307
 Red. masses --      1.0900                 1.0873                 1.0891
 Frc consts  --      6.4838                 6.4878                 6.5265
 IR Inten    --     18.0665                 6.4690                 6.8207

                     64                     65                     66
                      A                      A                      A
 Frequencies --   3200.6690              3217.7327              3240.3567
 Red. masses --      1.0965                 1.0936                 1.1194
 Frc consts  --      6.6185                 6.6714                 6.9251
 IR Inten    --     40.8824                12.2816                 0.0701

                     67                     68                     69
                      A                      A                      A
 Frequencies --   3252.4079              3457.0333              3527.5567
 Red. masses --      1.1163                 1.0504                 1.0900
 Frc consts  --      6.9573                 7.3960                 7.9912
 IR Inten    --     11.3515                 0.2162                 0.4485

 - Thermochemistry -
 -------------------
 Temperature   298.150 Kelvin.  Pressure   1.00000 Atm.
 Atom     1 has atomic number  6 and mass  12.00000

 Molecular mass:   185.09530 amu.
 Principal axes and moments of inertia in atomic units:
                           1         2         3
     Eigenvalues --   946.984884252.505945047.78875
           X            0.99999   0.00489  -0.00000
           Y           -0.00489   0.99999   0.00000
           Z            0.00000  -0.00000   1.00000
 This molecule is an asymmetric top.
 Rotational symmetry number  1.
 Warning -- assumption of classical behavior for rotation
           may cause significant error
 Rotational temperatures (Kelvin)      0.09146     0.02037     0.01716
 Rotational constants (GHZ):           1.90578     0.42439     0.35753
 Zero-point vibrational energy     535461.4 (Joules/Mol)
                                  127.97835 (Kcal/Mol)
 Warning -- explicit consideration of  16 degrees of freedom as
           vibrations may cause significant error
 Vibrational temperatures:     62.59   123.91   228.95   250.94   304.95
          (Kelvin)            342.53   406.80   496.33   518.46   575.95
                              635.37   674.46   710.86   719.73   762.24
                              846.31   926.44   951.77  1022.07  1144.65
                             1163.80  1167.33  1184.04  1203.72  1243.52
                             1270.38  1326.41  1354.40  1376.13  1378.66
                             1399.87  1409.92  1431.86  1511.41  1541.79
                             1548.63  1560.22  1643.00  1705.53  1738.00
                             1740.38  1808.15  1861.38  1877.88  1909.39
                             1919.00  1970.36  1999.35  2053.14  2102.65
                             2135.27  2143.84  2192.25  2227.04  2296.48
                             2379.82  2405.57  2462.75  4543.56  4545.90
                             4571.52  4578.65  4588.59  4605.05  4629.60
                             4662.15  4679.49  4973.90  5075.37

 Zero-point correction=                           0.203946 (Hartree/Particle)
 Thermal correction to Energy=                    0.214937
 Thermal correction to Enthalpy=                  0.215881
 Thermal correction to Gibbs Free Energy=         0.166881
 Sum of electronic and zero-point Energies=           -589.864873
 Sum of electronic and thermal Energies=              -589.853883
 Sum of electronic and thermal Enthalpies=            -589.852939
 Sum of electronic and thermal Free Energies=         -589.901939

                     E (Thermal)             CV                S
                      KCal/Mol        Cal/Mol-Kelvin    Cal/Mol-Kelvin
 Total                  134.875             44.549            103.129
 Electronic               0.000              0.000              0.000
 Translational            0.889              2.981             41.553
 Rotational               0.889              2.981             31.386
 Vibrational            133.097             38.588             30.189
 Vibration     1          0.595              1.980              5.093
 Vibration     2          0.601              1.959              3.746
 Vibration     3          0.621              1.892              2.560
 Vibration     4          0.627              1.874              2.387
 Vibration     5          0.643              1.823              2.027
 Vibration     6          0.656              1.782              1.817
 Vibration     7          0.682              1.706              1.517
 Vibration     8          0.723              1.586              1.189
 Vibration     9          0.735              1.554              1.121
 Vibration    10          0.766              1.469              0.962
 Vibration    11          0.801              1.379              0.822
 Vibration    12          0.826              1.319              0.741
 Vibration    13          0.850              1.263              0.673
 Vibration    14          0.856              1.249              0.658
 Vibration    15          0.885              1.184              0.588
 Vibration    16          0.945              1.057              0.470

 Optimization completed.
    -- Stationary point found.
 Normal termination of Gaussian 16 at Thu Dec 10 10:50:25 2020.

 ----------------------------------------------------------------------
 # B3LYP/6-311++G(d,p) empiricaldispersion=gd3bj scf=xqc pop=npa geom=c
 heck
 ----------------------------------------------------------------------

 --------------------------------------
 CID_66601377_JID_4835_Energie_neutraal
 --------------------------------------
 Structure from the checkpoint file:  "JID_4835.chk"
 Charge =  0 Multiplicity = 1

 SCF Done:  E(RB3LYP) =  -590.224256601     A.U. after   15 cycles
 Normal termination of Gaussian 16 at Thu Dec 10 10:53:19 2020.

 ----------------------------------------------------------------------
 # B3LYP/6-311++G(d,p) empiricaldispersion=gd3bj scf=xqc pop=npa geom=c
 heck
 ----------------------------------------------------------------------

 ------------------------------------
 CID_66601377_JID_4835_Energie_kation
 ------------------------------------
 Structure from the checkpoint file:  "JID_4835.chk"
 Charge =  1 Multiplicity = 2

 SCF Done:  E(UB3LYP) =  -589.912459581     A.U. after   31 cycles
 Normal termination of Gaussian 16 at Thu Dec 10 11:01:11 2020.
 Gaussian 16:  ES64L-G16RevA.03 25-Dec-2016

 ----------------------------------------------------------------------
 # B3LYP/6-311++G(d,p) empiricaldispersion=gd3bj scf=xqc pop=npa geom=c
 heck
 ----------------------------------------------------------------------

 -----------------------------------
 CID_66601377_JID_4835_Energie_anion
 -----------------------------------
 Structure from the checkpoint file:  "JID_4835.chk"
 Charge = -1 Multiplicity = 2

                         Standard orientation:
 ---------------------------------------------------------------------
 Center     Atomic      Atomic             Coordinates (Angstroms)
 Number     Number       Type             X           Y           Z
 ---------------------------------------------------------------------
      1          6           0       -3.527911    0.471748    0.749453
      2          6           0       -3.527824    0.471916   -0.749186
      3          6           0       -2.497293   -0.357612   -0.000021
      4          6           0       -1.069064    0.099766    0.000044
      5          7           0       -0.151957   -0.851559    0.000119
      6          6           0        1.161804   -0.490530    0.000100
      7          6           0        1.601238    0.861802   -0.000080
      8          6           0        0.595177    1.863971   -0.000036
      9          6           0       -0.721675    1.489012    0.000070
     10          6           0        2.994610    1.103530   -0.000187
     11          6           0        3.857131    0.029911   -0.000109
     12          7           0        3.452372   -1.268938    0.000121
     13          6           0        2.155949   -1.506404    0.000226
     14          7           0       -2.746724   -1.777975   -0.000405
     15          1           0       -4.300716   -0.098204    1.254135
     16          1           0       -3.188815    1.358098    1.277550
     17          1           0       -4.300504   -0.098487   -1.253625
     18          1           0       -3.189542    1.358341   -1.277696
     19          1           0        0.879262    2.913259   -0.000018
     20          1           0       -1.500802    2.243633    0.000269
     21          1           0        3.373624    2.122051   -0.000343
     22          1           0        4.933433    0.184751   -0.000175
     23          1           0        1.826744   -2.544270    0.000306
     24          1           0       -2.270564   -2.186074   -0.805294
     25          1           0       -2.270793   -2.186454    0.804405
 ---------------------------------------------------------------------

 SCF Done:  E(UB3LYP) =  -590.240821119     A.U. after   22 cycles

 The electronic state is 2-A.
 Alpha  occ. eigenvalues --  -14.17578 -14.14150 -14.13548 -10.08935 -10.05936
 Alpha  occ. eigenvalues --  -10.05908 -10.05824 -10.04902 -10.04671 -10.03514
 Alpha  occ. eigenvalues --  -10.02911 -10.01918 -10.01713 -10.01526  -0.80718
 Alpha  occ. eigenvalues --   -0.78524  -0.76225  -0.70447  -0.66186  -0.62223
 Alpha  occ. eigenvalues --   -0.59868  -0.51754  -0.49461  -0.49108  -0.46036
 Alpha  occ. eigenvalues --   -0.44411  -0.39532  -0.37522  -0.37002  -0.35646
 Alpha  occ. eigenvalues --   -0.34544  -0.32649  -0.30066  -0.28838  -0.28182
 Alpha  occ. eigenvalues --   -0.27210  -0.26211  -0.25780  -0.23336  -0.22238
 Alpha  occ. eigenvalues --   -0.21858  -0.20079  -0.17762  -0.16099  -0.13483
 Alpha  occ. eigenvalues --   -0.11438  -0.11266  -0.09534  -0.09158   0.04434
 Alpha virt. eigenvalues --    0.08332   0.09535   0.10255   0.10274   0.10962
 Alpha virt. eigenvalues --    0.11725   0.11833   0.13084   0.13340   0.13469
 Alpha virt. eigenvalues --    0.13741   0.14777   0.14894   0.16417   0.17131

  Beta  occ. eigenvalues --  -14.17579 -14.13934 -14.13092 -10.08944 -10.05917
  Beta  occ. eigenvalues --  -10.05888 -10.05762 -10.04957 -10.04694 -10.03593
  Beta  occ. eigenvalues --  -10.02615 -10.01761 -10.01466 -10.01134  -0.80464
  Beta  occ. eigenvalues --   -0.78185  -0.75717  -0.70413  -0.65654  -0.61771
  Beta  occ. eigenvalues --   -0.59436  -0.51311  -0.49413  -0.48700  -0.45720
  Beta  occ. eigenvalues --   -0.44208  -0.39357  -0.37291  -0.36791  -0.35635
  Beta  occ. eigenvalues --   -0.34370  -0.32518  -0.29886  -0.28723  -0.27974
  Beta  occ. eigenvalues --   -0.26467  -0.26014  -0.25392  -0.23074  -0.21727
  Beta  occ. eigenvalues --   -0.21189  -0.20021  -0.17127  -0.14436  -0.13455
  Beta  occ. eigenvalues --   -0.11016  -0.09998  -0.09184  -0.07471
  Beta virt. eigenvalues --    0.08288   0.09520   0.09965   0.10226   0.10925
  Beta virt. eigenvalues --    0.10936   0.11712   0.12059   0.13109   0.13325
  Beta virt. eigenvalues --    0.13722   0.13777   0.14870   0.15481   0.16397

 Mulliken charges and spin densities:
               1          2
     1  C   -0.165493  -0.006540
     2  C   -0.165296  -0.006503
     3  C   -0.370093  -0.011561
     4  C    0.410819   0.063602
     5  N    0.010953   0.210877
     6  C   -1.304634  -0.052517
     7  C    1.419901  -0.031812
     8  C   -0.400390   0.281395
     9  C   -0.709949   0.090020
    10  C    0.154307   0.224661
    11  C   -0.405610  -0.032376
    12  N   -0.136594   0.097182
    13  C   -0.547976   0.202079
    14  N   -0.304743  -0.002988
    15  H    0.126533   0.018268
    16  H    0.127005   0.003870
    17  H    0.126521   0.018244
    18  H    0.127064   0.003863
    19  H    0.092996  -0.025254
    20  H    0.104029  -0.011958
    21  H    0.088577  -0.013014
    22  H    0.109823   0.000250
    23  H    0.127466  -0.017133
    24  H    0.242387  -0.001329
    25  H    0.242396  -0.001327
 Sum of Mulliken charges =  -1.00000   1.00000

 Dipole moment (field-independent basis, Debye):
    X=             -4.3437    Y=              2.5594    Z=             -0.0002  Tot=              5.0416
 Quadrupole moment (field-independent basis, Debye-Ang):
   XX=           -130.2891   YY=            -96.4758   ZZ=            -90.2440
   XY=              5.9561   XZ=             -0.0024   YZ=             -0.0001

 Summary of Natural Population Analysis:

                                       Natural Population
                Natural  -----------------------------------------------
    Atom  No    Charge         Core      Valence    Rydberg      Total
 -----------------------------------------------------------------------
      C    1   -0.19456      0.99961     2.18860    0.00634     3.19456
      C    2   -0.19456      0.99961     2.18861    0.00634     3.19456
      C    3    0.03995      0.99952     1.94608    0.01445     2.96005
      C    4    0.11178      0.99952     1.87552    0.01318     2.88822
      N    5   -0.19474      0.99965     2.68209    0.01300     3.69474
      C    6    0.05565      0.99947     1.93115    0.01373     2.94435
      C    7   -0.05141      0.99949     2.04307    0.00885     3.05141
      C    8   -0.01244      0.99954     2.00400    0.00889     3.01244
      C    9   -0.10018      0.99953     2.09283    0.00782     3.10018
      C   10   -0.07890      0.99953     2.07088    0.00850     3.07890
      C   11   -0.00338      0.99958     1.98830    0.01550     3.00338
      N   12   -0.22201      0.99971     2.70874    0.01355     3.72201
      C   13    0.08706      0.99958     1.89779    0.01557     2.91294
      N   14   -0.42125      0.99976     2.91300    0.00850     3.92125
      H   15    0.10115      0.00000     0.39767    0.00118     0.39885
      H   16    0.10220      0.00000     0.39671    0.00109     0.39780
      H   17    0.10115      0.00000     0.39767    0.00118     0.39885
      H   18    0.10220      0.00000     0.39671    0.00109     0.39780
      H   19    0.08332      0.00000     0.41482    0.00185     0.41668
      H   20    0.08842      0.00000     0.41024    0.00134     0.41158
      H   21    0.08746      0.00000     0.41059    0.00194     0.41254
      H   22    0.07737      0.00000     0.42124    0.00139     0.42263
      H   23    0.07828      0.00000     0.42009    0.00163     0.42172
      H   24    0.17872      0.00000     0.31972    0.00156     0.32128
      H   25    0.17872      0.00000     0.31972    0.00156     0.32128
 =======================================================================
   * Total *   -0.00000     13.99408    34.83588    0.17004    49.00000

 Normal termination of Gaussian 16 at Thu Dec 10 11:06:28 2020.
