 Gaussian 16, Revision A.03,

 -----------------------------------------------------------
 # opt freq B3LYP/6-31G(d) empiricaldispersion=gd3bj scf=xqc
 -----------------------------------------------------------

 ------------------------------
 CID_65928084_JID_8701_neutraal
 ------------------------------
 Symbolic Z-matrix:
 Charge =  0 Multiplicity = 1

 SCF Done:  E(RB3LYP) =  -1185.44975749     A.U. after   15 cycles
 SCF Done:  E(RB3LYP) =  -1185.45660365     A.U. after   12 cycles
 SCF Done:  E(RB3LYP) =  -1185.45759446     A.U. after   12 cycles
 SCF Done:  E(RB3LYP) =  -1185.45838678     A.U. after   12 cycles
 SCF Done:  E(RB3LYP) =  -1185.45917825     A.U. after   12 cycles
 SCF Done:  E(RB3LYP) =  -1185.45939296     A.U. after   13 cycles
 SCF Done:  E(RB3LYP) =  -1185.45962457     A.U. after   12 cycles
 SCF Done:  E(RB3LYP) =  -1185.45981511     A.U. after   11 cycles
 SCF Done:  E(RB3LYP) =  -1185.45987399     A.U. after   11 cycles
 SCF Done:  E(RB3LYP) =  -1185.46002175     A.U. after   11 cycles
 SCF Done:  E(RB3LYP) =  -1185.46017555     A.U. after    9 cycles
 SCF Done:  E(RB3LYP) =  -1185.46017577     A.U. after    8 cycles
 SCF Done:  E(RB3LYP) =  -1185.46017576     A.U. after    8 cycles
 SCF Done:  E(RB3LYP) =  -1185.46017584     A.U. after    8 cycles
 SCF Done:  E(RB3LYP) =  -1185.46017583     A.U. after    6 cycles
 Optimization completed.
    -- Stationary point found.
 Normal termination of Gaussian 16 at Fri Dec 11 22:15:28 2020.

 --------------------------------------------------------------------
 #N Geom=AllCheck Guess=TCheck SCRF=Check GenChk RB3LYP/6-31G(d) Freq
 --------------------------------------------------------------------

 Structure from the checkpoint file:  "JID_8701.chk"
 ------------------------------
 CID_65928084_JID_8701_neutraal
 ------------------------------
 Charge =  0 Multiplicity = 1

 SCF Done:  E(RB3LYP) =  -1185.46017583     A.U. after    1 cycles

  Exact polarizability: 225.077  -7.762 150.518   7.322  10.803 135.783
 Approx polarizability: 272.684 -17.756 241.490  12.906  36.923 224.432

                      1                      2                      3
                      A                      A                      A
 Frequencies --     17.0405                28.3566                42.5604
 Red. masses --      5.1197                 3.7853                 4.2025
 Frc consts  --      0.0009                 0.0018                 0.0045
 IR Inten    --      0.4187                 0.3293                 0.0873

                      4                      5                      6
                      A                      A                      A
 Frequencies --     48.3610                64.9853                94.3156
 Red. masses --      3.4048                 4.1836                 4.0319
 Frc consts  --      0.0047                 0.0104                 0.0211
 IR Inten    --      2.8013                 1.2950                 2.2324

                      7                      8                      9
                      A                      A                      A
 Frequencies --    101.5419               116.2315               141.9761
 Red. masses --      4.9978                 3.8302                 6.4679
 Frc consts  --      0.0304                 0.0305                 0.0768
 IR Inten    --      1.8832                 1.1176                 3.1333

                     10                     11                     12
                      A                      A                      A
 Frequencies --    157.8596               172.6070               190.2119
 Red. masses --      2.2160                 1.1873                 3.3814
 Frc consts  --      0.0325                 0.0208                 0.0721
 IR Inten    --      0.1610                 0.2813                 4.1129

                     13                     14                     15
                      A                      A                      A
 Frequencies --    217.4722               254.3286               261.5030
 Red. masses --      4.7771                 3.9325                 3.2702
 Frc consts  --      0.1331                 0.1499                 0.1318
 IR Inten    --      9.2651                 4.1998                 4.1908

                     16                     17                     18
                      A                      A                      A
 Frequencies --    277.2674               303.7162               310.6012
 Red. masses --      1.5467                 2.2157                 1.9181
 Frc consts  --      0.0701                 0.1204                 0.1090
 IR Inten    --      0.5632                 3.3224                 2.1630

                     19                     20                     21
                      A                      A                      A
 Frequencies --    343.2398               353.8501               364.2470
 Red. masses --      1.1760                 5.9131                 2.2171
 Frc consts  --      0.0816                 0.4362                 0.1733
 IR Inten    --     88.6736                 2.4752                 3.7310

                     22                     23                     24
                      A                      A                      A
 Frequencies --    386.6447               423.3851               459.4103
 Red. masses --      3.3219                 3.5147                 3.6695
 Frc consts  --      0.2926                 0.3712                 0.4563
 IR Inten    --      8.5077                 1.8210                 7.0676

                     25                     26                     27
                      A                      A                      A
 Frequencies --    464.4052               518.9648               598.0889
 Red. masses --      3.2542                 2.1324                 5.8502
 Frc consts  --      0.4135                 0.3384                 1.2330
 IR Inten    --      4.6142                 0.6913                 4.0797

                     28                     29                     30
                      A                      A                      A
 Frequencies --    619.3463               634.1296               681.4942
 Red. masses --      4.9098                 7.0987                 3.8027
 Frc consts  --      1.1096                 1.6818                 1.0405
 IR Inten    --      1.6334                 8.2747                 8.1259

                     31                     32                     33
                      A                      A                      A
 Frequencies --    702.4731               730.4923               737.9574
 Red. masses --      4.7010                 5.4910                 5.4652
 Frc consts  --      1.3668                 1.7264                 1.7536
 IR Inten    --      5.0396                 9.6232                 1.6582

                     34                     35                     36
                      A                      A                      A
 Frequencies --    755.8653               781.9958               807.4060
 Red. masses --      5.5903                 1.3622                 1.3274
 Frc consts  --      1.8818                 0.4908                 0.5099
 IR Inten    --     17.8946                 7.5123                27.9752

                     37                     38                     39
                      A                      A                      A
 Frequencies --    843.8053               855.8782               865.9034
 Red. masses --      3.2535                 1.8833                 1.4564
 Frc consts  --      1.3648                 0.8128                 0.6434
 IR Inten    --     52.5625                 1.8351                 0.9043

                     40                     41                     42
                      A                      A                      A
 Frequencies --    871.6629               894.6998               930.3460
 Red. masses --      1.5225                 1.9598                 2.4107
 Frc consts  --      0.6815                 0.9243                 1.2293
 IR Inten    --      0.3071                 6.3960                 1.5461

                     43                     44                     45
                      A                      A                      A
 Frequencies --    957.5179               965.2639               994.2694
 Red. masses --      1.3782                 3.2745                 1.8913
 Frc consts  --      0.7445                 1.7976                 1.1016
 IR Inten    --      0.0663                 8.6689                 6.4473

                     46                     47                     48
                      A                      A                      A
 Frequencies --    997.9201              1001.9750              1015.4757
 Red. masses --      1.6270                 2.1354                 1.9579
 Frc consts  --      0.9546                 1.2631                 1.1895
 IR Inten    --      7.5447                 7.3631                 6.2117

                     49                     50                     51
                      A                      A                      A
 Frequencies --   1028.9658              1058.1352              1073.9364
 Red. masses --      2.9658                 1.3037                 1.6919
 Frc consts  --      1.8501                 0.8600                 1.1497
 IR Inten    --     26.3688                32.6684                 4.7516

                     52                     53                     54
                      A                      A                      A
 Frequencies --   1093.9504              1130.0214              1132.8157
 Red. masses --      2.3706                 1.2766                 1.4847
 Frc consts  --      1.6715                 0.9604                 1.1226
 IR Inten    --     25.4996                18.3119                51.7957

                     55                     56                     57
                      A                      A                      A
 Frequencies --   1162.9038              1170.0759              1178.4616
 Red. masses --      2.4324                 1.3328                 1.3923
 Frc consts  --      1.9381                 1.0751                 1.1392
 IR Inten    --     19.1840                16.0904                14.1230

                     58                     59                     60
                      A                      A                      A
 Frequencies --   1186.2260              1202.3907              1240.8802
 Red. masses --      3.2253                 2.8791                 1.7097
 Frc consts  --      2.6740                 2.4524                 1.5510
 IR Inten    --     33.3426                33.0905                22.3577

                     61                     62                     63
                      A                      A                      A
 Frequencies --   1275.7565              1277.3352              1284.5537
 Red. masses --      3.3947                 1.4065                 1.3592
 Frc consts  --      3.2553                 1.3521                 1.3214
 IR Inten    --     11.8338                 2.3241                15.5955

                     64                     65                     66
                      A                      A                      A
 Frequencies --   1297.6852              1303.8959              1321.1200
 Red. masses --      1.4491                 2.5020                 1.4408
 Frc consts  --      1.4378                 2.5062                 1.4816
 IR Inten    --      1.1940                30.1514                 7.1088

                     67                     68                     69
                      A                      A                      A
 Frequencies --   1341.7438              1389.4127              1399.7401
 Red. masses --      1.3217                 1.1576                 1.4690
 Frc consts  --      1.4019                 1.3167                 1.6958
 IR Inten    --     12.8553                 2.2807                10.1169

                     70                     71                     72
                      A                      A                      A
 Frequencies --   1404.4419              1417.2561              1425.9645
 Red. masses --      1.5640                 3.6680                 1.8172
 Frc consts  --      1.8175                 4.3408                 2.1770
 IR Inten    --      6.4579               182.9183                30.7909

                     73                     74                     75
                      A                      A                      A
 Frequencies --   1446.6425              1454.7771              1476.5748
 Red. masses --      5.9933                 1.2543                 1.1156
 Frc consts  --      7.3899                 1.5640                 1.4330
 IR Inten    --    395.1842                 5.4339                 6.6676

                     76                     77                     78
                      A                      A                      A
 Frequencies --   1498.0325              1510.6196              1515.1805
 Red. masses --      1.0547                 1.0822                 1.0838
 Frc consts  --      1.3946                 1.4551                 1.4660
 IR Inten    --      6.2740                 0.6889                 2.6076

                     79                     80                     81
                      A                      A                      A
 Frequencies --   1517.1479              1532.2765              1535.4777
 Red. masses --      1.0542                 1.0618                 1.0855
 Frc consts  --      1.4297                 1.4688                 1.5079
 IR Inten    --     16.3287                 2.9288                14.6383

                     82                     83                     84
                      A                      A                      A
 Frequencies --   1543.8659              1561.5278              1565.8547
 Red. masses --      1.1199                 2.6280                 1.3908
 Frc consts  --      1.5727                 3.7755                 2.0091
 IR Inten    --      9.1927               133.3031                15.7295

                     85                     86                     87
                      A                      A                      A
 Frequencies --   1632.8442              1742.6607              3035.9080
 Red. masses --      6.1013                12.1733                 1.0640
 Frc consts  --      9.5844                21.7814                 5.7777
 IR Inten    --      5.1808               231.3249                22.6370

                     88                     89                     90
                      A                      A                      A
 Frequencies --   3038.4257              3041.2875              3045.2569
 Red. masses --      1.0622                 1.0664                 1.0697
 Frc consts  --      5.7775                 5.8114                 5.8447
 IR Inten    --     34.1162                25.5267                67.0289

                     91                     92                     93
                      A                      A                      A
 Frequencies --   3049.6879              3056.3662              3069.5908
 Red. masses --      1.0439                 1.0316                 1.0953
 Frc consts  --      5.7203                 5.6779                 6.0808
 IR Inten    --     19.9702                26.7961                59.5090

                     94                     95                     96
                      A                      A                      A
 Frequencies --   3081.4643              3083.9611              3108.2720
 Red. masses --      1.0596                 1.1027                 1.1007
 Frc consts  --      5.9280                 6.1789                 6.2655
 IR Inten    --     13.8682                29.2149                27.2883

                     97                     98                     99
                      A                      A                      A
 Frequencies --   3113.3301              3136.4762              3139.0536
 Red. masses --      1.0998                 1.1058                 1.1066
 Frc consts  --      6.2806                 6.4094                 6.4244
 IR Inten    --     27.4021                12.6635                 1.7530

                    100                    101                    102
                      A                      A                      A
 Frequencies --   3147.0857              3158.2421              3158.7948
 Red. masses --      1.0981                 1.0939                 1.1037
 Frc consts  --      6.4078                 6.4285                 6.4887
 IR Inten    --     18.3693                 1.8699                 4.5745

                    103                    104                    105
                      A                      A                      A
 Frequencies --   3266.5858              3286.3038              3728.9025
 Red. masses --      1.0944                 1.0993                 1.0660
 Frc consts  --      6.8803                 6.9948                 8.7329
 IR Inten    --      6.7335                 1.4633                 7.7204

 - Thermochemistry -
 -------------------
 Temperature   298.150 Kelvin.  Pressure   1.00000 Atm.
 Atom     1 has atomic number  6 and mass  12.00000

 Molecular mass:   269.10857 amu.
 Principal axes and moments of inertia in atomic units:
                           1         2         3
     Eigenvalues --  1995.79281********************
           X            0.99988   0.01515   0.00118
           Y           -0.01509   0.99919  -0.03732
           Z           -0.00174   0.03730   0.99930
 This molecule is an asymmetric top.
 Rotational symmetry number  1.
 Warning -- assumption of classical behavior for rotation
           may cause significant error
 Rotational temperatures (Kelvin)      0.04340     0.00756     0.00726
 Rotational constants (GHZ):           0.90427     0.15743     0.15134
 Zero-point vibrational energy     810082.4 (Joules/Mol)
                                  193.61433 (Kcal/Mol)
 Warning -- explicit consideration of  28 degrees of freedom as
           vibrations may cause significant error
 Vibrational temperatures:     24.52    40.80    61.23    69.58    93.50
          (Kelvin)            135.70   146.10   167.23   204.27   227.12
                              248.34   273.67   312.89   365.92   376.24
                              398.93   436.98   446.89   493.85   509.11
                              524.07   556.30   609.16   660.99   668.18
                              746.67   860.52   891.10   912.37   980.52
                             1010.70  1051.02  1061.76  1087.52  1125.12
                             1161.68  1214.05  1231.42  1245.84  1254.13
                             1287.27  1338.56  1377.65  1388.80  1430.53
                             1435.78  1441.62  1461.04  1480.45  1522.42
                             1545.15  1573.95  1625.85  1629.87  1673.16
                             1683.48  1695.54  1706.71  1729.97  1785.35
                             1835.53  1837.80  1848.19  1867.08  1876.02
                             1900.80  1930.47  1999.05  2013.91  2020.68
                             2039.12  2051.64  2081.40  2093.10  2124.46
                             2155.33  2173.44  2180.01  2182.84  2204.60
                             2209.21  2221.28  2246.69  2252.92  2349.30
                             2507.30  4367.99  4371.62  4375.73  4381.45
                             4387.82  4397.43  4416.46  4433.54  4437.13
                             4472.11  4479.39  4512.69  4516.40  4527.95
                             4544.01  4544.80  4699.89  4728.26  5365.06

 Zero-point correction=                           0.308544 (Hartree/Particle)
 Thermal correction to Energy=                    0.327626
 Thermal correction to Enthalpy=                  0.328570
 Thermal correction to Gibbs Free Energy=         0.258818
 Sum of electronic and zero-point Energies=          -1185.151632
 Sum of electronic and thermal Energies=             -1185.132550
 Sum of electronic and thermal Enthalpies=           -1185.131606
 Sum of electronic and thermal Free Energies=        -1185.201357

                     E (Thermal)             CV                S
                      KCal/Mol        Cal/Mol-Kelvin    Cal/Mol-Kelvin
 Total                  205.588             70.406            146.804
 Electronic               0.000              0.000              0.000
 Translational            0.889              2.981             42.669
 Rotational               0.889              2.981             33.967
 Vibrational            203.811             64.444             70.169
 Vibration     1          0.593              1.986              6.952
 Vibration     2          0.593              1.984              5.941
 Vibration     3          0.595              1.980              5.136
 Vibration     4          0.595              1.978              4.883
 Vibration     5          0.597              1.971              4.300
 Vibration     6          0.603              1.953              3.569
 Vibration     7          0.604              1.948              3.425
 Vibration     8          0.608              1.936              3.162
 Vibration     9          0.615              1.911              2.777
 Vibration    10          0.621              1.894              2.575
 Vibration    11          0.626              1.876              2.407
 Vibration    12          0.634              1.853              2.226
 Vibration    13          0.646              1.814              1.980
 Vibration    14          0.665              1.755              1.700
 Vibration    15          0.669              1.743              1.652
 Vibration    16          0.678              1.716              1.550
 Vibration    17          0.695              1.667              1.396
 Vibration    18          0.699              1.654              1.359
 Vibration    19          0.722              1.589              1.197
 Vibration    20          0.730              1.567              1.149
 Vibration    21          0.738              1.546              1.104
 Vibration    22          0.755              1.499              1.013
 Vibration    23          0.786              1.419              0.881
 Vibration    24          0.817              1.340              0.768
 Vibration    25          0.822              1.329              0.753
 Vibration    26          0.874              1.208              0.612
 Vibration    27          0.956              1.036              0.453
 Vibration    28          0.979              0.991              0.418

                           ! Non-Optimized Parameters !
 Normal termination of Gaussian 16 at Fri Dec 11 22:31:42 2020.

 ----------------------------------------------------------------------
 # B3LYP/6-311++G(d,p) empiricaldispersion=gd3bj scf=xqc pop=npa geom=c
 heck
 ----------------------------------------------------------------------

 --------------------------------------
 CID_65928084_JID_8701_Energie_neutraal
 --------------------------------------
 Structure from the checkpoint file:  "JID_8701.chk"
 Charge =  0 Multiplicity = 1

 SCF Done:  E(RB3LYP) =  -1185.71514502     A.U. after   16 cycles
 Normal termination of Gaussian 16 at Fri Dec 11 22:39:37 2020.

 ----------------------------------------------------------------------
 # B3LYP/6-311++G(d,p) empiricaldispersion=gd3bj scf=xqc pop=npa geom=c
 heck
 ----------------------------------------------------------------------

 ------------------------------------
 CID_65928084_JID_8701_Energie_kation
 ------------------------------------
 Structure from the checkpoint file:  "JID_8701.chk"
 Charge =  1 Multiplicity = 2

 SCF Done:  E(UB3LYP) =  -1185.42126699     A.U. after   30 cycles
 Normal termination of Gaussian 16 at Fri Dec 11 23:00:58 2020.
 Gaussian 16:  ES64L-G16RevA.03 25-Dec-2016

 ----------------------------------------------------------------------
 # B3LYP/6-311++G(d,p) empiricaldispersion=gd3bj scf=xqc pop=npa geom=c
 heck
 ----------------------------------------------------------------------

 -----------------------------------
 CID_65928084_JID_8701_Energie_anion
 -----------------------------------
 Structure from the checkpoint file:  "JID_8701.chk"
 Charge = -1 Multiplicity = 2

                         Standard orientation:
 ---------------------------------------------------------------------
 Center     Atomic      Atomic             Coordinates (Angstroms)
 Number     Number       Type             X           Y           Z
 ---------------------------------------------------------------------
      1          6           0        2.944769    2.568074   -0.176494
      2          6           0        3.407758    1.571951   -1.247419
      3          6           0        4.298053    0.407427   -0.779524
      4          6           0        3.674578   -0.734822    0.023590
      5          6           0        2.978509   -0.360426    1.368852
      6          7           0        1.686301   -0.706028    0.765145
      7          6           0        2.280448   -1.236814   -0.473792
      8          6           0        0.540131    0.013292    0.978169
      9          8           0        0.452556    0.846662    1.875960
     10          6           0       -0.585095   -0.298299    0.075087
     11          6           0       -0.865769   -1.305270   -0.814379
     12          6           0       -2.158395   -1.026497   -1.349231
     13          6           0       -2.581615    0.133795   -0.753248
     14          8           0       -1.635195    0.578366    0.114800
     15          6           0       -3.838398    0.913021   -0.847564
     16         16           0       -5.028769    0.589333    0.531333
     17          6           0       -5.382548   -1.169789    0.205179
     18          8           0        4.685213   -1.719254    0.113162
     19          1           0        2.172931    2.166648    0.484655
     20          1           0        2.524573    3.461377   -0.651987
     21          1           0        3.787596    2.893641    0.445864
     22          1           0        2.535581    1.186852   -1.792115
     23          1           0        3.993708    2.121950   -1.994610
     24          1           0        4.744488   -0.065229   -1.663426
     25          1           0        5.134626    0.800569   -0.187136
     26          1           0        3.251318   -1.027325    2.197710
     27          1           0        3.046392    0.672631    1.712413
     28          1           0        1.883891   -0.795782   -1.392811
     29          1           0        2.224565   -2.330693   -0.548612
     30          1           0       -0.237840   -2.153214   -1.043936
     31          1           0       -2.704696   -1.603017   -2.082588
     32          1           0       -3.630880    1.985361   -0.794517
     33          1           0       -4.332793    0.704122   -1.800852
     34          1           0       -5.868738   -1.304799   -0.766499
     35          1           0       -4.467247   -1.766474    0.247519
     36          1           0       -6.063090   -1.506933    0.990895
     37          1           0        4.366666   -2.426866    0.695969
 ---------------------------------------------------------------------

 SCF Done:  E(UB3LYP) =  -1185.71289594     A.U. after   33 cycles
 SCF Done:  E(UB3LYP) =  -1185.71336774     a.u. after    7 cycles

 The electronic state is 2-A.
 Alpha  occ. eigenvalues --  -88.73345 -19.04716 -19.03102 -18.94434 -14.21064
 Alpha  occ. eigenvalues --  -10.13618 -10.12828 -10.10223 -10.09977 -10.09835
 Alpha  occ. eigenvalues --  -10.09721 -10.09327 -10.08719 -10.07461 -10.07327
 Alpha  occ. eigenvalues --  -10.05788 -10.05268 -10.04553  -7.81961  -5.78366
 Alpha  occ. eigenvalues --   -5.78018  -5.77301  -0.98289  -0.93929  -0.90063
 Alpha  occ. eigenvalues --   -0.83019  -0.70882  -0.69981  -0.67881  -0.65471
 Alpha  occ. eigenvalues --   -0.63821  -0.60563  -0.59017  -0.57838  -0.52361
 Alpha  occ. eigenvalues --   -0.50848  -0.48590  -0.45967  -0.44738  -0.43226
 Alpha  occ. eigenvalues --   -0.41824  -0.40708  -0.37266  -0.36503  -0.35596
 Alpha  occ. eigenvalues --   -0.34526  -0.34104  -0.33585  -0.32883  -0.32508
 Alpha  occ. eigenvalues --   -0.31466  -0.31222  -0.30533  -0.30472  -0.29189
 Alpha  occ. eigenvalues --   -0.28351  -0.27668  -0.26811  -0.26058  -0.24825
 Alpha  occ. eigenvalues --   -0.24513  -0.24470  -0.24336  -0.23622  -0.22395
 Alpha  occ. eigenvalues --   -0.21741  -0.17839  -0.16457  -0.12967  -0.12504
 Alpha  occ. eigenvalues --   -0.12346  -0.10680   0.04540
 Alpha virt. eigenvalues --    0.06202   0.06937   0.07110   0.08362   0.08703
 Alpha virt. eigenvalues --    0.09371   0.09577   0.10158   0.10702   0.11092
 Alpha virt. eigenvalues --    0.11472   0.11598   0.12150   0.12625   0.12963

  Beta  occ. eigenvalues --  -88.73308 -19.04458 -19.03073 -18.94202 -14.21002
  Beta  occ. eigenvalues --  -10.13617 -10.12662 -10.10215 -10.09809 -10.09766
  Beta  occ. eigenvalues --  -10.09719 -10.09318 -10.08574 -10.07449 -10.07316
  Beta  occ. eigenvalues --  -10.05785 -10.05325 -10.04433  -7.81924  -5.78302
  Beta  occ. eigenvalues --   -5.77965  -5.77276  -0.97863  -0.93866  -0.89700
  Beta  occ. eigenvalues --   -0.82835  -0.70683  -0.69938  -0.67654  -0.65220
  Beta  occ. eigenvalues --   -0.63710  -0.60434  -0.58951  -0.57709  -0.52248
  Beta  occ. eigenvalues --   -0.50665  -0.48430  -0.45829  -0.44547  -0.43041
  Beta  occ. eigenvalues --   -0.41689  -0.40592  -0.37132  -0.36411  -0.35395
  Beta  occ. eigenvalues --   -0.34229  -0.34037  -0.33486  -0.32830  -0.31929
  Beta  occ. eigenvalues --   -0.31275  -0.31111  -0.30443  -0.30279  -0.29059
  Beta  occ. eigenvalues --   -0.28242  -0.27547  -0.26562  -0.25910  -0.24762
  Beta  occ. eigenvalues --   -0.24424  -0.24252  -0.23710  -0.23449  -0.22315
  Beta  occ. eigenvalues --   -0.21536  -0.17787  -0.15649  -0.12534  -0.12347
  Beta  occ. eigenvalues --   -0.11765  -0.09592
  Beta virt. eigenvalues --    0.06608   0.06852   0.07479   0.08233   0.08644
  Beta virt. eigenvalues --    0.09006   0.09500   0.09574   0.10274   0.10750
  Beta virt. eigenvalues --    0.11136   0.11475   0.11774   0.12166   0.12562

 Mulliken charges and spin densities:
               1          2
     1  C   -0.457438  -0.134568
     2  C   -0.150702   0.176910
     3  C    0.234161  -0.702012
     4  C    0.301094  -0.606456
     5  C   -0.066536  -0.027471
     6  N    0.121149   0.018356
     7  C   -0.400630   0.275135
     8  C   -0.042017  -0.130918
     9  O   -0.354801   0.087219
    10  C   -0.204061   0.240525
    11  C   -0.154041   0.079649
    12  C   -0.408692   0.145316
    13  C    0.248175   0.006693
    14  O    0.032577   0.059485
    15  C   -0.588740   0.037670
    16  S    0.279173  -0.005479
    17  C   -0.722662  -0.014455
    18  O   -0.204621   0.013787
    19  H    0.251713  -0.084019
    20  H    0.086020   0.027982
    21  H    0.070575   0.047929
    22  H    0.011003   0.109210
    23  H    0.114905   0.038284
    24  H   -0.011525   0.177604
    25  H    0.103110   0.055490
    26  H    0.013455   0.139144
    27  H    0.132253   0.035632
    28  H    0.169079  -0.060133
    29  H   -0.174594   0.323122
    30  H   -0.020688   0.174408
    31  H    0.106494   0.035125
    32  H    0.207299   0.004637
    33  H    0.174936  -0.000258
    34  H    0.143307   0.006860
    35  H    0.184138  -0.000571
    36  H    0.087019   0.054688
    37  H   -0.109885   0.395481
 Sum of Mulliken charges =  -1.00000   1.00000

 Dipole moment (field-independent basis, Debye):
    X=             -1.4232    Y=              0.2726    Z=             -3.9300  Tot=              4.1886
 Quadrupole moment (field-independent basis, Debye-Ang):
   XX=           -190.9280   YY=           -140.8023   ZZ=           -137.8576
   XY=             17.8849   XZ=              8.1723   YZ=             -4.1042

 Summary of Natural Population Analysis:

                                       Natural Population
                Natural  -----------------------------------------------
    Atom  No    Charge         Core      Valence    Rydberg      Total
 -----------------------------------------------------------------------
      C    1   -0.29234      0.99966     2.28802    0.00467     3.29234
      C    2   -0.19240      0.99964     2.18546    0.00731     3.19240
      C    3   -0.19188      0.99957     2.18348    0.00883     3.19188
      C    4    0.12443      0.99950     1.85914    0.01693     2.87557
      C    5   -0.08716      0.99961     2.07621    0.01135     3.08716
      N    6   -0.25574      0.99966     2.74460    0.01148     3.75574
      C    7   -0.08708      0.99960     2.07664    0.01083     3.08708
      C    8    0.33411      0.99958     1.64341    0.02290     2.66589
      O    9   -0.30064      0.99988     3.29590    0.00486     4.30064
      C   10    0.12910      0.99943     1.85649    0.01498     2.87090
      C   11   -0.12284      0.99953     2.11428    0.00902     3.12284
      C   12   -0.17151      0.99950     2.16414    0.00787     3.17151
      C   13    0.17407      0.99947     1.80831    0.01815     2.82593
      O   14   -0.20123      0.99985     3.19336    0.00802     4.20123
      C   15   -0.26067      0.99953     2.25242    0.00871     3.26067
      S   16    0.09096      4.99967     2.88628    0.02310     7.90904
      C   17   -0.35716      0.99963     2.35164    0.00589     3.35716
      O   18   -0.37235      0.99988     3.36595    0.00652     4.37235
      H   19    0.11341      0.00000     0.38531    0.00127     0.38659
      H   20    0.09631      0.00000     0.40288    0.00082     0.40369
      H   21    0.09095      0.00000     0.40807    0.00098     0.40905
      H   22    0.09801      0.00000     0.40077    0.00122     0.40199
      H   23    0.09215      0.00000     0.40665    0.00120     0.40785
      H   24    0.10356      0.00000     0.39522    0.00122     0.39644
      H   25    0.09874      0.00000     0.40013    0.00113     0.40126
      H   26    0.09042      0.00000     0.40834    0.00125     0.40958
      H   27    0.10558      0.00000     0.39312    0.00130     0.39442
      H   28    0.10021      0.00000     0.39837    0.00142     0.39979
      H   29    0.09193      0.00000     0.40668    0.00139     0.40807
      H   30    0.10341      0.00000     0.39567    0.00092     0.39659
      H   31    0.10093      0.00000     0.39821    0.00086     0.39907
      H   32    0.11480      0.00000     0.38424    0.00096     0.38520
      H   33    0.10274      0.00000     0.39624    0.00102     0.39726
      H   34    0.09435      0.00000     0.40461    0.00105     0.40565
      H   35    0.10887      0.00000     0.39010    0.00103     0.39113
      H   36    0.10332      0.00000     0.39529    0.00139     0.39668
      H   37    0.23063      0.00000     0.26485    0.00452     0.26937
 =======================================================================
   * Total *    0.00000     21.99317    49.78046    0.22637    72.00000

 Normal termination of Gaussian 16 at Sat Dec 12 01:05:28 2020.
