 Gaussian 16, Revision A.03,

 -----------------------------------------------------------
 # opt freq B3LYP/6-31G(d) empiricaldispersion=gd3bj scf=xqc
 -----------------------------------------------------------

 ------------------------------
 CID_67054639_JID_4716_neutraal
 ------------------------------
 Symbolic Z-matrix:
 Charge =  0 Multiplicity = 1

 SCF Done:  E(RB3LYP) =  -556.763102396     A.U. after   15 cycles
 SCF Done:  E(RB3LYP) =  -556.765091627     A.U. after   12 cycles
 SCF Done:  E(RB3LYP) =  -556.765891100     A.U. after   12 cycles
 SCF Done:  E(RB3LYP) =  -556.766105213     A.U. after   13 cycles
 SCF Done:  E(RB3LYP) =  -556.766172358     A.U. after   13 cycles
 SCF Done:  E(RB3LYP) =  -556.766255621     A.U. after   11 cycles
 SCF Done:  E(RB3LYP) =  -556.766604587     A.U. after   12 cycles
 SCF Done:  E(RB3LYP) =  -556.766653876     A.U. after   11 cycles
 SCF Done:  E(RB3LYP) =  -556.766673307     A.U. after   10 cycles
 SCF Done:  E(RB3LYP) =  -556.766676423     A.U. after   10 cycles
 SCF Done:  E(RB3LYP) =  -556.766676644     A.U. after    9 cycles
 SCF Done:  E(RB3LYP) =  -556.766676926     A.U. after    8 cycles
 SCF Done:  E(RB3LYP) =  -556.766676936     A.U. after    7 cycles
 Optimization completed.
    -- Stationary point found.
 Normal termination of Gaussian 16 at Thu Dec 10 10:22:55 2020.

 --------------------------------------------------------------------
 #N Geom=AllCheck Guess=TCheck SCRF=Check GenChk RB3LYP/6-31G(d) Freq
 --------------------------------------------------------------------

 Structure from the checkpoint file:  "JID_4716.chk"
 ------------------------------
 CID_67054639_JID_4716_neutraal
 ------------------------------
 Charge =  0 Multiplicity = 1

 SCF Done:  E(RB3LYP) =  -556.766676936     A.U. after    1 cycles

  Exact polarizability: 171.916  16.788 127.480  10.408   5.033  90.978
 Approx polarizability: 251.874  43.713 221.126  24.252  13.426 149.581

                      1                      2                      3
                      A                      A                      A
 Frequencies --     29.3445                47.6566               109.9137
 Red. masses --      4.3982                 6.0704                 3.9969
 Frc consts  --      0.0022                 0.0081                 0.0284
 IR Inten    --      0.9869                 1.6884                 0.7425

                      4                      5                      6
                      A                      A                      A
 Frequencies --    154.1698               164.1451               214.4771
 Red. masses --      6.3268                 6.2052                 2.8981
 Frc consts  --      0.0886                 0.0985                 0.0785
 IR Inten    --      2.9283                 2.8747                 1.0458

                      7                      8                      9
                      A                      A                      A
 Frequencies --    262.9898               290.9227               348.9303
 Red. masses --      3.4463                 3.5662                 2.8351
 Frc consts  --      0.1404                 0.1778                 0.2034
 IR Inten    --      0.2995                 0.2876                 2.4577

                     10                     11                     12
                      A                      A                      A
 Frequencies --    417.5885               445.0967               479.8472
 Red. masses --      2.9879                 5.4880                 5.6758
 Frc consts  --      0.3070                 0.6406                 0.7700
 IR Inten    --      0.1213                 3.1057                 1.1370

                     13                     14                     15
                      A                      A                      A
 Frequencies --    515.6958               541.8830               564.5867
 Red. masses --      4.0809                 3.0055                 5.3584
 Frc consts  --      0.6394                 0.5200                 1.0063
 IR Inten    --      3.0924                12.0565                 2.5986

                     16                     17                     18
                      A                      A                      A
 Frequencies --    609.7119               636.2403               654.7273
 Red. masses --      5.2472                 6.3436                 4.2435
 Frc consts  --      1.1493                 1.5130                 1.0718
 IR Inten    --      0.2800                 0.0726                10.5164

                     19                     20                     21
                      A                      A                      A
 Frequencies --    714.4985               726.1053               763.8324
 Red. masses --      1.9362                 4.3322                 2.4269
 Frc consts  --      0.5824                 1.3457                 0.8343
 IR Inten    --     20.9750                 3.4557                15.6586

                     22                     23                     24
                      A                      A                      A
 Frequencies --    778.6730               801.9599               845.1874
 Red. masses --      2.0185                 1.8465                 1.5000
 Frc consts  --      0.7211                 0.6997                 0.6313
 IR Inten    --     23.6821                 7.5767                22.0155

                     25                     26                     27
                      A                      A                      A
 Frequencies --    859.5318               895.0354               926.9652
 Red. masses --      1.2481                 2.6794                 1.4881
 Frc consts  --      0.5433                 1.2647                 0.7534
 IR Inten    --      0.0068                 0.7891                 2.3176

                     28                     29                     30
                      A                      A                      A
 Frequencies --    963.1069               967.0352               979.2014
 Red. masses --      3.1840                 1.3502                 1.9463
 Frc consts  --      1.7401                 0.7439                 1.0995
 IR Inten    --      4.1031                 0.1889                 6.3599

                     31                     32                     33
                      A                      A                      A
 Frequencies --    989.9954               996.5631              1022.2122
 Red. masses --      1.4403                 1.2657                 3.6852
 Frc consts  --      0.8317                 0.7406                 2.2688
 IR Inten    --      0.6650                 0.0924                 0.0335

                     34                     35                     36
                      A                      A                      A
 Frequencies --   1023.4031              1063.5523              1113.1347
 Red. masses --      3.5856                 2.1769                 1.8530
 Frc consts  --      2.2126                 1.4508                 1.3528
 IR Inten    --      2.8051                 3.2919                 3.1334

                     37                     38                     39
                      A                      A                      A
 Frequencies --   1118.4842              1179.4748              1194.5088
 Red. masses --      1.6659                 2.9437                 1.1010
 Frc consts  --      1.2279                 2.4128                 0.9256
 IR Inten    --      5.9396                 6.7305                 0.0791

                     40                     41                     42
                      A                      A                      A
 Frequencies --   1205.0369              1206.1785              1219.0563
 Red. masses --      2.1035                 1.1210                 1.1420
 Frc consts  --      1.7997                 0.9609                 1.0000
 IR Inten    --      1.8996                 0.5340                 1.5368

                     43                     44                     45
                      A                      A                      A
 Frequencies --   1245.1654              1302.2294              1314.6966
 Red. masses --      1.2533                 1.7388                 1.7898
 Frc consts  --      1.1449                 1.7373                 1.8226
 IR Inten    --      6.9313                 1.1478                 6.8199

                     46                     47                     48
                      A                      A                      A
 Frequencies --   1349.4805              1368.2186              1384.1867
 Red. masses --      1.3763                 2.8472                 1.4030
 Frc consts  --      1.4767                 3.1404                 1.5838
 IR Inten    --      0.4075                 1.7074                 1.5495

                     49                     50                     51
                      A                      A                      A
 Frequencies --   1398.5421              1441.1954              1490.7030
 Red. masses --      1.5788                 1.7646                 1.1018
 Frc consts  --      1.8194                 2.1595                 1.4426
 IR Inten    --      3.8243                 1.4571                 6.1787

                     52                     53                     54
                      A                      A                      A
 Frequencies --   1503.9833              1546.4570              1646.2852
 Red. masses --      2.1781                 2.1762                 5.5650
 Frc consts  --      2.9027                 3.0664                 8.8864
 IR Inten    --      6.2969                11.4833                 1.4352

                     55                     56                     57
                      A                      A                      A
 Frequencies --   1654.5801              1665.3266              1716.1863
 Red. masses --      6.9758                 5.5664                 6.2781
 Frc consts  --     11.2518                 9.0954                10.8945
 IR Inten    --      8.6587                 2.3146                 1.5286

                     58                     59                     60
                      A                      A                      A
 Frequencies --   2347.5170              2998.7861              3056.9771
 Red. masses --     12.6784                 1.0719                 1.0843
 Frc consts  --     41.1653                 5.6794                 5.9704
 IR Inten    --     28.3192                24.4038                22.2210

                     61                     62                     63
                      A                      A                      A
 Frequencies --   3097.4699              3171.3538              3186.4325
 Red. masses --      1.0897                 1.0873                 1.0866
 Frc consts  --      6.1596                 6.4429                 6.5005
 IR Inten    --     13.0341                10.0458                 0.6864

                     64                     65                     66
                      A                      A                      A
 Frequencies --   3190.2880              3196.4462              3209.1716
 Red. masses --      1.0867                 1.0915                 1.0957
 Frc consts  --      6.5167                 6.5708                 6.6489
 IR Inten    --      3.8756                25.1807                32.0933

                     67                     68                     69
                      A                      A                      A
 Frequencies --   3209.7958              3214.5443              3221.2325
 Red. masses --      1.0919                 1.0969                 1.0931
 Frc consts  --      6.6281                 6.6780                 6.6828
 IR Inten    --      3.8702                11.8865                 7.2521

 - Thermochemistry -
 -------------------
 Temperature   298.150 Kelvin.  Pressure   1.00000 Atm.
 Atom     1 has atomic number  6 and mass  12.00000

 Molecular mass:   181.08915 amu.
 Principal axes and moments of inertia in atomic units:
                           1         2         3
     Eigenvalues --  1243.906094241.069504745.13711
           X            0.99991  -0.01217   0.00482
           Y            0.01205   0.99961   0.02518
           Z           -0.00513  -0.02511   0.99967
 This molecule is an asymmetric top.
 Rotational symmetry number  1.
 Warning -- assumption of classical behavior for rotation
           may cause significant error
 Rotational temperatures (Kelvin)      0.06963     0.02042     0.01825
 Rotational constants (GHZ):           1.45087     0.42554     0.38033
 Zero-point vibrational energy     533342.5 (Joules/Mol)
                                  127.47193 (Kcal/Mol)
 Warning -- explicit consideration of  16 degrees of freedom as
           vibrations may cause significant error
 Vibrational temperatures:     42.22    68.57   158.14   221.82   236.17
          (Kelvin)            308.58   378.38   418.57   502.03   600.82
                              640.39   690.39   741.97   779.65   812.31
                              877.24   915.41   942.01  1028.00  1044.70
                             1098.98  1120.34  1153.84  1216.04  1236.67
                             1287.76  1333.70  1385.70  1391.35  1408.85
                             1424.38  1433.83  1470.74  1472.45  1530.21
                             1601.55  1609.25  1697.00  1718.63  1733.78
                             1735.42  1753.95  1791.52  1873.62  1891.56
                             1941.60  1968.56  1991.54  2012.19  2073.56
                             2144.79  2163.90  2225.01  2368.64  2380.57
                             2396.03  2469.21  3377.55  4314.58  4398.31
                             4456.57  4562.87  4584.57  4590.11  4598.97
                             4617.28  4618.18  4625.01  4634.64

 Zero-point correction=                           0.203139 (Hartree/Particle)
 Thermal correction to Energy=                    0.214499
 Thermal correction to Enthalpy=                  0.215443
 Thermal correction to Gibbs Free Energy=         0.164600
 Sum of electronic and zero-point Energies=           -556.563537
 Sum of electronic and thermal Energies=              -556.552178
 Sum of electronic and thermal Enthalpies=            -556.551234
 Sum of electronic and thermal Free Energies=         -556.602077

                     E (Thermal)             CV                S
                      KCal/Mol        Cal/Mol-Kelvin    Cal/Mol-Kelvin
 Total                  134.600             44.658            107.008
 Electronic               0.000              0.000              0.000
 Translational            0.889              2.981             41.488
 Rotational               0.889              2.981             31.593
 Vibrational            132.823             38.696             33.926
 Vibration     1          0.593              1.984              5.873
 Vibration     2          0.595              1.978              4.912
 Vibration     3          0.606              1.941              3.270
 Vibration     4          0.620              1.898              2.620
 Vibration     5          0.623              1.886              2.501
 Vibration     6          0.644              1.819              2.005
 Vibration     7          0.670              1.741              1.642
 Vibration     8          0.687              1.691              1.469
 Vibration     9          0.726              1.577              1.171
 Vibration    10          0.781              1.432              0.900
 Vibration    11          0.804              1.372              0.811
 Vibration    12          0.836              1.295              0.710
 Vibration    13          0.871              1.215              0.620
 Vibration    14          0.897              1.157              0.561
 Vibration    15          0.920              1.108              0.515
 Vibration    16          0.969              1.011              0.433

 Optimization completed.
    -- Stationary point found.
 Normal termination of Gaussian 16 at Thu Dec 10 10:29:18 2020.

 ----------------------------------------------------------------------
 # B3LYP/6-311++G(d,p) empiricaldispersion=gd3bj scf=xqc pop=npa geom=c
 heck
 ----------------------------------------------------------------------

 --------------------------------------
 CID_67054639_JID_4716_Energie_neutraal
 --------------------------------------
 Structure from the checkpoint file:  "JID_4716.chk"
 Charge =  0 Multiplicity = 1

 SCF Done:  E(RB3LYP) =  -556.910644288     A.U. after   16 cycles
 Normal termination of Gaussian 16 at Thu Dec 10 10:31:47 2020.

 ----------------------------------------------------------------------
 # B3LYP/6-311++G(d,p) empiricaldispersion=gd3bj scf=xqc pop=npa geom=c
 heck
 ----------------------------------------------------------------------

 ------------------------------------
 CID_67054639_JID_4716_Energie_kation
 ------------------------------------
 Structure from the checkpoint file:  "JID_4716.chk"
 Charge =  1 Multiplicity = 2

 SCF Done:  E(UB3LYP) =  -556.601528805     A.U. after   29 cycles
 Normal termination of Gaussian 16 at Thu Dec 10 10:38:00 2020.
 Gaussian 16:  ES64L-G16RevA.03 25-Dec-2016

 ----------------------------------------------------------------------
 # B3LYP/6-311++G(d,p) empiricaldispersion=gd3bj scf=xqc pop=npa geom=c
 heck
 ----------------------------------------------------------------------

 -----------------------------------
 CID_67054639_JID_4716_Energie_anion
 -----------------------------------
 Structure from the checkpoint file:  "JID_4716.chk"
 Charge = -1 Multiplicity = 2

                         Standard orientation:
 ---------------------------------------------------------------------
 Center     Atomic      Atomic             Coordinates (Angstroms)
 Number     Number       Type             X           Y           Z
 ---------------------------------------------------------------------
      1          6           0        0.645142   -1.560309   -1.028116
      2          6           0        1.707724   -0.514097   -1.196701
      3          6           0        2.331480   -0.003514   -0.113207
      4          6           0        1.930516   -0.412032    1.245091
      5          6           0        0.787060   -1.082765    1.442951
      6          6           0       -0.143739   -1.428555    0.302008
      7          6           0       -1.298081   -0.436510    0.183753
      8          6           0       -1.120673    0.936646    0.387465
      9          6           0       -2.183549    1.822885    0.212563
     10          6           0       -3.441067    1.349332   -0.163531
     11          6           0       -3.629833   -0.018606   -0.364356
     12          6           0       -2.564493   -0.901419   -0.191217
     13          6           0        3.389916    0.950446   -0.256932
     14          7           0        4.251922    1.726538   -0.348171
     15          1           0        1.141422   -2.544475   -1.051836
     16          1           0       -0.051473   -1.543881   -1.872446
     17          1           0        2.005463   -0.211646   -2.195934
     18          1           0        2.569950   -0.123206    2.073250
     19          1           0        0.466579   -1.333790    2.450468
     20          1           0       -0.589203   -2.409535    0.503694
     21          1           0       -0.149292    1.311960    0.691027
     22          1           0       -2.028106    2.886019    0.373872
     23          1           0       -4.268805    2.040411   -0.294964
     24          1           0       -4.606499   -0.399352   -0.650160
     25          1           0       -2.715914   -1.967289   -0.348400
 ---------------------------------------------------------------------

 SCF Done:  E(UB3LYP) =  -556.927049645     A.U. after   28 cycles

 The electronic state is 2-A.
 Alpha  occ. eigenvalues --  -14.14282 -10.06807 -10.06502 -10.06432 -10.06179
 Alpha  occ. eigenvalues --  -10.06125 -10.05293 -10.05135 -10.04735 -10.03744
 Alpha  occ. eigenvalues --  -10.02768 -10.02115 -10.00925 -10.00333  -0.74868
 Alpha  occ. eigenvalues --   -0.74549  -0.70242  -0.64996  -0.63546  -0.60108
 Alpha  occ. eigenvalues --   -0.59982  -0.51409  -0.49536  -0.46780  -0.45902
 Alpha  occ. eigenvalues --   -0.40904  -0.39019  -0.35983  -0.35027  -0.33109
 Alpha  occ. eigenvalues --   -0.31686  -0.31061  -0.29367  -0.28143  -0.27249
 Alpha  occ. eigenvalues --   -0.26281  -0.25198  -0.23614  -0.22589  -0.21818
 Alpha  occ. eigenvalues --   -0.21460  -0.19864  -0.19044  -0.17073  -0.15359
 Alpha  occ. eigenvalues --   -0.14617  -0.13223  -0.08169   0.04334
 Alpha virt. eigenvalues --    0.07198   0.08558   0.09255   0.09538   0.09878
 Alpha virt. eigenvalues --    0.10724   0.10987   0.11146   0.12668   0.13042
 Alpha virt. eigenvalues --    0.13516   0.14442   0.15019   0.15986   0.16260

  Beta  occ. eigenvalues --  -14.14129 -10.06809 -10.06476 -10.06421 -10.06148
  Beta  occ. eigenvalues --  -10.06092 -10.05273 -10.05141 -10.04729 -10.03778
  Beta  occ. eigenvalues --  -10.02687 -10.02082 -10.00590  -9.99685  -0.74761
  Beta  occ. eigenvalues --   -0.74333  -0.69838  -0.64705  -0.63494  -0.59865
  Beta  occ. eigenvalues --   -0.59293  -0.51199  -0.49503  -0.46656  -0.45035
  Beta  occ. eigenvalues --   -0.40754  -0.38737  -0.35740  -0.34932  -0.32934
  Beta  occ. eigenvalues --   -0.31489  -0.30956  -0.29127  -0.27862  -0.26967
  Beta  occ. eigenvalues --   -0.26099  -0.25029  -0.23520  -0.22156  -0.21314
  Beta  occ. eigenvalues --   -0.20962  -0.19633  -0.18797  -0.16902  -0.14521
  Beta  occ. eigenvalues --   -0.14204  -0.12941  -0.05882
  Beta virt. eigenvalues --    0.07109   0.08524   0.09247   0.09544   0.09656
  Beta virt. eigenvalues --    0.10656   0.10916   0.10976   0.11816   0.12646
  Beta virt. eigenvalues --    0.12984   0.13432   0.14453   0.15001   0.16159

 Mulliken charges and spin densities:
               1          2
     1  C   -0.829544  -0.038790
     2  C   -0.365421   0.629939
     3  C    1.389304   0.052908
     4  C   -0.342836   0.021047
     5  C   -0.498226   0.263153
     6  C    0.784274  -0.120454
     7  C    0.336460   0.060678
     8  C   -0.324162  -0.099224
     9  C   -0.150826   0.042107
    10  C   -0.159179  -0.014473
    11  C   -0.352007  -0.024172
    12  C   -0.259687   0.076156
    13  C   -1.303347  -0.047136
    14  N   -0.337880   0.080484
    15  H    0.098403   0.039331
    16  H    0.112130   0.002237
    17  H    0.161269  -0.030380
    18  H    0.140431  -0.000970
    19  H    0.111029  -0.016192
    20  H    0.153585   0.047640
    21  H    0.189683  -0.007121
    22  H    0.153812   0.004978
    23  H    0.103859   0.008046
    24  H    0.106232   0.024607
    25  H    0.082643   0.045600
 Sum of Mulliken charges =  -1.00000   1.00000

 Dipole moment (field-independent basis, Debye):
    X=             -8.6009    Y=             -2.2931    Z=              0.3888  Tot=              8.9099
 Quadrupole moment (field-independent basis, Debye-Ang):
   XX=           -141.0092   YY=            -98.5191   ZZ=            -93.6800
   XY=            -12.5984   XZ=              4.4797   YZ=              2.9443

 Summary of Natural Population Analysis:

                                       Natural Population
                Natural  -----------------------------------------------
    Atom  No    Charge         Core      Valence    Rydberg      Total
 -----------------------------------------------------------------------
      C    1   -0.19962      0.99961     2.19287    0.00713     3.19962
      C    2    0.08666      0.99952     1.90582    0.00800     2.91334
      C    3   -0.12378      0.99938     2.11254    0.01186     3.12378
      C    4   -0.09894      0.99951     2.09048    0.00895     3.09894
      C    5   -0.03703      0.99954     2.02775    0.00975     3.03703
      C    6   -0.13077      0.99956     2.11709    0.01412     3.13077
      C    7    0.00675      0.99949     1.98193    0.01184     2.99325
      C    8   -0.09144      0.99951     2.08386    0.00808     3.09144
      C    9   -0.10568      0.99957     2.09711    0.00899     3.10568
      C   10   -0.10744      0.99957     2.09878    0.00909     3.10744
      C   11   -0.11021      0.99957     2.10118    0.00946     3.11021
      C   12   -0.10300      0.99951     2.09498    0.00850     3.10300
      C   13    0.16407      0.99964     1.81747    0.01882     2.83593
      N   14   -0.20861      0.99979     2.69728    0.01154     3.70861
      H   15    0.10526      0.00000     0.39356    0.00118     0.39474
      H   16    0.09911      0.00000     0.39977    0.00112     0.40089
      H   17    0.08473      0.00000     0.41438    0.00089     0.41527
      H   18    0.09531      0.00000     0.40374    0.00095     0.40469
      H   19    0.08652      0.00000     0.41247    0.00101     0.41348
      H   20    0.09792      0.00000     0.40001    0.00206     0.40208
      H   21    0.11444      0.00000     0.38426    0.00130     0.38556
      H   22    0.09548      0.00000     0.40359    0.00093     0.40452
      H   23    0.09308      0.00000     0.40598    0.00094     0.40692
      H   24    0.09279      0.00000     0.40590    0.00131     0.40721
      H   25    0.09438      0.00000     0.40390    0.00171     0.40562
 =======================================================================
   * Total *    0.00000     13.99376    33.84670    0.15953    48.00000

 Normal termination of Gaussian 16 at Thu Dec 10 10:43:44 2020.
