 Gaussian 16, Revision A.03,

 -----------------------------------------------------------
 # opt freq B3LYP/6-31G(d) empiricaldispersion=gd3bj scf=xqc
 -----------------------------------------------------------

 -------------------------------
 CID_102673006_JID_2234_neutraal
 -------------------------------
 Symbolic Z-matrix:
 Charge =  0 Multiplicity = 1

 SCF Done:  E(RB3LYP) =  -897.458097544     A.U. after   14 cycles
 SCF Done:  E(RB3LYP) =  -897.462679287     A.U. after   12 cycles
 SCF Done:  E(RB3LYP) =  -897.463340822     A.U. after   12 cycles
 SCF Done:  E(RB3LYP) =  -897.463926006     A.U. after   12 cycles
 SCF Done:  E(RB3LYP) =  -897.464174462     A.U. after   12 cycles
 SCF Done:  E(RB3LYP) =  -897.464263945     A.U. after   13 cycles
 SCF Done:  E(RB3LYP) =  -897.464459002     A.U. after   11 cycles
 SCF Done:  E(RB3LYP) =  -897.464561038     A.U. after   11 cycles
 SCF Done:  E(RB3LYP) =  -897.464588373     A.U. after   11 cycles
 SCF Done:  E(RB3LYP) =  -897.464637363     A.U. after   10 cycles
 SCF Done:  E(RB3LYP) =  -897.468261592     A.U. after   10 cycles
 SCF Done:  E(RB3LYP) =  -897.468263494     A.U. after    9 cycles
 SCF Done:  E(RB3LYP) =  -897.468262656     A.U. after    8 cycles
 SCF Done:  E(RB3LYP) =  -897.468263665     A.U. after    8 cycles
 SCF Done:  E(RB3LYP) =  -897.468263609     A.U. after    7 cycles
 SCF Done:  E(RB3LYP) =  -897.468263683     A.U. after    7 cycles
 Optimization completed.
    -- Stationary point found.
 Normal termination of Gaussian 16 at Wed Dec  9 17:30:35 2020.

 --------------------------------------------------------------------
 #N Geom=AllCheck Guess=TCheck SCRF=Check GenChk RB3LYP/6-31G(d) Freq
 --------------------------------------------------------------------

 Structure from the checkpoint file:  "JID_2234.chk"
 -------------------------------
 CID_102673006_JID_2234_neutraal
 -------------------------------
 Charge =  0 Multiplicity = 1

 SCF Done:  E(RB3LYP) =  -897.468263683     A.U. after    1 cycles

  Exact polarizability: 127.154   3.463 116.076   2.984   2.720  94.988
 Approx polarizability: 160.549   3.825 166.166   3.793  12.311 160.896

                      1                      2                      3
                      A                      A                      A
 Frequencies --     37.1632                41.1537                52.6874
 Red. masses --      3.9452                 4.6482                 6.5043
 Frc consts  --      0.0032                 0.0046                 0.0106
 IR Inten    --      1.1315                 6.5115                 2.5688

                      4                      5                      6
                      A                      A                      A
 Frequencies --     77.0235               130.1855               146.6000
 Red. masses --      4.1831                 2.9716                 3.2747
 Frc consts  --      0.0146                 0.0297                 0.0415
 IR Inten    --      3.5487                 1.3486                 3.1172

                      7                      8                      9
                      A                      A                      A
 Frequencies --    211.2159               247.1182               261.7192
 Red. masses --      2.3127                 1.4507                 1.2334
 Frc consts  --      0.0608                 0.0522                 0.0498
 IR Inten    --      2.3528                 1.1400               217.5379

                     10                     11                     12
                      A                      A                      A
 Frequencies --    264.7300               293.1585               316.9826
 Red. masses --      1.8717                 1.9855                 3.0566
 Frc consts  --      0.0773                 0.1005                 0.1810
 IR Inten    --      4.6270                 1.9176                 1.8767

                     13                     14                     15
                      A                      A                      A
 Frequencies --    360.3376               405.7250               449.7053
 Red. masses --      2.9885                 4.3436                 2.9846
 Frc consts  --      0.2286                 0.4213                 0.3556
 IR Inten    --      3.8103                 2.5501                 0.9339

                     16                     17                     18
                      A                      A                      A
 Frequencies --    485.6248               493.1643               515.9515
 Red. masses --      2.9949                 2.2476                 1.8422
 Frc consts  --      0.4161                 0.3221                 0.2889
 IR Inten    --      3.6676                 3.5989                 4.8277

                     19                     20                     21
                      A                      A                      A
 Frequencies --    537.2789               629.4998               654.8417
 Red. masses --      2.8191                 2.2143                 2.0027
 Frc consts  --      0.4795                 0.5170                 0.5060
 IR Inten    --      9.0501                 3.6054                 9.4421

                     22                     23                     24
                      A                      A                      A
 Frequencies --    678.0662               703.1658               761.4679
 Red. masses --      3.7900                 3.6570                 1.7494
 Frc consts  --      1.0267                 1.0654                 0.5976
 IR Inten    --      2.6408                15.4478                63.5657

                     25                     26                     27
                      A                      A                      A
 Frequencies --    804.6771               846.6525               870.8413
 Red. masses --      2.1167                 1.8717                 1.7575
 Frc consts  --      0.8075                 0.7905                 0.7853
 IR Inten    --     41.5472                 0.2861                10.0130

                     28                     29                     30
                      A                      A                      A
 Frequencies --    889.2475               975.2783               984.2474
 Red. masses --      2.1312                 1.7458                 1.4945
 Frc consts  --      0.9929                 0.9784                 0.8530
 IR Inten    --      8.0130                14.3436                 5.5377

                     31                     32                     33
                      A                      A                      A
 Frequencies --   1001.1985              1036.0272              1048.4099
 Red. masses --      2.0086                 2.0534                 2.2304
 Frc consts  --      1.1863                 1.2986                 1.4444
 IR Inten    --      4.3227                 6.6897                 8.0905

                     34                     35                     36
                      A                      A                      A
 Frequencies --   1054.2232              1088.5523              1101.3518
 Red. masses --      1.5969                 2.0738                 1.6316
 Frc consts  --      1.0457                 1.4478                 1.1661
 IR Inten    --      9.7592                 2.9528                 1.2626

                     37                     38                     39
                      A                      A                      A
 Frequencies --   1130.6704              1139.1613              1165.9256
 Red. masses --      1.9283                 2.3071                 2.1451
 Frc consts  --      1.4524                 1.7640                 1.7181
 IR Inten    --      1.0277                 3.4601                80.4506

                     40                     41                     42
                      A                      A                      A
 Frequencies --   1197.5417              1219.6006              1244.0804
 Red. masses --      1.9813                 1.3565                 1.3425
 Frc consts  --      1.6741                 1.1888                 1.2242
 IR Inten    --      6.1884                14.0263                29.6590

                     43                     44                     45
                      A                      A                      A
 Frequencies --   1255.9620              1288.3368              1314.1144
 Red. masses --      1.3220                 1.5684                 1.2713
 Frc consts  --      1.2287                 1.5338                 1.2935
 IR Inten    --      5.5340                17.7035                19.1006

                     46                     47                     48
                      A                      A                      A
 Frequencies --   1321.1344              1333.7572              1363.1973
 Red. masses --      1.5610                 1.2847                 1.3177
 Frc consts  --      1.6053                 1.3464                 1.4427
 IR Inten    --     59.3892                 7.8477                12.5628

                     49                     50                     51
                      A                      A                      A
 Frequencies --   1384.5195              1413.3328              1416.0785
 Red. masses --      1.3410                 1.2465                 1.5790
 Frc consts  --      1.5145                 1.4670                 1.8656
 IR Inten    --      8.1576                16.9713                36.3864

                     52                     53                     54
                      A                      A                      A
 Frequencies --   1427.7363              1429.9433              1491.0365
 Red. masses --      1.3959                 1.4946                 1.0927
 Frc consts  --      1.6765                 1.8005                 1.4313
 IR Inten    --      3.5746                29.5242                12.5817

                     55                     56                     57
                      A                      A                      A
 Frequencies --   1507.1317              1512.9235              1523.4416
 Red. masses --      1.0907                 1.0941                 1.0498
 Frc consts  --      1.4597                 1.4755                 1.4355
 IR Inten    --      5.4802                 4.5617                 1.6806

                     58                     59                     60
                      A                      A                      A
 Frequencies --   1528.4354              1530.5204              1534.2655
 Red. masses --      1.0500                 1.1176                 1.2054
 Frc consts  --      1.4452                 1.5425                 1.6718
 IR Inten    --     12.3279                 3.6511                38.4067

                     61                     62                     63
                      A                      A                      A
 Frequencies --   1645.6986              1793.5370              3026.0628
 Red. masses --      1.2522                 8.4205                 1.0823
 Frc consts  --      1.9981                15.9590                 5.8395
 IR Inten    --    103.8684               236.5501                 5.2812

                     64                     65                     66
                      A                      A                      A
 Frequencies --   3033.9759              3051.4787              3052.9440
 Red. masses --      1.0637                 1.0388                 1.0662
 Frc consts  --      5.7690                 5.6989                 5.8548
 IR Inten    --     15.1291                25.8788                 2.5604

                     67                     68                     69
                      A                      A                      A
 Frequencies --   3057.5188              3061.5788              3073.7523
 Red. masses --      1.0645                 1.0787                 1.0677
 Frc consts  --      5.8635                 5.9574                 5.9436
 IR Inten    --     40.7881                47.8704                36.5042

                     70                     71                     72
                      A                      A                      A
 Frequencies --   3076.0379              3109.1831              3112.0855
 Red. masses --      1.0922                 1.0977                 1.1007
 Frc consts  --      6.0888                 6.2521                 6.2810
 IR Inten    --      9.7382                31.1634                33.2717

                     73                     74                     75
                      A                      A                      A
 Frequencies --   3125.0192              3127.0663              3130.1258
 Red. masses --      1.1029                 1.1028                 1.1071
 Frc consts  --      6.3456                 6.3539                 6.3907
 IR Inten    --     30.3738                16.1025                21.1413

                     76                     77                     78
                      A                      A                      A
 Frequencies --   3521.5773              3584.7843              3710.7425
 Red. masses --      1.0734                 1.0453                 1.1046
 Frc consts  --      7.8428                 7.9141                 8.9611
 IR Inten    --     11.7641                36.8970                30.0612

 - Thermochemistry -
 -------------------
 Temperature   298.150 Kelvin.  Pressure   1.00000 Atm.
 Atom     1 has atomic number  6 and mass  12.00000

 Molecular mass:   188.09834 amu.
 Principal axes and moments of inertia in atomic units:
                           1         2         3
     Eigenvalues --  1233.351194071.033964808.88094
           X            0.99978   0.01871   0.00953
           Y           -0.01865   0.99981  -0.00555
           Z           -0.00963   0.00537   0.99994
 This molecule is an asymmetric top.
 Rotational symmetry number  1.
 Warning -- assumption of classical behavior for rotation
           may cause significant error
 Rotational temperatures (Kelvin)      0.07023     0.02128     0.01801
 Rotational constants (GHZ):           1.46328     0.44331     0.37529
 Zero-point vibrational energy     642522.0 (Joules/Mol)
                                  153.56644 (Kcal/Mol)
 Warning -- explicit consideration of  19 degrees of freedom as
           vibrations may cause significant error
 Vibrational temperatures:     53.47    59.21    75.81   110.82   187.31
          (Kelvin)            210.92   303.89   355.55   376.56   380.89
                              421.79   456.07   518.45   583.75   647.03
                              698.71   709.55   742.34   773.02   905.71
                              942.17   975.59  1011.70  1095.58  1157.75
                             1218.14  1252.95  1279.43  1403.21  1416.11
                             1440.50  1490.61  1508.43  1516.79  1566.18
                             1584.60  1626.78  1639.00  1677.51  1723.00
                             1754.73  1789.95  1807.05  1853.63  1890.72
                             1900.82  1918.98  1961.34  1992.01  2033.47
                             2037.42  2054.19  2057.37  2145.27  2168.43
                             2176.76  2191.89  2199.08  2202.08  2207.47
                             2367.79  2580.50  4353.83  4365.21  4390.40
                             4392.51  4399.09  4404.93  4422.44  4425.73
                             4473.42  4477.60  4496.21  4499.15  4503.55
                             5066.76  5157.71  5338.93

 Zero-point correction=                           0.244724 (Hartree/Particle)
 Thermal correction to Energy=                    0.258163
 Thermal correction to Enthalpy=                  0.259107
 Thermal correction to Gibbs Free Energy=         0.203542
 Sum of electronic and zero-point Energies=           -897.223540
 Sum of electronic and thermal Energies=              -897.210100
 Sum of electronic and thermal Enthalpies=            -897.209156
 Sum of electronic and thermal Free Energies=         -897.264721

                     E (Thermal)             CV                S
                      KCal/Mol        Cal/Mol-Kelvin    Cal/Mol-Kelvin
 Total                  162.000             49.938            116.946
 Electronic               0.000              0.000              0.000
 Translational            0.889              2.981             41.601
 Rotational               0.889              2.981             31.557
 Vibrational            160.222             43.977             43.788
 Vibration     1          0.594              1.982              5.405
 Vibration     2          0.594              1.981              5.203
 Vibration     3          0.596              1.977              4.714
 Vibration     4          0.599              1.964              3.965
 Vibration     5          0.612              1.923              2.943
 Vibration     6          0.617              1.906              2.716
 Vibration     7          0.643              1.824              2.033
 Vibration     8          0.661              1.768              1.751
 Vibration     9          0.669              1.743              1.650
 Vibration    10          0.671              1.738              1.630
 Vibration    11          0.688              1.686              1.456
 Vibration    12          0.704              1.641              1.326
 Vibration    13          0.735              1.554              1.121
 Vibration    14          0.771              1.458              0.942
 Vibration    15          0.809              1.362              0.797
 Vibration    16          0.842              1.282              0.695
 Vibration    17          0.849              1.265              0.675
 Vibration    18          0.871              1.215              0.619
 Vibration    19          0.892              1.168              0.571

 Optimization completed.
    -- Stationary point found.
 Normal termination of Gaussian 16 at Wed Dec  9 17:38:01 2020.

 ----------------------------------------------------------------------
 # B3LYP/6-311++G(d,p) empiricaldispersion=gd3bj scf=xqc pop=npa geom=c
 heck
 ----------------------------------------------------------------------

 ---------------------------------------
 CID_102673006_JID_2234_Energie_neutraal
 ---------------------------------------
 Structure from the checkpoint file:  "JID_2234.chk"
 Charge =  0 Multiplicity = 1

 SCF Done:  E(RB3LYP) =  -897.648542583     A.U. after   15 cycles
 Normal termination of Gaussian 16 at Wed Dec  9 17:41:45 2020.

 ----------------------------------------------------------------------
 # B3LYP/6-311++G(d,p) empiricaldispersion=gd3bj scf=xqc pop=npa geom=c
 heck
 ----------------------------------------------------------------------

 -------------------------------------
 CID_102673006_JID_2234_Energie_kation
 -------------------------------------
 Structure from the checkpoint file:  "JID_2234.chk"
 Charge =  1 Multiplicity = 2

 SCF Done:  E(UB3LYP) =  -897.362422804     A.U. after   25 cycles
 Normal termination of Gaussian 16 at Wed Dec  9 17:51:14 2020.
 Gaussian 16:  ES64L-G16RevA.03 25-Dec-2016

 ----------------------------------------------------------------------
 # B3LYP/6-311++G(d,p) empiricaldispersion=gd3bj scf=xqc pop=npa geom=c
 heck
 ----------------------------------------------------------------------

 ------------------------------------
 CID_102673006_JID_2234_Energie_anion
 ------------------------------------
 Structure from the checkpoint file:  "JID_2234.chk"
 Charge = -1 Multiplicity = 2

                         Standard orientation:
 ---------------------------------------------------------------------
 Center     Atomic      Atomic             Coordinates (Angstroms)
 Number     Number       Type             X           Y           Z
 ---------------------------------------------------------------------
      1          6           0        2.673216    1.895809   -0.094374
      2          6           0        2.050366    0.610920    0.432499
      3          6           0        0.648289    0.330613   -0.147070
      4          6           0        0.369868   -1.161083    0.125097
      5          6           0        1.596602   -1.948564   -0.334836
      6         16           0        3.069809   -0.881787    0.031443
      7          7           0       -0.311966    1.282641    0.395760
      8          6           0       -1.405364    1.693786   -0.471742
      9          6           0       -2.349315    0.586789   -0.977917
     10          6           0       -2.960099   -0.218278    0.164631
     11          8           0       -2.876247    0.117776    1.339831
     12          7           0       -3.593270   -1.370686   -0.212650
     13          1           0        3.645325    2.093984    0.368471
     14          1           0        2.001459    2.730098    0.135330
     15          1           0        2.817351    1.841562   -1.179123
     16          1           0        1.955293    0.675361    1.522879
     17          1           0        0.703407    0.488866   -1.233886
     18          1           0       -0.535817   -1.517672   -0.375970
     19          1           0        0.216962   -1.294224    1.203708
     20          1           0        1.561520   -2.145490   -1.410734
     21          1           0        1.702452   -2.903262    0.185814
     22          1           0       -0.705533    0.936830    1.267688
     23          1           0       -1.997649    2.426668    0.084692
     24          1           0       -0.984745    2.212999   -1.341561
     25          1           0       -3.165671    1.040008   -1.558968
     26          1           0       -1.826806   -0.091801   -1.663662
     27          1           0       -3.793546   -1.572221   -1.181005
     28          1           0       -4.105696   -1.878965    0.495110
 ---------------------------------------------------------------------

 SCF Done:  E(UB3LYP) =  -897.642143180     A.U. after   30 cycles

 The electronic state is 2-A.
 Alpha  occ. eigenvalues --  -88.73907 -18.98639 -14.21809 -14.19628 -10.17002
 Alpha  occ. eigenvalues --  -10.10947 -10.10850 -10.10301 -10.09575 -10.07632
 Alpha  occ. eigenvalues --  -10.07567 -10.07030  -7.82547  -5.78923  -5.78593
 Alpha  occ. eigenvalues --   -5.77922  -0.93536  -0.81710  -0.79362  -0.74086
 Alpha  occ. eigenvalues --   -0.67080  -0.65799  -0.61016  -0.57559  -0.53365
 Alpha  occ. eigenvalues --   -0.49487  -0.47262  -0.46804  -0.42168  -0.40032
 Alpha  occ. eigenvalues --   -0.38829  -0.37105  -0.35598  -0.35148  -0.33824
 Alpha  occ. eigenvalues --   -0.33147  -0.32171  -0.30143  -0.29174  -0.28621
 Alpha  occ. eigenvalues --   -0.28027  -0.26693  -0.25617  -0.25297  -0.24415
 Alpha  occ. eigenvalues --   -0.23710  -0.21301  -0.16838  -0.15821  -0.13047
 Alpha  occ. eigenvalues --   -0.12582   0.04415
 Alpha virt. eigenvalues --    0.07113   0.07483   0.07864   0.08712   0.09515
 Alpha virt. eigenvalues --    0.09960   0.10466   0.10896   0.11641   0.11973
 Alpha virt. eigenvalues --    0.12035   0.12182   0.13642   0.13676   0.13832

  Beta  occ. eigenvalues --  -88.73906 -18.98632 -14.21710 -14.19626 -10.16999
  Beta  occ. eigenvalues --  -10.10939 -10.10849 -10.10285 -10.09564 -10.07617
  Beta  occ. eigenvalues --  -10.07564 -10.06977  -7.82547  -5.78922  -5.78592
  Beta  occ. eigenvalues --   -5.77922  -0.93514  -0.81699  -0.79230  -0.74073
  Beta  occ. eigenvalues --   -0.67061  -0.65744  -0.60981  -0.57535  -0.53304
  Beta  occ. eigenvalues --   -0.49452  -0.47245  -0.46644  -0.42072  -0.40002
  Beta  occ. eigenvalues --   -0.38802  -0.37055  -0.35581  -0.35111  -0.33789
  Beta  occ. eigenvalues --   -0.33134  -0.32148  -0.30114  -0.29123  -0.28594
  Beta  occ. eigenvalues --   -0.28007  -0.26663  -0.25589  -0.25281  -0.24395
  Beta  occ. eigenvalues --   -0.23686  -0.21292  -0.16765  -0.15790  -0.13040
  Beta  occ. eigenvalues --   -0.12558
  Beta virt. eigenvalues --    0.06975   0.07489   0.08051   0.08485   0.09207
  Beta virt. eigenvalues --    0.09949   0.10201   0.10742   0.11332   0.11744
  Beta virt. eigenvalues --    0.12028   0.12398   0.12876   0.13679   0.14023

 Mulliken charges and spin densities:
               1          2
     1  C   -0.614369  -0.101394
     2  C    0.965950   0.233505
     3  C   -1.302201  -0.027507
     4  C    0.123213  -0.267890
     5  C   -0.338129  -0.237755
     6  S   -0.293210  -0.117639
     7  N    0.078757   0.027890
     8  C    0.223292  -0.706137
     9  C    0.720334  -0.828891
    10  C    0.757030  -0.909512
    11  O   -0.338170  -0.006360
    12  N   -0.300509   0.081614
    13  H    0.139128   0.005202
    14  H    0.154475  -0.002866
    15  H    0.048664   0.071805
    16  H    0.221294   0.017891
    17  H    0.158195   0.041796
    18  H    0.269960  -0.092640
    19  H    0.121191   0.034801
    20  H   -0.145493   0.346311
    21  H    0.089316   0.120824
    22  H    0.265295  -0.007861
    23  H    0.095019   0.091595
    24  H    0.044904   0.093879
    25  H   -0.617449   0.828192
    26  H   -0.484951   0.696659
    27  H   -0.718509   1.009197
    28  H   -0.323027   0.605292
 Sum of Mulliken charges =  -1.00000   1.00000

 Dipole moment (field-independent basis, Debye):
    X=              9.6490    Y=              4.1770    Z=              4.1639  Tot=             11.3088
 Quadrupole moment (field-independent basis, Debye-Ang):
   XX=           -166.8699   YY=           -115.8145   ZZ=           -119.4661
   XY=            -11.5321   XZ=            -11.5080   YZ=             -6.8020

 Summary of Natural Population Analysis:

                                       Natural Population
                Natural  -----------------------------------------------
    Atom  No    Charge         Core      Valence    Rydberg      Total
 -----------------------------------------------------------------------
      C    1   -0.28979      0.99963     2.28424    0.00592     3.28979
      C    2   -0.15416      0.99956     2.14359    0.01101     3.15416
      C    3   -0.01683      0.99954     2.00152    0.01577     3.01683
      C    4   -0.20490      0.99960     2.19489    0.01041     3.20490
      C    5   -0.23849      0.99960     2.22957    0.00932     3.23849
      S    6    0.06244      4.99963     2.92086    0.01707     7.93756
      N    7   -0.34753      0.99973     2.83613    0.01168     3.84753
      C    8   -0.08284      0.99963     2.07010    0.01312     3.08284
      C    9   -0.24895      0.99958     2.23917    0.01020     3.24895
      C   10    0.33915      0.99970     1.63747    0.02368     2.66085
      O   11   -0.33553      0.99987     3.32966    0.00600     4.33553
      N   12   -0.39832      0.99971     2.88989    0.00872     3.89832
      H   13    0.09683      0.00000     0.40238    0.00079     0.40317
      H   14    0.10824      0.00000     0.39057    0.00119     0.39176
      H   15    0.09960      0.00000     0.39917    0.00124     0.40040
      H   16    0.09659      0.00000     0.40197    0.00144     0.40341
      H   17    0.09359      0.00000     0.40449    0.00192     0.40641
      H   18    0.11328      0.00000     0.38498    0.00174     0.38672
      H   19    0.09791      0.00000     0.40093    0.00116     0.40209
      H   20    0.10125      0.00000     0.39710    0.00165     0.39875
      H   21    0.10251      0.00000     0.39623    0.00126     0.39749
      H   22    0.18679      0.00000     0.31101    0.00220     0.31321
      H   23    0.09804      0.00000     0.40094    0.00103     0.40196
      H   24    0.09099      0.00000     0.40792    0.00109     0.40901
      H   25    0.11655      0.00000     0.38136    0.00208     0.38345
      H   26    0.11016      0.00000     0.38697    0.00288     0.38984
      H   27    0.20682      0.00000     0.25264    0.04054     0.29318
      H   28    0.19661      0.00000     0.29967    0.00372     0.30339
 =======================================================================
   * Total *    0.00000     15.99578    34.79540    0.20882    51.00000

 Normal termination of Gaussian 16 at Wed Dec  9 18:01:59 2020.
