 Gaussian 16, Revision A.03,

 -----------------------------------------------------------
 # opt freq B3LYP/6-31G(d) empiricaldispersion=gd3bj scf=xqc
 -----------------------------------------------------------

 ------------------------------
 CID_61251945_JID_3183_neutraal
 ------------------------------
 Symbolic Z-matrix:
 Charge =  0 Multiplicity = 1

 SCF Done:  E(RB3LYP) =  -591.461605737     A.U. after   15 cycles
 SCF Done:  E(RB3LYP) =  -591.488803962     A.U. after   13 cycles
 SCF Done:  E(RB3LYP) =  -591.490505302     A.U. after   13 cycles
 SCF Done:  E(RB3LYP) =  -591.490965677     A.U. after   12 cycles
 SCF Done:  E(RB3LYP) =  -591.491145797     A.U. after   12 cycles
 SCF Done:  E(RB3LYP) =  -591.491559537     A.U. after   12 cycles
 SCF Done:  E(RB3LYP) =  -591.492093761     A.U. after   12 cycles
 SCF Done:  E(RB3LYP) =  -591.492643633     A.U. after   12 cycles
 SCF Done:  E(RB3LYP) =  -591.493151194     A.U. after   12 cycles
 SCF Done:  E(RB3LYP) =  -591.493661135     A.U. after   13 cycles
 SCF Done:  E(RB3LYP) =  -591.494607280     A.U. after   11 cycles
 SCF Done:  E(RB3LYP) =  -591.494608447     A.U. after   11 cycles
 SCF Done:  E(RB3LYP) =  -591.494611900     A.U. after   10 cycles
 SCF Done:  E(RB3LYP) =  -591.494612230     A.U. after    9 cycles
 SCF Done:  E(RB3LYP) =  -591.494612207     A.U. after    8 cycles
 SCF Done:  E(RB3LYP) =  -591.494612191     A.U. after    8 cycles
 Optimization completed.
    -- Stationary point found.
 Normal termination of Gaussian 16 at Wed Dec  9 22:41:52 2020.

 --------------------------------------------------------------------
 #N Geom=AllCheck Guess=TCheck SCRF=Check GenChk RB3LYP/6-31G(d) Freq
 --------------------------------------------------------------------

 Structure from the checkpoint file:  "JID_3183.chk"
 ------------------------------
 CID_61251945_JID_3183_neutraal
 ------------------------------
 Charge =  0 Multiplicity = 1

 SCF Done:  E(RB3LYP) =  -591.494612191     A.U. after    1 cycles

  Exact polarizability: 110.131  -1.977 116.100  -1.711   0.664  96.071
 Approx polarizability: 146.125  -4.103 172.504  -0.310   2.863 152.470

                      1                      2                      3
                      A                      A                      A
 Frequencies --     24.9798                41.6646                61.1805
 Red. masses --      6.9377                 6.3570                 5.1022
 Frc consts  --      0.0026                 0.0065                 0.0113
 IR Inten    --      1.9884                 2.5235                 0.9062

                      4                      5                      6
                      A                      A                      A
 Frequencies --     84.5426               175.0442               191.7009
 Red. masses --      4.7485                 2.9114                 2.7694
 Frc consts  --      0.0200                 0.0526                 0.0600
 IR Inten    --     10.3652                 3.2070                 2.6423

                      7                      8                      9
                      A                      A                      A
 Frequencies --    223.9759               240.5470               253.7869
 Red. masses --      5.4189                 4.7545                 1.2575
 Frc consts  --      0.1602                 0.1621                 0.0477
 IR Inten    --      1.6114                 4.4059                28.7700

                     10                     11                     12
                      A                      A                      A
 Frequencies --    287.1178               305.2606               346.8055
 Red. masses --      1.9321                 2.0283                 2.7867
 Frc consts  --      0.0938                 0.1114                 0.1975
 IR Inten    --     11.1244                 2.1453                17.1551

                     13                     14                     15
                      A                      A                      A
 Frequencies --    366.0559               382.4664               448.0672
 Red. masses --      2.6519                 4.8443                 2.3438
 Frc consts  --      0.2094                 0.4175                 0.2772
 IR Inten    --      0.1153                 2.5162                 3.7909

                     16                     17                     18
                      A                      A                      A
 Frequencies --    475.5829               498.4690               534.0216
 Red. masses --      2.3267                 6.4637                 3.2054
 Frc consts  --      0.3101                 0.9463                 0.5386
 IR Inten    --      0.3685                10.5267                 3.2079

                     19                     20                     21
                      A                      A                      A
 Frequencies --    580.2974               620.7887               691.7853
 Red. masses --      2.3651                 1.4961                 4.3421
 Frc consts  --      0.4693                 0.3397                 1.2243
 IR Inten    --     36.4587                47.7472                14.2407

                     22                     23                     24
                      A                      A                      A
 Frequencies --    717.0840               762.4899               788.2800
 Red. masses --      3.8263                 3.6605                 1.5171
 Frc consts  --      1.1592                 1.2539                 0.5554
 IR Inten    --      4.6614                19.5462                 1.7423

                     25                     26                     27
                      A                      A                      A
 Frequencies --    820.1330               891.6166               900.9031
 Red. masses --      2.4666                 2.2500                 2.6242
 Frc consts  --      0.9775                 1.0539                 1.2549
 IR Inten    --      6.9350                66.1961                55.3218

                     28                     29                     30
                      A                      A                      A
 Frequencies --    912.8809               939.4315               950.0564
 Red. masses --      3.8335                 1.9102                 1.3970
 Frc consts  --      1.8822                 0.9933                 0.7429
 IR Inten    --      6.7405                87.6010                11.7741

                     31                     32                     33
                      A                      A                      A
 Frequencies --    970.1447               996.2012              1056.6991
 Red. masses --      2.1244                 1.9617                 1.9965
 Frc consts  --      1.1780                 1.1470                 1.3134
 IR Inten    --     19.7217                 1.9163                 1.0683

                     34                     35                     36
                      A                      A                      A
 Frequencies --   1058.2521              1104.7625              1136.5038
 Red. masses --      1.5722                 2.0086                 2.4957
 Frc consts  --      1.0374                 1.4443                 1.8993
 IR Inten    --      2.5898                11.2299                 4.7268

                     37                     38                     39
                      A                      A                      A
 Frequencies --   1143.9329              1150.5605              1159.4036
 Red. masses --      2.1810                 2.1062                 1.4011
 Frc consts  --      1.6816                 1.6427                 1.1097
 IR Inten    --      5.8462                24.1078                 1.8128

                     40                     41                     42
                      A                      A                      A
 Frequencies --   1200.7932              1237.5867              1285.2723
 Red. masses --      1.5747                 1.3791                 1.6678
 Frc consts  --      1.3377                 1.2445                 1.6233
 IR Inten    --     10.2322                13.9322                80.5242

                     43                     44                     45
                      A                      A                      A
 Frequencies --   1298.1502              1317.9749              1341.2197
 Red. masses --      1.3069                 1.1991                 1.3801
 Frc consts  --      1.2976                 1.2272                 1.4627
 IR Inten    --      1.3476                 7.8068                 1.4581

                     46                     47                     48
                      A                      A                      A
 Frequencies --   1351.8118              1367.7351              1383.1805
 Red. masses --      1.3102                 1.6510                 1.3273
 Frc consts  --      1.4107                 1.8197                 1.4962
 IR Inten    --      5.1278                49.2385                30.2916

                     49                     50                     51
                      A                      A                      A
 Frequencies --   1388.7793              1398.0428              1400.1460
 Red. masses --      1.2726                 1.3688                 1.4445
 Frc consts  --      1.4461                 1.5763                 1.6684
 IR Inten    --      2.3768                 0.4052                 3.9345

                     52                     53                     54
                      A                      A                      A
 Frequencies --   1411.9045              1422.3346              1446.5696
 Red. masses --      1.3217                 1.5047                 1.4775
 Frc consts  --      1.5524                 1.7935                 1.8217
 IR Inten    --     15.5645                29.8974                 2.6344

                     55                     56                     57
                      A                      A                      A
 Frequencies --   1488.2636              1500.8813              1516.5787
 Red. masses --      1.0892                 1.5679                 1.0870
 Frc consts  --      1.4214                 2.0810                 1.4730
 IR Inten    --      4.4124                42.8042                 8.3011

                     58                     59                     60
                      A                      A                      A
 Frequencies --   1524.9760              1529.1295              1543.3565
 Red. masses --      1.0848                 1.1113                 1.0926
 Frc consts  --      1.4864                 1.5309                 1.5334
 IR Inten    --     15.2946                18.0117                 1.5174

                     61                     62                     63
                      A                      A                      A
 Frequencies --   1696.2073              1770.2664              2367.8844
 Red. masses --      1.0909                 7.2445                12.5698
 Frc consts  --      1.8492                13.3763                41.5240
 IR Inten    --     25.0054               273.7038                 0.1948

                     64                     65                     66
                      A                      A                      A
 Frequencies --   3011.2119              3024.0983              3043.8158
 Red. masses --      1.0738                 1.0802                 1.0710
 Frc consts  --      5.7366                 5.8205                 5.8464
 IR Inten    --      7.6750                31.8465                16.3852

                     67                     68                     69
                      A                      A                      A
 Frequencies --   3043.9037              3052.7966              3086.0796
 Red. masses --      1.0663                 1.0656                 1.0841
 Frc consts  --      5.8210                 5.8510                 6.0834
 IR Inten    --     37.0589                33.2834                15.8838

                     70                     71                     72
                      A                      A                      A
 Frequencies --   3089.6109              3093.6643              3097.1956
 Red. masses --      1.0787                 1.0855                 1.0979
 Frc consts  --      6.0669                 6.1212                 6.2053
 IR Inten    --     31.4501                15.3283                19.1662

                     73                     74                     75
                      A                      A                      A
 Frequencies --   3097.4488              3102.7952              3161.3165
 Red. masses --      1.0907                 1.0977                 1.0913
 Frc consts  --      6.1652                 6.2265                 6.4258
 IR Inten    --     27.3563                54.5752                 5.1751

                     76                     77                     78
                      A                      A                      A
 Frequencies --   3442.0837              3528.0966              3588.7674
 Red. masses --      1.0497                 1.0913                 1.0760
 Frc consts  --      7.3275                 8.0035                 8.1647
 IR Inten    --      3.0044                 1.3138                28.7088

 - Thermochemistry -
 -------------------
 Temperature   298.150 Kelvin.  Pressure   1.00000 Atm.
 Atom     1 has atomic number  6 and mass  12.00000

 Molecular mass:   181.12151 amu.
 Principal axes and moments of inertia in atomic units:
                           1         2         3
     Eigenvalues --  1888.167342723.302913736.42475
           X            0.99989  -0.01270  -0.00827
           Y            0.01261   0.99986  -0.01094
           Z            0.00841   0.01084   0.99991
 This molecule is an asymmetric top.
 Rotational symmetry number  1.
 Warning -- assumption of classical behavior for rotation
           may cause significant error
 Rotational temperatures (Kelvin)      0.04587     0.03180     0.02318
 Rotational constants (GHZ):           0.95582     0.66270     0.48301
 Zero-point vibrational energy     639675.6 (Joules/Mol)
                                  152.88613 (Kcal/Mol)
 Warning -- explicit consideration of  20 degrees of freedom as
           vibrations may cause significant error
 Vibrational temperatures:     35.94    59.95    88.03   121.64   251.85
          (Kelvin)            275.81   322.25   346.09   365.14   413.10
                              439.20   498.98   526.67   550.28   644.67
                              684.26   717.19   768.34   834.92   893.18
                              995.32  1031.72  1097.05  1134.16  1179.99
                             1282.84  1296.20  1313.43  1351.63  1366.92
                             1395.82  1433.31  1520.35  1522.59  1589.51
                             1635.18  1645.86  1655.40  1668.12  1727.67
                             1780.61  1849.22  1867.75  1896.27  1929.72
                             1944.96  1967.87  1990.09  1998.14  2011.47
                             2014.50  2031.42  2046.42  2081.29  2141.28
                             2159.43  2182.02  2194.10  2200.08  2220.55
                             2440.46  2547.02  3406.86  4332.46  4351.00
                             4379.37  4379.50  4392.29  4440.18  4445.26
                             4451.09  4456.17  4456.54  4464.23  4548.43
                             4952.39  5076.14  5163.44

 Zero-point correction=                           0.243640 (Hartree/Particle)
 Thermal correction to Energy=                    0.256746
 Thermal correction to Enthalpy=                  0.257690
 Thermal correction to Gibbs Free Energy=         0.202955
 Sum of electronic and zero-point Energies=           -591.250973
 Sum of electronic and thermal Energies=              -591.237866
 Sum of electronic and thermal Enthalpies=            -591.236922
 Sum of electronic and thermal Free Energies=         -591.291657

                     E (Thermal)             CV                S
                      KCal/Mol        Cal/Mol-Kelvin    Cal/Mol-Kelvin
 Total                  161.110             49.189            115.200
 Electronic               0.000              0.000              0.000
 Translational            0.889              2.981             41.489
 Rotational               0.889              2.981             31.330
 Vibrational            159.333             43.228             42.381
 Vibration     1          0.593              1.985              6.193
 Vibration     2          0.594              1.981              5.178
 Vibration     3          0.597              1.973              4.419
 Vibration     4          0.601              1.960              3.783
 Vibration     5          0.627              1.873              2.381
 Vibration     6          0.634              1.851              2.211
 Vibration     7          0.649              1.805              1.927
 Vibration     8          0.658              1.778              1.799
 Vibration     9          0.665              1.756              1.704
 Vibration    10          0.684              1.698              1.491
 Vibration    11          0.696              1.664              1.388
 Vibration    12          0.725              1.582              1.181
 Vibration    13          0.739              1.542              1.096
 Vibration    14          0.752              1.508              1.029
 Vibration    15          0.807              1.365              0.802
 Vibration    16          0.832              1.304              0.722
 Vibration    17          0.854              1.253              0.662
 Vibration    18          0.889              1.175              0.578
 Vibration    19          0.937              1.074              0.485
 Vibration    20          0.981              0.988              0.415

 Optimization completed.
    -- Stationary point found.
 Normal termination of Gaussian 16 at Wed Dec  9 22:50:57 2020.

 ----------------------------------------------------------------------
 # B3LYP/6-311++G(d,p) empiricaldispersion=gd3bj scf=xqc pop=npa geom=c
 heck
 ----------------------------------------------------------------------

 --------------------------------------
 CID_61251945_JID_3183_Energie_neutraal
 --------------------------------------
 Structure from the checkpoint file:  "JID_3183.chk"
 Charge =  0 Multiplicity = 1

 SCF Done:  E(RB3LYP) =  -591.673668446     A.U. after   14 cycles
 Normal termination of Gaussian 16 at Wed Dec  9 22:54:50 2020.

 ----------------------------------------------------------------------
 # B3LYP/6-311++G(d,p) empiricaldispersion=gd3bj scf=xqc pop=npa geom=c
 heck
 ----------------------------------------------------------------------

 ------------------------------------
 CID_61251945_JID_3183_Energie_kation
 ------------------------------------
 Structure from the checkpoint file:  "JID_3183.chk"
 Charge =  1 Multiplicity = 2

 SCF Done:  E(UB3LYP) =  -591.344038497     A.U. after   32 cycles
 Normal termination of Gaussian 16 at Wed Dec  9 23:07:20 2020.
 Gaussian 16:  ES64L-G16RevA.03 25-Dec-2016

 ----------------------------------------------------------------------
 # B3LYP/6-311++G(d,p) empiricaldispersion=gd3bj scf=xqc pop=npa geom=c
 heck
 ----------------------------------------------------------------------

 -----------------------------------
 CID_61251945_JID_3183_Energie_anion
 -----------------------------------
 Structure from the checkpoint file:  "JID_3183.chk"
 Charge = -1 Multiplicity = 2

                         Standard orientation:
 ---------------------------------------------------------------------
 Center     Atomic      Atomic             Coordinates (Angstroms)
 Number     Number       Type             X           Y           Z
 ---------------------------------------------------------------------
      1          6           0       -0.271336    0.019938    1.531696
      2          6           0       -1.314838    0.914360    0.834533
      3          6           0       -2.402240    0.130866    0.078677
      4          6           0       -1.765854   -0.900329   -0.857470
      5          6           0       -0.910162   -1.896135   -0.071865
      6          6           0        0.216413   -1.244706    0.773935
      7          6           0        1.549611   -1.246642    0.006948
      8          8           0        2.287868   -2.215472    0.130025
      9          7           0        1.947482   -0.261278   -0.881464
     10          6           0        1.417795    1.053092   -1.154787
     11          6           0        1.775586    2.076496   -0.149970
     12          7           0        2.053409    2.864803    0.654803
     13          7           0       -3.342323    0.971747   -0.671041
     14          1           0        0.579709    0.624899    1.862086
     15          1           0       -0.738710   -0.356260    2.450265
     16          1           0       -0.845678    1.613028    0.132553
     17          1           0       -1.784470    1.552807    1.594041
     18          1           0       -3.001509   -0.425800    0.814146
     19          1           0       -2.559763   -1.426339   -1.398033
     20          1           0       -1.161740   -0.388477   -1.622845
     21          1           0       -0.477955   -2.655995   -0.731569
     22          1           0       -1.571491   -2.432320    0.621501
     23          1           0        0.468924   -1.975785    1.545775
     24          1           0        2.884576   -0.445963   -1.219513
     25          1           0        1.798214    1.380175   -2.128014
     26          1           0        0.332338    1.016027   -1.244700
     27          1           0       -3.782413    1.638938   -0.037303
     28          1           0       -2.822798    1.536307   -1.344853
 ---------------------------------------------------------------------

 SCF Done:  E(UB3LYP) =  -591.668363375     A.U. after   31 cycles

 The electronic state is 2-A.
 Alpha  occ. eigenvalues --  -18.99814 -14.25273 -14.22391 -14.19781 -10.18655
 Alpha  occ. eigenvalues --  -10.15624 -10.12073 -10.10477 -10.09684 -10.08488
 Alpha  occ. eigenvalues --  -10.08402 -10.07344 -10.07322  -0.95305  -0.84446
 Alpha  occ. eigenvalues --   -0.81370  -0.79853  -0.73241  -0.66388  -0.65841
 Alpha  occ. eigenvalues --   -0.64343  -0.54252  -0.53128  -0.50531  -0.46972
 Alpha  occ. eigenvalues --   -0.44526  -0.41765  -0.40845  -0.38841  -0.37267
 Alpha  occ. eigenvalues --   -0.36772  -0.35663  -0.34055  -0.33177  -0.32037
 Alpha  occ. eigenvalues --   -0.30088  -0.29176  -0.28968  -0.28090  -0.27247
 Alpha  occ. eigenvalues --   -0.25934  -0.25023  -0.24360  -0.23285  -0.23005
 Alpha  occ. eigenvalues --   -0.22210  -0.17671  -0.16645  -0.15025   0.04007
 Alpha virt. eigenvalues --    0.05948   0.06823   0.08096   0.08737   0.09163
 Alpha virt. eigenvalues --    0.09549   0.10113   0.10407   0.11053   0.11671
 Alpha virt. eigenvalues --    0.11825   0.12377   0.12934   0.13439   0.13802

  Beta  occ. eigenvalues --  -18.99809 -14.25245 -14.22366 -14.19744 -10.18654
  Beta  occ. eigenvalues --  -10.15546 -10.12067 -10.10468 -10.09681 -10.08479
  Beta  occ. eigenvalues --  -10.08392 -10.07320 -10.07300  -0.95293  -0.84390
  Beta  occ. eigenvalues --   -0.81322  -0.79799  -0.73209  -0.66278  -0.65800
  Beta  occ. eigenvalues --   -0.64281  -0.54204  -0.53077  -0.50468  -0.46906
  Beta  occ. eigenvalues --   -0.44458  -0.41653  -0.40765  -0.38788  -0.37217
  Beta  occ. eigenvalues --   -0.36736  -0.35626  -0.33996  -0.33146  -0.31995
  Beta  occ. eigenvalues --   -0.30061  -0.29147  -0.28938  -0.28051  -0.27201
  Beta  occ. eigenvalues --   -0.25892  -0.24935  -0.24322  -0.23249  -0.22959
  Beta  occ. eigenvalues --   -0.22182  -0.17641  -0.16628  -0.14987
  Beta virt. eigenvalues --    0.06273   0.07372   0.07679   0.08388   0.08860
  Beta virt. eigenvalues --    0.09570   0.10040   0.10387   0.10757   0.11216
  Beta virt. eigenvalues --    0.11864   0.12024   0.12848   0.13305   0.13603

 Mulliken charges and spin densities:
               1          2
     1  C    0.304202  -1.015037
     2  C   -0.660222   0.707516
     3  C    0.989867  -1.850099
     4  C   -0.163347   0.113676
     5  C   -0.045820  -0.424896
     6  C    0.556405  -0.075646
     7  C   -0.505207   0.187189
     8  O   -0.320059   0.012701
     9  N   -0.472929   0.260947
    10  C    0.917442  -0.982013
    11  C    0.576312  -0.546334
    12  N   -0.320883   0.009028
    13  N   -0.450173   0.203054
    14  H    0.171275   0.005036
    15  H   -0.002864   0.165723
    16  H   -0.101080   0.227195
    17  H   -0.165285   0.351871
    18  H   -0.011592   0.186452
    19  H    0.021121   0.172974
    20  H   -0.461495   0.626391
    21  H    0.173904   0.028552
    22  H    0.047515   0.088523
    23  H    0.189724   0.060169
    24  H   -0.024884   0.365065
    25  H   -1.604740   1.873965
    26  H    0.487605  -0.348306
    27  H   -0.120256   0.353418
    28  H   -0.004533   0.242885
 Sum of Mulliken charges =  -1.00000   1.00000

 Dipole moment (field-independent basis, Debye):
    X=             -2.5406    Y=             -4.0321    Z=              4.5102  Tot=              6.5616
 Quadrupole moment (field-independent basis, Debye-Ang):
   XX=           -142.2002   YY=           -126.4640   ZZ=           -122.0004
   XY=              1.3632   XZ=              4.9574   YZ=              3.8941

 Summary of Natural Population Analysis:

                                       Natural Population
                Natural  -----------------------------------------------
    Atom  No    Charge         Core      Valence    Rydberg      Total
 -----------------------------------------------------------------------
      C    1   -0.19648      0.99961     2.18834    0.00853     3.19648
      C    2   -0.19749      0.99960     2.18816    0.00973     3.19749
      C    3   -0.01254      0.99958     2.00096    0.01200     3.01254
      C    4   -0.19414      0.99960     2.18527    0.00927     3.19414
      C    5   -0.18289      0.99960     2.17580    0.00749     3.18289
      C    6   -0.14969      0.99953     2.14010    0.01006     3.14969
      C    7    0.35341      0.99962     1.62304    0.02392     2.64659
      O    8   -0.32165      0.99988     3.31605    0.00572     4.32165
      N    9   -0.31623      0.99967     2.80450    0.01205     3.81623
      C   10   -0.15029      0.99951     2.13525    0.01553     3.15029
      C   11    0.15533      0.99964     1.82989    0.01513     2.84467
      N   12   -0.17655      0.99979     2.66575    0.01101     3.67655
      N   13   -0.41888      0.99977     2.90886    0.01025     3.91888
      H   14    0.10885      0.00000     0.38974    0.00142     0.39115
      H   15    0.10002      0.00000     0.39890    0.00108     0.39998
      H   16    0.09230      0.00000     0.40516    0.00254     0.40770
      H   17    0.10221      0.00000     0.39637    0.00142     0.39779
      H   18    0.08564      0.00000     0.41264    0.00172     0.41436
      H   19    0.10612      0.00000     0.39274    0.00113     0.39388
      H   20    0.09383      0.00000     0.40453    0.00164     0.40617
      H   21    0.10583      0.00000     0.39324    0.00092     0.39417
      H   22    0.09592      0.00000     0.40289    0.00119     0.40408
      H   23    0.11555      0.00000     0.38334    0.00111     0.38445
      H   24    0.20090      0.00000     0.29602    0.00308     0.29910
      H   25    0.13337      0.00000     0.34944    0.01719     0.36663
      H   26    0.11969      0.00000     0.37652    0.00378     0.38031
      H   27    0.17493      0.00000     0.32303    0.00204     0.32507
      H   28    0.17291      0.00000     0.32472    0.00237     0.32709
 =======================================================================
   * Total *    0.00000     12.99541    35.81127    0.19332    49.00000

 Normal termination of Gaussian 16 at Wed Dec  9 23:19:02 2020.
