 Gaussian 16, Revision A.03,

 -----------------------------------------------------------
 # opt freq B3LYP/6-31G(d) empiricaldispersion=gd3bj scf=xqc
 -----------------------------------------------------------

 -------------------------------
 CID_150527061_JID_1924_neutraal
 -------------------------------
 Symbolic Z-matrix:
 Charge =  0 Multiplicity = 1

 SCF Done:  E(RB3LYP) =  -478.084680893     A.U. after   15 cycles
 SCF Done:  E(RB3LYP) =  -478.086516342     A.U. after   14 cycles
 SCF Done:  E(RB3LYP) =  -478.087892968     A.U. after   13 cycles
 SCF Done:  E(RB3LYP) =  -478.088139290     A.U. after   12 cycles
 SCF Done:  E(RB3LYP) =  -478.088215874     A.U. after   12 cycles
 SCF Done:  E(RB3LYP) =  -478.088295244     A.U. after   11 cycles
 SCF Done:  E(RB3LYP) =  -478.088332929     A.U. after   11 cycles
 SCF Done:  E(RB3LYP) =  -478.088363761     A.U. after   12 cycles
 SCF Done:  E(RB3LYP) =  -478.088377363     A.U. after   12 cycles
 SCF Done:  E(RB3LYP) =  -478.088401628     A.U. after   12 cycles
 SCF Done:  E(RB3LYP) =  -478.088597954     A.U. after   11 cycles
 SCF Done:  E(RB3LYP) =  -478.088598512     A.U. after    8 cycles
 SCF Done:  E(RB3LYP) =  -478.088598790     A.U. after    9 cycles
 SCF Done:  E(RB3LYP) =  -478.088598872     A.U. after    8 cycles
 SCF Done:  E(RB3LYP) =  -478.088598903     A.U. after    7 cycles
 Optimization completed.
    -- Stationary point found.

 1\1\GINC-NODE311\FOpt\RB3LYP\6-31G(d)\C8H15N3\VSC10255\08-Dec-2020\0\\
 # opt freq B3LYP/6-31G(d) empiricaldispersion=gd3bj scf=xqc\\CID_15052
 7061_JID_1924_neutraal\\0,1\C,0.9711356303,-0.0916372562,0.2080669149\
 C,0.5579776144,-0.6404980703,-1.1624139295\C,1.3690800577,-1.854346253
 9,-1.6571267865\C,0.8704320739,-3.211385034,-1.1742690828\C,-0.3314880
 666,-3.7892750104,-1.8970504425\C,1.0379996113,-4.3914198548,-2.102475
 5856\N,1.7516245942,-4.2105176856,-3.3613310026\N,1.1674907331,-4.6293
 526623,-4.3684058618\N,0.7338824366,-4.9641660947,-5.370002317\C,0.994

 Normal termination of Gaussian 16 at Tue Dec  8 21:42:33 2020.

 --------------------------------------------------------------------
 #N Geom=AllCheck Guess=TCheck SCRF=Check GenChk RB3LYP/6-31G(d) Freq
 --------------------------------------------------------------------

 Structure from the checkpoint file:  "JID_1924.chk"
 -------------------------------
 CID_150527061_JID_1924_neutraal
 -------------------------------
 Charge =  0 Multiplicity = 1

 SCF Done:  E(RB3LYP) =  -478.088598903     A.U. after    1 cycles

  Exact polarizability: 132.889  -9.499  92.914   4.401  -0.746  82.338
 Approx polarizability: 195.696 -27.387 132.530  17.436  -6.493 129.433

                      1                      2                      3
                      A                      A                      A
 Frequencies --     11.5486                42.2255                85.8261
 Red. masses --      7.3650                 2.2478                 2.6798
 Frc consts  --      0.0006                 0.0024                 0.0116
 IR Inten    --      0.0298                 0.0743                 0.0646

                      4                      5                      6
                      A                      A                      A
 Frequencies --    106.5485               131.2002               164.0787
 Red. masses --      3.6578                 2.9412                 2.8158
 Frc consts  --      0.0245                 0.0298                 0.0447
 IR Inten    --      0.2634                 0.4969                 1.2344

                      7                      8                      9
                      A                      A                      A
 Frequencies --    196.2380               226.1617               248.8350
 Red. masses --      1.4664                 2.1493                 1.7972
 Frc consts  --      0.0333                 0.0648                 0.0656
 IR Inten    --      0.6543                 1.4681                 0.9535

                     10                     11                     12
                      A                      A                      A
 Frequencies --    260.4657               301.4053               372.7525
 Red. masses --      1.8202                 2.2194                 2.2645
 Frc consts  --      0.0728                 0.1188                 0.1854
 IR Inten    --      0.1002                 0.3171                 0.1921

                     13                     14                     15
                      A                      A                      A
 Frequencies --    401.7459               452.3652               464.5255
 Red. masses --      2.5885                 2.2903                 2.9939
 Frc consts  --      0.2462                 0.2761                 0.3806
 IR Inten    --      1.1381                 0.8104                 2.3974

                     16                     17                     18
                      A                      A                      A
 Frequencies --    570.7263               572.3083               643.6619
 Red. masses --      3.5438                 8.7049                 3.3961
 Frc consts  --      0.6801                 1.6799                 0.8290
 IR Inten    --      2.8054                 8.0262                 3.3068

                     19                     20                     21
                      A                      A                      A
 Frequencies --    693.4983               791.0618               799.4584
 Red. masses --      2.4504                 1.2565                 1.3147
 Frc consts  --      0.6944                 0.4633                 0.4951
 IR Inten    --      9.9361                 2.1998                 9.7682

                     22                     23                     24
                      A                      A                      A
 Frequencies --    832.4746               877.2484               905.5242
 Red. masses --      2.4922                 2.1007                 1.6603
 Frc consts  --      1.0176                 0.9525                 0.8021
 IR Inten    --      1.0653                 5.6325                 1.1071

                     25                     26                     27
                      A                      A                      A
 Frequencies --    913.3933               929.9287               992.3910
 Red. masses --      1.9309                 1.6254                 2.0589
 Frc consts  --      0.9491                 0.8282                 1.1947
 IR Inten    --      6.0024                 2.5041                 4.4312

                     28                     29                     30
                      A                      A                      A
 Frequencies --   1019.6264              1033.5567              1069.3814
 Red. masses --      2.6357                 1.7763                 1.3901
 Frc consts  --      1.6144                 1.1180                 0.9366
 IR Inten    --     10.2146                 3.2240                 4.8846

                     31                     32                     33
                      A                      A                      A
 Frequencies --   1073.0481              1088.2471              1111.7672
 Red. masses --      2.1123                 1.9863                 1.6683
 Frc consts  --      1.4330                 1.3860                 1.2149
 IR Inten    --      0.2832                 1.3602                 1.8765

                     34                     35                     36
                      A                      A                      A
 Frequencies --   1131.1310              1136.6147              1153.9423
 Red. masses --      1.4690                 1.8472                 1.9030
 Frc consts  --      1.1073                 1.4060                 1.4930
 IR Inten    --      0.7444                 1.9384                 1.3671

                     37                     38                     39
                      A                      A                      A
 Frequencies --   1232.7119              1283.6043              1302.9624
 Red. masses --      1.6301                 1.6548                 1.3637
 Frc consts  --      1.4595                 1.6064                 1.3640
 IR Inten    --      2.7168                 4.8566                26.4969

                     40                     41                     42
                      A                      A                      A
 Frequencies --   1333.6081              1335.7497              1358.6815
 Red. masses --      2.5129                 1.3268                 1.8977
 Frc consts  --      2.6332                 1.3948                 2.0640
 IR Inten    --    132.8785                 8.2729                13.7433

                     43                     44                     45
                      A                      A                      A
 Frequencies --   1375.5802              1395.9904              1405.8543
 Red. masses --      1.3809                 1.4197                 1.6092
 Frc consts  --      1.5395                 1.6301                 1.8739
 IR Inten    --      6.3901                 1.8988                10.1996

                     46                     47                     48
                      A                      A                      A
 Frequencies --   1430.9766              1441.7626              1445.6233
 Red. masses --      1.5982                 1.2539                 1.3360
 Frc consts  --      1.9282                 1.5357                 1.6450
 IR Inten    --     11.4105                 4.5565                12.6119

                     49                     50                     51
                      A                      A                      A
 Frequencies --   1508.9677              1516.8491              1519.6859
 Red. masses --      1.3188                 1.0708                 1.0611
 Frc consts  --      1.7692                 1.4516                 1.4438
 IR Inten    --      9.7518                 2.1398                 0.0668

                     52                     53                     54
                      A                      A                      A
 Frequencies --   1521.0262              1528.7992              1538.0977
 Red. masses --      1.0661                 1.0580                 1.0606
 Frc consts  --      1.4533                 1.4569                 1.4783
 IR Inten    --      4.3563                 0.3109                 6.2067

                     55                     56                     57
                      A                      A                      A
 Frequencies --   1539.9418              1544.0992              2262.0556
 Red. masses --      1.0499                 1.0751                13.7396
 Frc consts  --      1.4669                 1.5102                41.4221
 IR Inten    --      9.5772                 6.1229               574.1569

                     58                     59                     60
                      A                      A                      A
 Frequencies --   3035.4062              3037.7614              3045.8985
 Red. masses --      1.0613                 1.0652                 1.0643
 Frc consts  --      5.7614                 5.7915                 5.8174
 IR Inten    --     23.2623                27.7970                 5.7812

                     61                     62                     63
                      A                      A                      A
 Frequencies --   3049.3718              3053.6745              3069.5089
 Red. masses --      1.0413                 1.0405                 1.0975
 Frc consts  --      5.7049                 5.7168                 6.0926
 IR Inten    --     18.0250                29.2557                33.8081

                     64                     65                     66
                      A                      A                      A
 Frequencies --   3074.6726              3095.0410              3109.0026
 Red. masses --      1.0963                 1.0959                 1.1016
 Frc consts  --      6.1062                 6.1852                 6.2738
 IR Inten    --     34.3077                26.1623                46.4529

                     67                     68                     69
                      A                      A                      A
 Frequencies --   3117.9053              3127.0671              3133.0970
 Red. masses --      1.1023                 1.1015                 1.0989
 Frc consts  --      6.3135                 6.3462                 6.3558
 IR Inten    --     38.2029                50.8915                31.0650

                     70                     71                     72
                      A                      A                      A
 Frequencies --   3137.0911              3143.2592              3223.5969
 Red. masses --      1.0847                 1.0577                 1.1176
 Frc consts  --      6.2896                 6.1570                 6.8426
 IR Inten    --     23.9366                 8.6872                 9.9276

 - Thermochemistry -
 -------------------
 Temperature   298.150 Kelvin.  Pressure   1.00000 Atm.
 Atom     1 has atomic number  6 and mass  12.00000

 Molecular mass:   153.12660 amu.
 Principal axes and moments of inertia in atomic units:
                           1         2         3
     Eigenvalues --   995.572322937.919013427.69803
           X            0.99988   0.01066   0.01086
           Y           -0.01059   0.99992  -0.00633
           Z           -0.01092   0.00621   0.99992
 This molecule is an asymmetric top.
 Rotational symmetry number  1.
 Warning -- assumption of classical behavior for rotation
           may cause significant error
 Rotational temperatures (Kelvin)      0.08700     0.02948     0.02527
 Rotational constants (GHZ):           1.81277     0.61429     0.52652
 Zero-point vibrational energy     598610.7 (Joules/Mol)
                                  143.07139 (Kcal/Mol)
 Warning -- explicit consideration of  17 degrees of freedom as
           vibrations may cause significant error
 Vibrational temperatures:     16.62    60.75   123.48   153.30   188.77
          (Kelvin)            236.07   282.34   325.40   358.02   374.75
                              433.65   536.31   578.02   650.85   668.35
                              821.15   823.42   926.09   997.79  1138.16
                             1150.24  1197.75  1262.16  1302.85  1314.17
                             1337.96  1427.83  1467.01  1487.06  1538.60
                             1543.88  1565.74  1599.58  1627.45  1635.34
                             1660.27  1773.60  1846.82  1874.67  1918.76
                             1921.85  1954.84  1979.15  2008.52  2022.71
                             2058.86  2074.37  2079.93  2171.07  2182.41
                             2186.49  2188.42  2199.60  2212.98  2215.63
                             2221.61  3254.59  4367.27  4370.66  4382.37
                             4387.37  4393.56  4416.34  4423.77  4453.07
                             4473.16  4485.97  4499.15  4507.83  4513.57
                             4522.45  4638.04

 Zero-point correction=                           0.227999 (Hartree/Particle)
 Thermal correction to Energy=                    0.240468
 Thermal correction to Enthalpy=                  0.241412
 Thermal correction to Gibbs Free Energy=         0.187534
 Sum of electronic and zero-point Energies=           -477.860600
 Sum of electronic and thermal Energies=              -477.848131
 Sum of electronic and thermal Enthalpies=            -477.847187
 Sum of electronic and thermal Free Energies=         -477.901065

                     E (Thermal)             CV                S
                      KCal/Mol        Cal/Mol-Kelvin    Cal/Mol-Kelvin
 Total                  150.896             45.022            113.396
 Electronic               0.000              0.000              0.000
 Translational            0.889              2.981             40.988
 Rotational               0.889              2.981             30.684
 Vibrational            149.118             39.060             41.724
 Vibration     1          0.593              1.987              7.725
 Vibration     2          0.595              1.980              5.152
 Vibration     3          0.601              1.959              3.753
 Vibration     4          0.605              1.944              3.331
 Vibration     5          0.612              1.922              2.928
 Vibration     6          0.623              1.887              2.502
 Vibration     7          0.636              1.845              2.168
 Vibration     8          0.650              1.801              1.909
 Vibration     9          0.662              1.765              1.739
 Vibration    10          0.669              1.745              1.659
 Vibration    11          0.693              1.671              1.409
 Vibration    12          0.744              1.528              1.068
 Vibration    13          0.767              1.466              0.956
 Vibration    14          0.811              1.356              0.789
 Vibration    15          0.822              1.329              0.753
 Vibration    16          0.927              1.095              0.503
 Vibration    17          0.929              1.091              0.500

 Optimization completed.
    -- Stationary point found.

 1\1\GINC-NODE311\Freq\RB3LYP\6-31G(d)\C8H15N3\VSC10255\08-Dec-2020\0\\
 #N Geom=AllCheck Guess=TCheck SCRF=Check GenChk RB3LYP/6-31G(d) Freq\\
 CID_150527061_JID_1924_neutraal\\0,1\C,0.9711356303,-0.0916372562,0.20
 80669149\C,0.5579776144,-0.6404980703,-1.1624139295\C,1.3690800577,-1.
 8543462539,-1.6571267865\C,0.8704320739,-3.211385034,-1.1742690828\C,-
 0.3314880666,-3.7892750104,-1.8970504425\C,1.0379996113,-4.3914198548,
 -2.1024755856\N,1.7516245942,-4.2105176856,-3.3613310026\N,1.167490733
 1,-4.6293526623,-4.3684058618\N,0.7338824366,-4.9641660947,-5.37000231

 Normal termination of Gaussian 16 at Tue Dec  8 21:48:01 2020.

 ----------------------------------------------------------------------
 # B3LYP/6-311++G(d,p) empiricaldispersion=gd3bj scf=xqc pop=npa geom=c
 heck
 ----------------------------------------------------------------------

 ---------------------------------------
 CID_150527061_JID_1924_Energie_neutraal
 ---------------------------------------
 Structure from the checkpoint file:  "JID_1924.chk"
 Charge =  0 Multiplicity = 1

 SCF Done:  E(RB3LYP) =  -478.219684333     A.U. after   14 cycles
 Normal termination of Gaussian 16 at Tue Dec  8 21:51:23 2020.

 ----------------------------------------------------------------------
 # B3LYP/6-311++G(d,p) empiricaldispersion=gd3bj scf=xqc pop=npa geom=c
 heck
 ----------------------------------------------------------------------

 -------------------------------------
 CID_150527061_JID_1924_Energie_kation
 -------------------------------------
 Structure from the checkpoint file:  "JID_1924.chk"
 Charge =  1 Multiplicity = 2

 SCF Done:  E(UB3LYP) =  -477.888800504     A.U. after   25 cycles
 Normal termination of Gaussian 16 at Tue Dec  8 21:55:53 2020.
 Gaussian 16:  ES64L-G16RevA.03 25-Dec-2016

 ------------------------------------
 CID_150527061_JID_1924_Energie_anion
 ------------------------------------
 Structure from the checkpoint file:  "JID_1924.chk"
 Charge = -1 Multiplicity = 2

                         Standard orientation:
 ---------------------------------------------------------------------
 Center     Atomic      Atomic             Coordinates (Angstroms)
 Number     Number       Type             X           Y           Z
 ---------------------------------------------------------------------
      1          6           0       -3.257610   -1.291542   -0.125941
      2          6           0       -1.812141   -1.753433    0.091872
      3          6           0       -0.731595   -0.856154   -0.543240
      4          6           0       -0.282539    0.325126    0.308980
      5          6           0        0.701249    0.022978    1.423363
      6          6           0        1.156941    0.768109    0.191535
      7          7           0        2.020835    0.125836   -0.792271
      8          7           0        3.106298   -0.282051   -0.360723
      9          7           0        4.129664   -0.708878   -0.088966
     10          6           0       -1.280047    1.448488    0.568495
     11          6           0       -1.813463    2.109566   -0.705317
     12          1           0       -3.462116   -0.322308    0.338367
     13          1           0       -3.965736   -2.013841    0.295863
     14          1           0       -3.478038   -1.197950   -1.196325
     15          1           0       -1.609307   -1.855261    1.166533
     16          1           0       -1.711935   -2.761155   -0.331288
     17          1           0        0.154504   -1.462531   -0.756196
     18          1           0       -1.078514   -0.495084   -1.520376
     19          1           0        0.633713    0.572672    2.358506
     20          1           0        1.035378   -1.005848    1.531054
     21          1           0        1.351006    1.835813    0.286421
     22          1           0       -2.111739    1.065565    1.172112
     23          1           0       -0.790552    2.210118    1.190164
     24          1           0       -2.400507    1.409898   -1.308511
     25          1           0       -2.459015    2.960517   -0.462604
     26          1           0       -0.989489    2.476232   -1.328469
 ---------------------------------------------------------------------

 SCF Done:  E(UB3LYP) =  -478.206525110     A.U. after   33 cycles
 SCF Done:  E(UB3LYP) =  -478.206525110     a.u. after    1 cycles

 The electronic state is 2-A.
 Alpha  occ. eigenvalues --  -14.34591 -14.24913 -14.23655 -10.10663 -10.08139
 Alpha  occ. eigenvalues --  -10.06943 -10.06260 -10.06234 -10.05902 -10.05255
 Alpha  occ. eigenvalues --  -10.05113  -1.01355  -0.85950  -0.76917  -0.67763
 Alpha  occ. eigenvalues --   -0.65278  -0.58916  -0.55397  -0.52592  -0.49460
 Alpha  occ. eigenvalues --   -0.45033  -0.41804  -0.39117  -0.38856  -0.36698
 Alpha  occ. eigenvalues --   -0.34911  -0.33903  -0.33180  -0.31760  -0.31323
 Alpha  occ. eigenvalues --   -0.30069  -0.29206  -0.26689  -0.25494  -0.24663
 Alpha  occ. eigenvalues --   -0.24193  -0.23518  -0.21599  -0.21088  -0.18475
 Alpha  occ. eigenvalues --   -0.16264  -0.13324   0.04844
 Alpha virt. eigenvalues --    0.06720   0.07260   0.08047   0.08933   0.09692
 Alpha virt. eigenvalues --    0.10131   0.10605   0.11455   0.11706   0.12168
 Alpha virt. eigenvalues --    0.12743   0.13223   0.14039   0.14358   0.15067

  Beta  occ. eigenvalues --  -14.34356 -14.24622 -14.23696 -10.10599 -10.08141
  Beta  occ. eigenvalues --  -10.06935 -10.06234 -10.06221 -10.05889 -10.05218
  Beta  occ. eigenvalues --  -10.05081  -1.00912  -0.85753  -0.76869  -0.67727
  Beta  occ. eigenvalues --   -0.65230  -0.58860  -0.55203  -0.52518  -0.49385
  Beta  occ. eigenvalues --   -0.44920  -0.41744  -0.38977  -0.37974  -0.36547
  Beta  occ. eigenvalues --   -0.34786  -0.33802  -0.32629  -0.31694  -0.31213
  Beta  occ. eigenvalues --   -0.30021  -0.29164  -0.26624  -0.25388  -0.24627
  Beta  occ. eigenvalues --   -0.24152  -0.23457  -0.21463  -0.20908  -0.18338
  Beta  occ. eigenvalues --   -0.16069  -0.13254
  Beta virt. eigenvalues --    0.07214   0.08132   0.08377   0.08890   0.09674
  Beta virt. eigenvalues --    0.10228   0.10581   0.10936   0.11654   0.12124
  Beta virt. eigenvalues --    0.12410   0.13105   0.13653   0.14327   0.14620

 Mulliken charges and spin densities:
               1          2
     1  C    1.141546  -1.737428
     2  C   -1.541672   1.261113
     3  C    0.404840  -0.710919
     4  C   -0.221400   1.034732
     5  C    0.064170  -0.641516
     6  C    0.937530  -1.351683
     7  N   -0.356109   0.059458
     8  N    0.399579   0.119718
     9  N   -0.149593   0.034397
    10  C   -0.796094   0.489862
    11  C    1.040432  -1.744143
    12  H   -0.063051   0.199351
    13  H   -0.565853   0.704263
    14  H   -0.112726   0.248526
    15  H    0.074799   0.061502
    16  H   -0.100806   0.241544
    17  H    0.005664   0.167281
    18  H    0.049591   0.099841
    19  H   -0.014051   0.170378
    20  H    0.142410   0.021545
    21  H   -0.241732   0.451991
    22  H   -0.109674   0.254885
    23  H   -0.359942   0.493330
    24  H   -0.012069   0.154714
    25  H   -0.508845   0.654237
    26  H   -0.106944   0.263022
 Sum of Mulliken charges =  -1.00000   1.00000

 Dipole moment (field-independent basis, Debye):
    X=              2.3112    Y=             -1.6504    Z=              0.7175  Tot=              2.9291
 Quadrupole moment (field-independent basis, Debye-Ang):
   XX=           -143.9151   YY=           -112.2542   ZZ=            -92.9514
   XY=              1.2247   XZ=              2.3295   YZ=             -2.3312

 Summary of Natural Population Analysis:

                                       Natural Population
                Natural  -----------------------------------------------
    Atom  No    Charge         Core      Valence    Rydberg      Total
 -----------------------------------------------------------------------
      C    1   -0.28451      0.99966     2.27986    0.00499     3.28451
      C    2   -0.19064      0.99964     2.18218    0.00882     3.19064
      C    3   -0.18969      0.99957     2.18081    0.00932     3.18969
      C    4   -0.03724      0.99952     2.02427    0.01345     3.03724
      C    5   -0.20283      0.99957     2.19499    0.00828     3.20283
      C    6   -0.01623      0.99945     2.00335    0.01343     3.01623
      N    7   -0.20117      0.99968     2.68738    0.01411     3.70117
      N    8    0.13961      0.99970     2.34543    0.01527     3.36039
      N    9   -0.02825      0.99982     2.51459    0.01385     3.52825
      C   10   -0.18618      0.99959     2.17636    0.01023     3.18618
      C   11   -0.28622      0.99966     2.28105    0.00551     3.28622
      H   12    0.09710      0.00000     0.40157    0.00133     0.40290
      H   13    0.09824      0.00000     0.40036    0.00139     0.40176
      H   14    0.09462      0.00000     0.40411    0.00126     0.40538
      H   15    0.09359      0.00000     0.40528    0.00113     0.40641
      H   16    0.09352      0.00000     0.40555    0.00093     0.40648
      H   17    0.10733      0.00000     0.39119    0.00148     0.39267
      H   18    0.09985      0.00000     0.39881    0.00134     0.40015
      H   19    0.10412      0.00000     0.39490    0.00097     0.39588
      H   20    0.10441      0.00000     0.39443    0.00115     0.39559
      H   21    0.09958      0.00000     0.39881    0.00161     0.40042
      H   22    0.09759      0.00000     0.40103    0.00139     0.40241
      H   23    0.09789      0.00000     0.40025    0.00186     0.40211
      H   24    0.09713      0.00000     0.40171    0.00115     0.40287
      H   25    0.10019      0.00000     0.39862    0.00119     0.39981
      H   26    0.09819      0.00000     0.40048    0.00133     0.40181
 =======================================================================
   * Total *    0.00000     10.99586    30.86736    0.13678    42.00000

 Normal termination of Gaussian 16 at Tue Dec  8 22:01:37 2020.
