 Gaussian 16, Revision A.03,

 -----------------------------------------------------------
 # opt freq B3LYP/6-31G(d) empiricaldispersion=gd3bj scf=xqc
 -----------------------------------------------------------

 ------------------------------
 CID_64159883_JID_4404_neutraal
 ------------------------------
 Symbolic Z-matrix:
 Charge =  0 Multiplicity = 1

 SCF Done:  E(RB3LYP) =  -597.534162611     A.U. after   14 cycles
 SCF Done:  E(RB3LYP) =  -597.539052888     A.U. after   11 cycles
 SCF Done:  E(RB3LYP) =  -597.539704209     A.U. after   11 cycles
 SCF Done:  E(RB3LYP) =  -597.539919534     A.U. after   11 cycles
 SCF Done:  E(RB3LYP) =  -597.539975328     A.U. after   10 cycles
 SCF Done:  E(RB3LYP) =  -597.540042171     A.U. after   11 cycles
 SCF Done:  E(RB3LYP) =  -597.540057639     A.U. after    9 cycles
 SCF Done:  E(RB3LYP) =  -597.540062812     A.U. after    9 cycles
 SCF Done:  E(RB3LYP) =  -597.540063177     A.U. after    7 cycles
 SCF Done:  E(RB3LYP) =  -597.540063286     A.U. after    7 cycles
 SCF Done:  E(RB3LYP) =  -597.540065006     A.U. after    8 cycles
 SCF Done:  E(RB3LYP) =  -597.540065385     A.U. after    8 cycles
 SCF Done:  E(RB3LYP) =  -597.540065796     A.U. after    8 cycles
 SCF Done:  E(RB3LYP) =  -597.540065986     A.U. after    8 cycles
 SCF Done:  E(RB3LYP) =  -597.540066029     A.U. after    7 cycles
 Optimization completed.
    -- Stationary point found.
 Normal termination of Gaussian 16 at Thu Dec 10 09:43:12 2020.

 --------------------------------------------------------------------
 #N Geom=AllCheck Guess=TCheck SCRF=Check GenChk RB3LYP/6-31G(d) Freq
 --------------------------------------------------------------------

 Structure from the checkpoint file:  "JID_4404.chk"
 ------------------------------
 CID_64159883_JID_4404_neutraal
 ------------------------------
 Charge =  0 Multiplicity = 1

 SCF Done:  E(RB3LYP) =  -597.540066029     A.U. after    1 cycles

  Exact polarizability: 174.017  -7.393 135.574  -8.901  -4.244  86.225
 Approx polarizability: 229.525  -8.672 220.370 -15.029  -7.470 130.299

                      1                      2                      3
                      A                      A                      A
 Frequencies --     24.2097                36.8136                46.9594
 Red. masses --      1.0412                 4.3109                 3.8047
 Frc consts  --      0.0004                 0.0034                 0.0049
 IR Inten    --      0.1399                 1.3961                 0.8329

                      4                      5                      6
                      A                      A                      A
 Frequencies --     91.3540               147.5520               150.7418
 Red. masses --      3.3950                 1.2526                 2.8667
 Frc consts  --      0.0167                 0.0161                 0.0384
 IR Inten    --      0.5892                 0.2725                 2.1634

                      7                      8                      9
                      A                      A                      A
 Frequencies --    209.5099               213.0124               250.9225
 Red. masses --      2.8409                 2.6603                 3.1652
 Frc consts  --      0.0735                 0.0711                 0.1174
 IR Inten    --      2.2003                 0.4381                 1.9651

                     10                     11                     12
                      A                      A                      A
 Frequencies --    279.0527               309.6896               377.5165
 Red. masses --      2.9745                 3.2353                 3.8090
 Frc consts  --      0.1365                 0.1828                 0.3198
 IR Inten    --      0.7085                 0.5866                 0.7049

                     13                     14                     15
                      A                      A                      A
 Frequencies --    399.3020               429.9268               454.3283
 Red. masses --      2.2466                 2.2627                 2.6271
 Frc consts  --      0.2110                 0.2464                 0.3195
 IR Inten    --      0.1815                 2.3802                 2.6537

                     16                     17                     18
                      A                      A                      A
 Frequencies --    478.3292               497.6581               529.9817
 Red. masses --      3.0104                 1.2694                 3.6503
 Frc consts  --      0.4058                 0.1852                 0.6041
 IR Inten    --      2.1796                96.2170                10.8461

                     19                     20                     21
                      A                      A                      A
 Frequencies --    570.0304               585.0676               611.7198
 Red. masses --      4.0524                 3.7839                 2.4892
 Frc consts  --      0.7758                 0.7631                 0.5488
 IR Inten    --      1.4147                 0.5862                33.4527

                     22                     23                     24
                      A                      A                      A
 Frequencies --    718.7825               747.1869               749.3351
 Red. masses --      3.2888                 4.7876                 3.0135
 Frc consts  --      1.0011                 1.5748                 0.9970
 IR Inten    --     11.0563                 0.8106                 9.0914

                     25                     26                     27
                      A                      A                      A
 Frequencies --    788.9093               846.2231               864.6655
 Red. masses --      3.8711                 1.2990                 2.3232
 Frc consts  --      1.4195                 0.5481                 1.0234
 IR Inten    --      0.9780                19.2435                25.8352

                     28                     29                     30
                      A                      A                      A
 Frequencies --    868.0024               898.3255               910.4664
 Red. masses --      2.8897                 1.2901                 2.1196
 Frc consts  --      1.2828                 0.6134                 1.0352
 IR Inten    --      4.3957                 1.0625                18.6020

                     31                     32                     33
                      A                      A                      A
 Frequencies --    942.8861               971.1673               973.7006
 Red. masses --      2.9328                 2.1860                 1.5482
 Frc consts  --      1.5362                 1.2148                 0.8648
 IR Inten    --      5.9040                 2.3470                 5.7472

                     34                     35                     36
                      A                      A                      A
 Frequencies --    988.3697              1015.6973              1036.7406
 Red. masses --      2.5722                 1.4925                 1.8445
 Frc consts  --      1.4805                 0.9072                 1.1680
 IR Inten    --      7.1544                 2.7640                 9.4172

                     37                     38                     39
                      A                      A                      A
 Frequencies --   1048.6257              1064.7148              1073.6981
 Red. masses --      1.5216                 1.9185                 1.5180
 Frc consts  --      0.9858                 1.2814                 1.0310
 IR Inten    --      1.5656                16.8381                 3.2712

                     40                     41                     42
                      A                      A                      A
 Frequencies --   1075.7435              1098.8168              1123.0036
 Red. masses --      1.5138                 2.4170                 2.1302
 Frc consts  --      1.0321                 1.7194                 1.5829
 IR Inten    --      7.8150                47.3724                24.1696

                     43                     44                     45
                      A                      A                      A
 Frequencies --   1149.9291              1179.2996              1187.3383
 Red. masses --      2.0519                 1.3373                 1.4091
 Frc consts  --      1.5986                 1.0958                 1.1704
 IR Inten    --      0.6440                25.7877                 8.9655

                     46                     47                     48
                      A                      A                      A
 Frequencies --   1218.9583              1241.5285              1278.6640
 Red. masses --      1.1530                 1.5924                 1.8623
 Frc consts  --      1.0094                 1.4462                 1.7939
 IR Inten    --     46.2345                 7.0719                15.7210

                     49                     50                     51
                      A                      A                      A
 Frequencies --   1281.5544              1290.0831              1320.0217
 Red. masses --      3.5006                 1.3025                 1.3553
 Frc consts  --      3.3874                 1.2772                 1.3914
 IR Inten    --     14.4099                15.2934                 1.7829

                     52                     53                     54
                      A                      A                      A
 Frequencies --   1322.8239              1344.1743              1345.9042
 Red. masses --      1.4803                 2.3173                 2.2343
 Frc consts  --      1.5262                 2.4669                 2.3847
 IR Inten    --      2.3801                 0.6383                10.7403

                     55                     56                     57
                      A                      A                      A
 Frequencies --   1373.2072              1411.7874              1434.9144
 Red. masses --      1.4733                 1.5263                 1.3275
 Frc consts  --      1.6368                 1.7924                 1.6104
 IR Inten    --     17.4563                17.2108                18.4965

                     58                     59                     60
                      A                      A                      A
 Frequencies --   1441.9002              1445.4807              1457.5462
 Red. masses --      1.2493                 1.2454                 2.6577
 Frc consts  --      1.5303                 1.5332                 3.3265
 IR Inten    --      0.8594                 2.6866                 1.0606

                     61                     62                     63
                      A                      A                      A
 Frequencies --   1461.5830              1512.1881              1517.0473
 Red. masses --      1.3133                 1.0799                 1.0520
 Frc consts  --      1.6529                 1.4550                 1.4264
 IR Inten    --     65.4322                 3.7806                 8.0650

                     64                     65                     66
                      A                      A                      A
 Frequencies --   1518.0939              1521.7933              1527.0057
 Red. masses --      1.0531                 1.1543                 1.2082
 Frc consts  --      1.4299                 1.5750                 1.6599
 IR Inten    --      1.3233                 1.7573                20.2401

                     67                     68                     69
                      A                      A                      A
 Frequencies --   1537.4939              1551.8094              1634.7499
 Red. masses --      1.1110                 2.1987                 5.8099
 Frc consts  --      1.5474                 3.1196                 9.1478
 IR Inten    --      4.6844                24.0164                 3.7382

                     70                     71                     72
                      A                      A                      A
 Frequencies --   1677.1190              2953.1794              2958.7788
 Red. masses --      5.9615                 1.0735                 1.0817
 Frc consts  --      9.8794                 5.5159                 5.5796
 IR Inten    --      3.7915                73.3149                73.5727

                     73                     74                     75
                      A                      A                      A
 Frequencies --   3040.3855              3041.3070              3079.9989
 Red. masses --      1.0397                 1.0394                 1.0655
 Frc consts  --      5.6626                 5.6641                 5.9552
 IR Inten    --     50.0117                18.1603                17.3433

                     76                     77                     78
                      A                      A                      A
 Frequencies --   3092.3680              3095.3852              3112.7169
 Red. masses --      1.0970                 1.0971                 1.0904
 Frc consts  --      6.1805                 6.1932                 6.2246
 IR Inten    --     20.7497                23.6037                29.7649

                     79                     80                     81
                      A                      A                      A
 Frequencies --   3119.8465              3124.0536              3126.9242
 Red. masses --      1.0882                 1.1019                 1.1003
 Frc consts  --      6.2405                 6.3364                 6.3389
 IR Inten    --     55.6153                16.7610                19.8537

                     82                     83                     84
                      A                      A                      A
 Frequencies --   3139.2181              3164.4529              3178.0096
 Red. masses --      1.1034                 1.0896                 1.0890
 Frc consts  --      6.4068                 6.4283                 6.4799
 IR Inten    --     17.4031                27.9651                19.7121

                     85                     86                     87
                      A                      A                      A
 Frequencies --   3214.0614              3528.2929              3687.6002
 Red. masses --      1.0912                 1.0754                 1.0649
 Frc consts  --      6.6413                 7.8879                 8.5319
 IR Inten    --      7.8678                 0.9630                21.7040

 - Thermochemistry -
 -------------------
 Temperature   298.150 Kelvin.  Pressure   1.00000 Atm.
 Atom     1 has atomic number  6 and mass  12.00000

 Molecular mass:   191.13101 amu.
 Principal axes and moments of inertia in atomic units:
                           1         2         3
     Eigenvalues --  1288.354914564.462705162.32515
           X            0.99992  -0.00948  -0.00895
           Y            0.00931   0.99978  -0.01896
           Z            0.00913   0.01887   0.99978
 This molecule is an asymmetric top.
 Rotational symmetry number  1.
 Warning -- assumption of classical behavior for rotation
           may cause significant error
 Rotational temperatures (Kelvin)      0.06723     0.01898     0.01678
 Rotational constants (GHZ):           1.40081     0.39539     0.34960
 Zero-point vibrational energy     713807.6 (Joules/Mol)
                                  170.60412 (Kcal/Mol)
 Warning -- explicit consideration of  21 degrees of freedom as
           vibrations may cause significant error
 Vibrational temperatures:     34.83    52.97    67.56   131.44   212.29
          (Kelvin)            216.88   301.44   306.48   361.02   401.49
                              445.57   543.16   574.51   618.57   653.68
                              688.21   716.02   762.53   820.15   841.78
                              880.13  1034.17  1075.04  1078.13  1135.06
                             1217.53  1244.06  1248.86  1292.49  1309.96
                             1356.60  1397.29  1400.94  1422.04  1461.36
                             1491.64  1508.74  1531.89  1544.81  1547.75
                             1580.95  1615.75  1654.49  1696.75  1708.32
                             1753.81  1786.28  1839.71  1843.87  1856.14
                             1899.22  1903.25  1933.97  1936.46  1975.74
                             2031.25  2064.52  2074.57  2079.72  2097.08
                             2102.89  2175.70  2182.69  2184.20  2189.52
                             2197.02  2212.11  2232.71  2352.04  2413.00
                             4248.97  4257.02  4374.44  4375.76  4431.43
                             4449.23  4453.57  4478.51  4488.76  4494.82
                             4498.95  4516.63  4552.94  4572.45  4624.32
                             5076.43  5305.63

 Zero-point correction=                           0.271875 (Hartree/Particle)
 Thermal correction to Energy=                    0.285431
 Thermal correction to Enthalpy=                  0.286375
 Thermal correction to Gibbs Free Energy=         0.230241
 Sum of electronic and zero-point Energies=           -597.268191
 Sum of electronic and thermal Energies=              -597.254635
 Sum of electronic and thermal Enthalpies=            -597.253691
 Sum of electronic and thermal Free Energies=         -597.309825

                     E (Thermal)             CV                S
                      KCal/Mol        Cal/Mol-Kelvin    Cal/Mol-Kelvin
 Total                  179.111             52.111            118.143
 Electronic               0.000              0.000              0.000
 Translational            0.889              2.981             41.649
 Rotational               0.889              2.981             31.785
 Vibrational            177.333             46.149             44.709
 Vibration     1          0.593              1.985              6.255
 Vibration     2          0.594              1.982              5.424
 Vibration     3          0.595              1.979              4.941
 Vibration     4          0.602              1.955              3.631
 Vibration     5          0.617              1.905              2.704
 Vibration     6          0.618              1.902              2.663
 Vibration     7          0.642              1.826              2.048
 Vibration     8          0.644              1.821              2.018
 Vibration     9          0.663              1.761              1.724
 Vibration    10          0.679              1.712              1.539
 Vibration    11          0.699              1.655              1.364
 Vibration    12          0.748              1.518              1.049
 Vibration    13          0.765              1.472              0.965
 Vibration    14          0.791              1.405              0.859
 Vibration    15          0.813              1.351              0.783
 Vibration    16          0.835              1.298              0.715
 Vibration    17          0.853              1.255              0.664
 Vibration    18          0.885              1.184              0.587
 Vibration    19          0.926              1.096              0.504
 Vibration    20          0.942              1.064              0.476
 Vibration    21          0.971              1.007              0.430

                           ! Non-Optimized Parameters !
 Normal termination of Gaussian 16 at Thu Dec 10 09:51:48 2020.

 ----------------------------------------------------------------------
 # B3LYP/6-311++G(d,p) empiricaldispersion=gd3bj scf=xqc pop=npa geom=c
 heck
 ----------------------------------------------------------------------

 --------------------------------------
 CID_64159883_JID_4404_Energie_neutraal
 --------------------------------------
 Structure from the checkpoint file:  "JID_4404.chk"
 Charge =  0 Multiplicity = 1

 SCF Done:  E(RB3LYP) =  -597.711398129     A.U. after   14 cycles
 Normal termination of Gaussian 16 at Thu Dec 10 09:55:06 2020.

 ----------------------------------------------------------------------
 # B3LYP/6-311++G(d,p) empiricaldispersion=gd3bj scf=xqc pop=npa geom=c
 heck
 ----------------------------------------------------------------------

 ------------------------------------
 CID_64159883_JID_4404_Energie_kation
 ------------------------------------
 Structure from the checkpoint file:  "JID_4404.chk"
 Charge =  1 Multiplicity = 2

 SCF Done:  E(UB3LYP) =  -597.418258879     A.U. after   24 cycles
 Normal termination of Gaussian 16 at Thu Dec 10 10:02:42 2020.
 Gaussian 16:  ES64L-G16RevA.03 25-Dec-2016

 ----------------------------------------------------------------------
 # B3LYP/6-311++G(d,p) empiricaldispersion=gd3bj scf=xqc pop=npa geom=c
 heck
 ----------------------------------------------------------------------

 -----------------------------------
 CID_64159883_JID_4404_Energie_anion
 -----------------------------------
 Structure from the checkpoint file:  "JID_4404.chk"
 Charge = -1 Multiplicity = 2

                         Standard orientation:
 ---------------------------------------------------------------------
 Center     Atomic      Atomic             Coordinates (Angstroms)
 Number     Number       Type             X           Y           Z
 ---------------------------------------------------------------------
      1          6           0        4.475648   -0.909631   -0.319319
      2          6           0        3.026271   -0.549017   -0.101698
      3          6           0        2.604355    0.784773   -0.160808
      4          6           0        1.277809    1.161173    0.057967
      5          6           0        0.323863    0.163034    0.348109
      6          6           0        0.737942   -1.168530    0.406612
      7          6           0        2.068411   -1.522960    0.183900
      8          6           0       -1.130161    0.534054    0.563051
      9          6           0       -1.922120    0.843927   -0.752143
     10          6           0       -3.177846   -0.055645   -0.678699
     11          6           0       -3.315115   -0.280688    0.831076
     12          7           0       -1.916614   -0.556058    1.167850
     13          8           0       -2.987031   -1.292266   -1.350662
     14          6           0        0.891165    2.618879   -0.030168
     15          1           0        4.909514   -0.343086   -1.150988
     16          1           0        5.079879   -0.689463    0.570681
     17          1           0        4.592219   -1.975608   -0.539260
     18          1           0        3.335450    1.559048   -0.386866
     19          1           0       -0.000740   -1.930511    0.631681
     20          1           0        2.362091   -2.568955    0.232764
     21          1           0       -1.170000    1.435515    1.197918
     22          1           0       -2.197276    1.902317   -0.793466
     23          1           0       -1.344917    0.605342   -1.648202
     24          1           0       -4.059115    0.405992   -1.130240
     25          1           0       -3.956884   -1.134579    1.066219
     26          1           0       -3.721415    0.621302    1.325476
     27          1           0       -1.745689   -0.642673    2.166021
     28          1           0       -2.297039   -1.750652   -0.838735
     29          1           0        0.442112    2.980054    0.904073
     30          1           0        1.765943    3.241456   -0.239475
     31          1           0        0.157084    2.798813   -0.824544
 ---------------------------------------------------------------------

 SCF Done:  E(UB3LYP) =  -597.698708259     A.U. after   33 cycles
 SCF Done:  E(UB3LYP) =  -597.698708259     a.u. after    1 cycles

 The electronic state is 2-A.
 Alpha  occ. eigenvalues --  -19.01833 -14.20220 -10.12047 -10.10264 -10.09086
 Alpha  occ. eigenvalues --  -10.08334 -10.08272 -10.07693 -10.07581 -10.07116
 Alpha  occ. eigenvalues --  -10.06967 -10.06851 -10.06584 -10.06565  -0.92631
 Alpha  occ. eigenvalues --   -0.82219  -0.76238  -0.69289  -0.66465  -0.65360
 Alpha  occ. eigenvalues --   -0.62865  -0.59189  -0.57601  -0.51443  -0.49508
 Alpha  occ. eigenvalues --   -0.48954  -0.46129  -0.43223  -0.40228  -0.38428
 Alpha  occ. eigenvalues --   -0.37507  -0.34742  -0.34260  -0.33377  -0.33131
 Alpha  occ. eigenvalues --   -0.32313  -0.31332  -0.31081  -0.30110  -0.28927
 Alpha  occ. eigenvalues --   -0.28381  -0.27719  -0.26816  -0.26076  -0.24521
 Alpha  occ. eigenvalues --   -0.23830  -0.23277  -0.22768  -0.17622  -0.14964
 Alpha  occ. eigenvalues --   -0.14089  -0.13122   0.04334
 Alpha virt. eigenvalues --    0.06013   0.07125   0.07891   0.08114   0.08450
 Alpha virt. eigenvalues --    0.08582   0.08916   0.10055   0.10121   0.10418
 Alpha virt. eigenvalues --    0.11132   0.11479   0.11564   0.12465   0.12978

  Beta  occ. eigenvalues --  -19.01828 -14.20193 -10.12039 -10.10245 -10.09057
  Beta  occ. eigenvalues --  -10.08331 -10.08270 -10.07671 -10.07577 -10.07111
  Beta  occ. eigenvalues --  -10.06956 -10.06848 -10.06566 -10.06530  -0.92616
  Beta  occ. eigenvalues --   -0.82181  -0.76225  -0.69265  -0.66443  -0.65313
  Beta  occ. eigenvalues --   -0.62824  -0.59145  -0.57560  -0.51398  -0.49476
  Beta  occ. eigenvalues --   -0.48912  -0.46090  -0.43145  -0.40190  -0.38401
  Beta  occ. eigenvalues --   -0.37485  -0.34708  -0.34227  -0.33332  -0.33094
  Beta  occ. eigenvalues --   -0.32278  -0.31303  -0.31043  -0.30081  -0.28889
  Beta  occ. eigenvalues --   -0.28351  -0.27681  -0.26781  -0.26049  -0.24500
  Beta  occ. eigenvalues --   -0.23808  -0.23247  -0.22743  -0.17602  -0.14950
  Beta  occ. eigenvalues --   -0.14048  -0.13079
  Beta virt. eigenvalues --    0.06263   0.07124   0.07665   0.08038   0.08514
  Beta virt. eigenvalues --    0.08637   0.09023   0.09481   0.10291   0.10413
  Beta virt. eigenvalues --    0.10755   0.11597   0.11752   0.11978   0.12797

 Mulliken charges and spin densities:
               1          2
     1  C    1.436706  -1.857730
     2  C    0.388436   0.234721
     3  C    0.301183  -0.732234
     4  C   -1.707392   1.869086
     5  C   -0.163794   0.986303
     6  C   -0.196183  -0.212193
     7  C   -0.741317  -0.488362
     8  C   -1.063486   1.232049
     9  C    1.232621  -1.895283
    10  C   -1.173976   0.905299
    11  C    1.203143  -1.536563
    12  N   -0.402049   0.246379
    13  O   -0.153378  -0.028055
    14  C    1.955272  -2.631079
    15  H   -0.092081   0.233624
    16  H   -0.068108   0.230438
    17  H   -0.040238   0.179693
    18  H   -0.114002   0.232154
    19  H    0.106573   0.066591
    20  H   -0.113848   0.236314
    21  H   -0.187356   0.440475
    22  H   -0.122098   0.253947
    23  H    0.117428   0.085892
    24  H   -0.208324   0.428375
    25  H   -0.108003   0.304853
    26  H   -0.440765   0.566452
    27  H   -0.230847   0.492119
    28  H    0.283484  -0.036394
    29  H   -0.271385   0.437122
    30  H   -0.250648   0.402803
    31  H   -0.175570   0.353203
 Sum of Mulliken charges =  -1.00000   1.00000

 Dipole moment (field-independent basis, Debye):
    X=              2.3806    Y=             -3.3928    Z=             -1.9876  Tot=              4.5966
 Quadrupole moment (field-independent basis, Debye-Ang):
   XX=           -159.2207   YY=           -128.9251   ZZ=           -123.4787
   XY=              3.9297   XZ=              3.4770   YZ=             -4.0836

 Summary of Natural Population Analysis:

                                       Natural Population
                Natural  -----------------------------------------------
    Atom  No    Charge         Core      Valence    Rydberg      Total
 -----------------------------------------------------------------------
      C    1   -0.29033      0.99964     2.28574    0.00495     3.29033
      C    2   -0.01883      0.99951     2.01063    0.00869     3.01883
      C    3   -0.09953      0.99947     2.09077    0.00929     3.09953
      C    4   -0.00638      0.99948     1.99713    0.00977     3.00638
      C    5   -0.01906      0.99945     2.00782    0.01178     3.01906
      C    6   -0.09760      0.99951     2.08783    0.01027     3.09760
      C    7   -0.10353      0.99951     2.09536    0.00865     3.10353
      C    8   -0.02093      0.99957     2.00662    0.01475     3.02093
      C    9   -0.20231      0.99960     2.19417    0.00853     3.20231
      C   10    0.05911      0.99957     1.92566    0.01566     2.94089
      C   11   -0.09836      0.99961     2.08728    0.01147     3.09836
      N   12   -0.35489      0.99974     2.84167    0.01348     3.85489
      O   13   -0.37516      0.99990     3.36898    0.00628     4.37516
      C   14   -0.29598      0.99964     2.29068    0.00566     3.29598
      H   15    0.10167      0.00000     0.39711    0.00122     0.39833
      H   16    0.10322      0.00000     0.39531    0.00147     0.39678
      H   17    0.10003      0.00000     0.39886    0.00111     0.39997
      H   18    0.09601      0.00000     0.40266    0.00133     0.40399
      H   19    0.10756      0.00000     0.39098    0.00147     0.39244
      H   20    0.09611      0.00000     0.40302    0.00087     0.40389
      H   21    0.09622      0.00000     0.40031    0.00347     0.40378
      H   22    0.10688      0.00000     0.39135    0.00177     0.39312
      H   23    0.10717      0.00000     0.39181    0.00102     0.39283
      H   24    0.09099      0.00000     0.40798    0.00103     0.40901
      H   25    0.09735      0.00000     0.40154    0.00111     0.40265
      H   26    0.08762      0.00000     0.40942    0.00296     0.41238
      H   27    0.18595      0.00000     0.31035    0.00370     0.31405
      H   28    0.23127      0.00000     0.26537    0.00336     0.26873
      H   29    0.10807      0.00000     0.39041    0.00152     0.39193
      H   30    0.10149      0.00000     0.39750    0.00101     0.39851
      H   31    0.10619      0.00000     0.39255    0.00126     0.39381
 =======================================================================
   * Total *   -0.00000     13.99419    37.83688    0.16893    52.00000

 Normal termination of Gaussian 16 at Thu Dec 10 10:13:01 2020.
