 Gaussian 16, Revision A.03,

 -----------------------------------------------------------
 # opt freq B3LYP/6-31G(d) empiricaldispersion=gd3bj scf=xqc
 -----------------------------------------------------------

 ------------------------------
 CID_147968417_JID_773_neutraal
 ------------------------------
 Symbolic Z-matrix:
 Charge =  0 Multiplicity = 1

 SCF Done:  E(RB3LYP) =  -481.027121025     A.U. after   14 cycles
 SCF Done:  E(RB3LYP) =  -481.030348960     A.U. after   12 cycles
 SCF Done:  E(RB3LYP) =  -481.031086513     A.U. after   12 cycles
 SCF Done:  E(RB3LYP) =  -481.032032237     A.U. after   11 cycles
 SCF Done:  E(RB3LYP) =  -481.031906058     A.U. after   12 cycles
 SCF Done:  E(RB3LYP) =  -481.032764826     A.U. after   12 cycles
 SCF Done:  E(RB3LYP) =  -481.032877549     A.U. after   11 cycles
 SCF Done:  E(RB3LYP) =  -481.032924242     A.U. after   11 cycles
 SCF Done:  E(RB3LYP) =  -481.032960315     A.U. after   10 cycles
 SCF Done:  E(RB3LYP) =  -481.032991415     A.U. after   11 cycles
 SCF Done:  E(RB3LYP) =  -481.033357766     A.U. after   12 cycles
 SCF Done:  E(RB3LYP) =  -481.033392522     A.U. after   10 cycles
 SCF Done:  E(RB3LYP) =  -481.033396433     A.U. after    9 cycles
 SCF Done:  E(RB3LYP) =  -481.033396851     A.U. after   10 cycles
 SCF Done:  E(RB3LYP) =  -481.033397020     A.U. after   10 cycles
 SCF Done:  E(RB3LYP) =  -481.033397351     A.U. after    8 cycles
 Optimization completed.
    -- Stationary point found.
 Normal termination of Gaussian 16 at Tue Dec  8 12:51:36 2020.

 --------------------------------------------------------------------
 #N Geom=AllCheck Guess=TCheck SCRF=Check GenChk RB3LYP/6-31G(d) Freq
 --------------------------------------------------------------------

 Structure from the checkpoint file:  "JID_773.chk"
 ------------------------------
 CID_147968417_JID_773_neutraal
 ------------------------------
 Charge =  0 Multiplicity = 1

 SCF Done:  E(RB3LYP) =  -481.033397351     A.U. after    1 cycles

  Exact polarizability: 105.441   0.294  76.467  -0.925   0.360  77.120
 Approx polarizability: 120.297  -1.510 104.425  -1.700   4.525 125.666

                      1                      2                      3
                      A                      A                      A
 Frequencies --     27.2467                56.9744               104.4028
 Red. masses --      3.3520                 3.0471                 2.9097
 Frc consts  --      0.0015                 0.0058                 0.0187
 IR Inten    --      0.8134                 1.3482                 2.0321

                      4                      5                      6
                      A                      A                      A
 Frequencies --    140.0462               148.5756               232.1258
 Red. masses --      3.6610                 4.6290                 1.4614
 Frc consts  --      0.0423                 0.0602                 0.0464
 IR Inten    --      3.3795                 1.4428                 4.0965

                      7                      8                      9
                      A                      A                      A
 Frequencies --    237.6208               259.9002               267.0154
 Red. masses --      1.3336                 1.1241                 1.2586
 Frc consts  --      0.0444                 0.0447                 0.0529
 IR Inten    --      4.9708                 0.1817                 2.9208

                     10                     11                     12
                      A                      A                      A
 Frequencies --    274.6585               284.9706               352.5403
 Red. masses --      1.5837                 1.8157                 2.6907
 Frc consts  --      0.0704                 0.0869                 0.1970
 IR Inten    --     39.0337                50.3366                 2.0405

                     13                     14                     15
                      A                      A                      A
 Frequencies --    384.0067               419.9836               444.3647
 Red. masses --      2.3589                 2.2573                 2.7512
 Frc consts  --      0.2049                 0.2346                 0.3201
 IR Inten    --     10.2655                 2.6248                 1.0571

                     16                     17                     18
                      A                      A                      A
 Frequencies --    469.7034               537.4648               604.3135
 Red. masses --      2.9448                 3.1533                 3.0724
 Frc consts  --      0.3828                 0.5367                 0.6611
 IR Inten    --      2.7568                17.8453                 4.7508

                     19                     20                     21
                      A                      A                      A
 Frequencies --    748.5391               805.7602               831.5453
 Red. masses --      3.3943                 3.4000                 1.9206
 Frc consts  --      1.1205                 1.3006                 0.7824
 IR Inten    --     10.7857                45.6310               102.8807

                     22                     23                     24
                      A                      A                      A
 Frequencies --    855.4950               909.7241               925.6392
 Red. masses --      2.8696                 1.7210                 2.4347
 Frc consts  --      1.2374                 0.8392                 1.2291
 IR Inten    --      1.8875                 6.5974                22.1973

                     25                     26                     27
                      A                      A                      A
 Frequencies --    946.3167               960.6470               983.5181
 Red. masses --      1.1914                 1.7379                 1.5560
 Frc consts  --      0.6286                 0.9449                 0.8868
 IR Inten    --      1.9201                29.9833                 0.3223

                     28                     29                     30
                      A                      A                      A
 Frequencies --    995.2741              1049.1046              1112.4488
 Red. masses --      1.8827                 1.4102                 2.7555
 Frc consts  --      1.0988                 0.9145                 2.0091
 IR Inten    --     11.5800                18.6775                56.5915

                     31                     32                     33
                      A                      A                      A
 Frequencies --   1139.7605              1154.0978              1183.3728
 Red. masses --      1.7964                 2.1101                 2.1575
 Frc consts  --      1.3749                 1.6559                 1.7801
 IR Inten    --      0.9635                74.9355               139.3984

                     34                     35                     36
                      A                      A                      A
 Frequencies --   1206.6282              1230.5293              1271.9678
 Red. masses --      1.7999                 2.3313                 1.3481
 Frc consts  --      1.5440                 2.0798                 1.2851
 IR Inten    --     63.8591               192.0468                18.9338

                     37                     38                     39
                      A                      A                      A
 Frequencies --   1308.8254              1339.9297              1385.1507
 Red. masses --      1.7001                 1.5395                 1.3913
 Frc consts  --      1.7159                 1.6285                 1.5727
 IR Inten    --     15.6974                71.5995                 5.9244

                     40                     41                     42
                      A                      A                      A
 Frequencies --   1394.9139              1419.4539              1429.8005
 Red. masses --      1.2864                 1.6319                 1.2947
 Frc consts  --      1.4748                 1.9372                 1.5594
 IR Inten    --      4.4363                73.6769                 2.4564

                     43                     44                     45
                      A                      A                      A
 Frequencies --   1430.2604              1448.6553              1458.3716
 Red. masses --      1.2715                 1.2360                 1.3180
 Frc consts  --      1.5325                 1.5282                 1.6516
 IR Inten    --     22.5189                 1.1633                13.5362

                     46                     47                     48
                      A                      A                      A
 Frequencies --   1488.5017              1516.8044              1520.4623
 Red. masses --      1.0872                 1.0491                 1.0487
 Frc consts  --      1.4192                 1.4221                 1.4284
 IR Inten    --     10.0881                 6.3430                 2.3941

                     49                     50                     51
                      A                      A                      A
 Frequencies --   1524.9798              1535.6098              1536.4229
 Red. masses --      1.0507                 1.0556                 1.0583
 Frc consts  --      1.4397                 1.4667                 1.4718
 IR Inten    --      4.0780                 3.0208                 3.2688

                     52                     53                     54
                      A                      A                      A
 Frequencies --   1544.3557              1669.0711              1802.6412
 Red. masses --      1.0474                 1.1429                 8.4328
 Frc consts  --      1.4719                 1.8758                16.1450
 IR Inten    --     10.0775                94.9092               143.1389

                     55                     56                     57
                      A                      A                      A
 Frequencies --   3036.6871              3039.0826              3043.4652
 Red. masses --      1.0387                 1.0531                 1.0511
 Frc consts  --      5.6433                 5.7304                 5.7364
 IR Inten    --     22.6249                27.8805                12.4736

                     58                     59                     60
                      A                      A                      A
 Frequencies --   3058.1225              3058.5539              3089.9718
 Red. masses --      1.0814                 1.0378                 1.0964
 Frc consts  --      5.9587                 5.7198                 6.1680
 IR Inten    --      4.7472                18.9495                 4.0111

                     61                     62                     63
                      A                      A                      A
 Frequencies --   3100.1807              3101.6625              3107.9811
 Red. masses --      1.1002                 1.0878                 1.1000
 Frc consts  --      6.2303                 6.1655                 6.2604
 IR Inten    --     14.1714                30.4767                55.9965

                     64                     65                     66
                      A                      A                      A
 Frequencies --   3113.2345              3122.1277              3132.1861
 Red. masses --      1.1014                 1.1024                 1.1006
 Frc consts  --      6.2896                 6.3311                 6.3620
 IR Inten    --     54.5153                31.5608                26.4693

                     67                     68                     69
                      A                      A                      A
 Frequencies --   3164.4754              3504.1304              3599.0602
 Red. masses --      1.1006                 1.0485                 1.0947
 Frc consts  --      6.4934                 7.5853                 8.3542
 IR Inten    --     15.4549                 2.9464                 3.4550

 - Thermochemistry -
 -------------------
 Temperature   298.150 Kelvin.  Pressure   1.00000 Atm.
 Atom     1 has atomic number  6 and mass  12.00000

 Molecular mass:   145.11028 amu.
 Principal axes and moments of inertia in atomic units:
                           1         2         3
     Eigenvalues --   600.068872911.994953063.94997
           X            0.99996   0.00876   0.00274
           Y           -0.00871   0.99981  -0.01717
           Z           -0.00289   0.01714   0.99985
 This molecule is an asymmetric top.
 Rotational symmetry number  1.
 Warning -- assumption of classical behavior for rotation
           may cause significant error
 Rotational temperatures (Kelvin)      0.14434     0.02974     0.02827
 Rotational constants (GHZ):           3.00756     0.61976     0.58902
 Zero-point vibrational energy     583666.5 (Joules/Mol)
                                  139.49964 (Kcal/Mol)
 Warning -- explicit consideration of  18 degrees of freedom as
           vibrations may cause significant error
 Vibrational temperatures:     39.20    81.97   150.21   201.50   213.77
          (Kelvin)            333.98   341.88   373.94   384.18   395.17
                              410.01   507.23   552.50   604.26   639.34
                              675.80   773.29   869.47  1076.98  1159.31
                             1196.41  1230.87  1308.89  1331.79  1361.54
                             1382.16  1415.06  1431.98  1509.43  1600.57
                             1639.86  1660.49  1702.61  1736.07  1770.46
                             1830.08  1883.11  1927.86  1992.92  2006.97
                             2042.28  2057.16  2057.83  2084.29  2098.27
                             2141.62  2182.34  2187.61  2194.11  2209.40
                             2210.57  2221.98  2401.42  2593.60  4369.12
                             4372.56  4378.87  4399.96  4400.58  4445.78
                             4460.47  4462.60  4471.69  4479.25  4492.05
                             4506.52  4552.97  5041.66  5178.24

 Zero-point correction=                           0.222307 (Hartree/Particle)
 Thermal correction to Energy=                    0.234397
 Thermal correction to Enthalpy=                  0.235341
 Thermal correction to Gibbs Free Energy=         0.183968
 Sum of electronic and zero-point Energies=           -480.811091
 Sum of electronic and thermal Energies=              -480.799001
 Sum of electronic and thermal Enthalpies=            -480.798056
 Sum of electronic and thermal Free Energies=         -480.849429

                     E (Thermal)             CV                S
                      KCal/Mol        Cal/Mol-Kelvin    Cal/Mol-Kelvin
 Total                  147.086             44.034            108.123
 Electronic               0.000              0.000              0.000
 Translational            0.889              2.981             40.828
 Rotational               0.889              2.981             30.061
 Vibrational            145.309             38.072             37.235
 Vibration     1          0.593              1.984              6.020
 Vibration     2          0.596              1.975              4.559
 Vibration     3          0.605              1.946              3.370
 Vibration     4          0.615              1.913              2.803
 Vibration     5          0.618              1.904              2.690
 Vibration     6          0.653              1.792              1.862
 Vibration     7          0.656              1.783              1.821
 Vibration     8          0.668              1.746              1.662
 Vibration     9          0.672              1.734              1.615
 Vibration    10          0.677              1.720              1.567
 Vibration    11          0.683              1.702              1.504
 Vibration    12          0.729              1.570              1.155
 Vibration    13          0.753              1.504              1.023
 Vibration    14          0.783              1.427              0.892
 Vibration    15          0.804              1.373              0.813
 Vibration    16          0.827              1.317              0.738
 Vibration    17          0.892              1.167              0.571
 Vibration    18          0.963              1.023              0.442

 Optimization completed.
    -- Stationary point found.
 Normal termination of Gaussian 16 at Tue Dec  8 13:04:02 2020.

 ----------------------------------------------------------------------
 # B3LYP/6-311++G(d,p) empiricaldispersion=gd3bj scf=xqc pop=npa geom=c
 heck
 ----------------------------------------------------------------------

 --------------------------------------
 CID_147968417_JID_773_Energie_neutraal
 --------------------------------------
 Structure from the checkpoint file:  "JID_773.chk"
 Charge =  0 Multiplicity = 1

 SCF Done:  E(RB3LYP) =  -481.184098154     A.U. after   14 cycles
 Normal termination of Gaussian 16 at Tue Dec  8 13:08:32 2020.

 ----------------------------------------------------------------------
 # B3LYP/6-311++G(d,p) empiricaldispersion=gd3bj scf=xqc pop=npa geom=c
 heck
 ----------------------------------------------------------------------

 ------------------------------------
 CID_147968417_JID_773_Energie_kation
 ------------------------------------
 Structure from the checkpoint file:  "JID_773.chk"
 Charge =  1 Multiplicity = 2

 SCF Done:  E(UB3LYP) =  -480.839223906     A.U. after   27 cycles
 Normal termination of Gaussian 16 at Tue Dec  8 13:17:20 2020.
 Gaussian 16:  ES64L-G16RevA.03 25-Dec-2016

 ----------------------------------------------------------------------
 # B3LYP/6-311++G(d,p) empiricaldispersion=gd3bj scf=xqc pop=npa geom=c
 heck
 ----------------------------------------------------------------------

 -----------------------------------
 CID_147968417_JID_773_Energie_anion
 -----------------------------------
 Structure from the checkpoint file:  "JID_773.chk"
 Charge = -1 Multiplicity = 2

                         Standard orientation:
 ---------------------------------------------------------------------
 Center     Atomic      Atomic             Coordinates (Angstroms)
 Number     Number       Type             X           Y           Z
 ---------------------------------------------------------------------
      1          6           0       -2.410949    1.482407    0.071316
      2          6           0       -2.372208   -0.035925    0.283080
      3          6           0       -3.691242   -0.687830   -0.145808
      4          6           0       -1.195377   -0.671012   -0.468885
      5          6           0        0.159664   -0.256439    0.068255
      6          8           0        0.358799    0.161942    1.193516
      7          8           0        1.118373   -0.437882   -0.858592
      8          6           0        2.503467   -0.184484   -0.470959
      9          6           0        2.731364    1.321517   -0.334446
     10          7           0        2.861175   -1.004672    0.661882
     11          1           0       -2.546600    1.724506   -0.991130
     12          1           0       -1.485067    1.952101    0.416582
     13          1           0       -3.243331    1.932564    0.623925
     14          1           0       -2.214923   -0.225896    1.351869
     15          1           0       -3.876949   -0.532291   -1.216494
     16          1           0       -3.684174   -1.768691    0.038390
     17          1           0       -4.536727   -0.257932    0.402988
     18          1           0       -1.238732   -1.766709   -0.389736
     19          1           0       -1.237576   -0.443144   -1.540523
     20          1           0        3.056011   -0.561214   -1.335607
     21          1           0        2.185567    1.716246    0.525049
     22          1           0        3.800778    1.515621   -0.194121
     23          1           0        2.402780    1.847601   -1.237238
     24          1           0        3.868051   -1.138078    0.692155
     25          1           0        2.556980   -0.563870    1.526004
 ---------------------------------------------------------------------

 SCF Done:  E(UB3LYP) =  -481.168895979     A.U. after   31 cycles

 The electronic state is 2-A.
 Alpha  occ. eigenvalues --  -19.05841 -19.00758 -14.19163 -10.19998 -10.15419
 Alpha  occ. eigenvalues --  -10.07930 -10.07908 -10.06255 -10.05850 -10.05659
 Alpha  occ. eigenvalues --   -1.00230  -0.91740  -0.78703  -0.71696  -0.64774
 Alpha  occ. eigenvalues --   -0.61488  -0.58820  -0.54857  -0.47509  -0.43952
 Alpha  occ. eigenvalues --   -0.41878  -0.39221  -0.38454  -0.36507  -0.35434
 Alpha  occ. eigenvalues --   -0.34422  -0.33045  -0.30969  -0.30263  -0.29658
 Alpha  occ. eigenvalues --   -0.28855  -0.27239  -0.26800  -0.25587  -0.23976
 Alpha  occ. eigenvalues --   -0.23668  -0.23105  -0.20629  -0.17400  -0.15108
 Alpha  occ. eigenvalues --    0.04565
 Alpha virt. eigenvalues --    0.06118   0.07914   0.08414   0.09152   0.09236
 Alpha virt. eigenvalues --    0.09408   0.10425   0.11057   0.11398   0.12030
 Alpha virt. eigenvalues --    0.12279   0.13227   0.13760   0.13847   0.15529

  Beta  occ. eigenvalues --  -19.05839 -19.00751 -14.19124 -10.19997 -10.15397
  Beta  occ. eigenvalues --  -10.07921 -10.07894 -10.06222 -10.05827 -10.05621
  Beta  occ. eigenvalues --   -1.00219  -0.91727  -0.78630  -0.71673  -0.64720
  Beta  occ. eigenvalues --   -0.61436  -0.58763  -0.54801  -0.47448  -0.43913
  Beta  occ. eigenvalues --   -0.41796  -0.39190  -0.38423  -0.36473  -0.35389
  Beta  occ. eigenvalues --   -0.34386  -0.33007  -0.30925  -0.30230  -0.29616
  Beta  occ. eigenvalues --   -0.28823  -0.27202  -0.26765  -0.25546  -0.23942
  Beta  occ. eigenvalues --   -0.23638  -0.23071  -0.20614  -0.17385  -0.15064
  Beta virt. eigenvalues --    0.06691   0.07690   0.08381   0.08956   0.09559
  Beta virt. eigenvalues --    0.09825   0.10099   0.10597   0.11365   0.11887
  Beta virt. eigenvalues --    0.12440   0.12659   0.13602   0.13954   0.14091

 Mulliken charges and spin densities:
               1          2
     1  C    0.393187  -0.988592
     2  C   -2.286074   2.666080
     3  C    1.365709  -1.995603
     4  C    2.979728  -3.402963
     5  C   -1.385484   1.255286
     6  O   -0.247993  -0.011752
     7  O    0.009670   0.031225
     8  C   -1.071759   0.805401
     9  C    1.566304  -1.857402
    10  N   -0.057076  -0.309415
    11  H   -0.224458   0.353560
    12  H    0.221366  -0.076353
    13  H   -0.129832   0.260908
    14  H    0.063061   0.117398
    15  H   -0.084429   0.219348
    16  H   -0.212273   0.340432
    17  H   -0.302969   0.440545
    18  H   -0.017528   0.200400
    19  H    0.070579   0.131052
    20  H   -0.852748   1.054666
    21  H   -0.175128   0.337132
    22  H   -0.582030   0.758146
    23  H    0.021687   0.109797
    24  H   -0.243479   0.511365
    25  H    0.181968   0.049341
 Sum of Mulliken charges =  -1.00000   1.00000

 Dipole moment (field-independent basis, Debye):
    X=             -3.4557    Y=              0.4407    Z=              0.8625  Tot=              3.5889
 Quadrupole moment (field-independent basis, Debye-Ang):
   XX=           -155.1082   YY=            -95.2889   ZZ=            -91.6770
   XY=              0.4429   XZ=              2.5439   YZ=              0.0011

 Summary of Natural Population Analysis:

                                       Natural Population
                Natural  -----------------------------------------------
    Atom  No    Charge         Core      Valence    Rydberg      Total
 -----------------------------------------------------------------------
      C    1   -0.28491      0.99965     2.28034    0.00492     3.28491
      C    2   -0.11725      0.99962     2.10702    0.01061     3.11725
      C    3   -0.28314      0.99965     2.27783    0.00566     3.28314
      C    4   -0.23460      0.99956     2.22612    0.00891     3.23460
      C    5    0.41837      0.99969     1.55629    0.02565     2.58163
      O    6   -0.31995      0.99987     3.31492    0.00516     4.31995
      O    7   -0.28457      0.99986     3.27493    0.00979     4.28457
      C    8    0.14623      0.99959     1.83640    0.01777     2.85377
      C    9   -0.30545      0.99964     2.29980    0.00602     3.30545
      N   10   -0.42642      0.99975     2.91630    0.01037     3.92642
      H   11    0.09501      0.00000     0.40391    0.00108     0.40499
      H   12    0.10486      0.00000     0.39402    0.00111     0.39514
      H   13    0.09833      0.00000     0.40068    0.00099     0.40167
      H   14    0.10051      0.00000     0.39770    0.00180     0.39949
      H   15    0.09620      0.00000     0.40262    0.00119     0.40380
      H   16    0.09864      0.00000     0.40027    0.00109     0.40136
      H   17    0.09974      0.00000     0.39915    0.00111     0.40026
      H   18    0.11479      0.00000     0.38412    0.00109     0.38521
      H   19    0.10997      0.00000     0.38874    0.00129     0.39003
      H   20    0.09163      0.00000     0.40567    0.00270     0.40837
      H   21    0.10673      0.00000     0.39202    0.00125     0.39327
      H   22    0.10518      0.00000     0.39190    0.00291     0.39482
      H   23    0.10193      0.00000     0.39688    0.00119     0.39807
      H   24    0.18471      0.00000     0.31099    0.00430     0.31529
      H   25    0.18345      0.00000     0.31467    0.00188     0.31655
 =======================================================================
   * Total *   -0.00000      9.99687    29.87329    0.12984    40.00000

 Normal termination of Gaussian 16 at Tue Dec  8 13:26:53 2020.
