 Gaussian 16, Revision A.03,

 -----------------------------------------------------------
 # opt freq B3LYP/6-31G(d) empiricaldispersion=gd3bj scf=xqc
 -----------------------------------------------------------

 -------------------------------
 CID_150411349_JID_1875_neutraal
 -------------------------------
 Symbolic Z-matrix:
 Charge =  0 Multiplicity = 1

 SCF Done:  E(RB3LYP) =  -822.426445713     A.U. after   13 cycles
 SCF Done:  E(RB3LYP) =  -822.428504951     A.U. after   11 cycles
 SCF Done:  E(RB3LYP) =  -822.428846574     A.U. after   11 cycles
 SCF Done:  E(RB3LYP) =  -822.428943801     A.U. after   11 cycles
 SCF Done:  E(RB3LYP) =  -822.428959784     A.U. after   10 cycles
 SCF Done:  E(RB3LYP) =  -822.428965613     A.U. after    9 cycles
 SCF Done:  E(RB3LYP) =  -822.428966754     A.U. after    8 cycles
 SCF Done:  E(RB3LYP) =  -822.428966958     A.U. after    7 cycles
 Optimization completed.
    -- Stationary point found.
 Normal termination of Gaussian 16 at Tue Dec  8 21:23:08 2020.

 --------------------------------------------------------------------
 #N Geom=AllCheck Guess=TCheck SCRF=Check GenChk RB3LYP/6-31G(d) Freq
 --------------------------------------------------------------------

 Structure from the checkpoint file:  "JID_1875.chk"
 -------------------------------
 CID_150411349_JID_1875_neutraal
 -------------------------------
 Charge =  0 Multiplicity = 1

 SCF Done:  E(RB3LYP) =  -822.428966958     A.U. after    1 cycles

  Exact polarizability: 137.389   0.158 115.183   7.805   6.688  64.274
 Approx polarizability: 200.691   2.253 196.575  13.468  12.131 104.526

                      1                      2                      3
                      A                      A                      A
 Frequencies --     59.7832               105.7994               161.1184
 Red. masses --      4.0502                 5.2254                 2.7671
 Frc consts  --      0.0085                 0.0345                 0.0423
 IR Inten    --      2.2085                 0.9674                 3.8273

                      4                      5                      6
                      A                      A                      A
 Frequencies --    250.3099               292.4792               329.9627
 Red. masses --      3.3585                 6.4725                 3.6314
 Frc consts  --      0.1240                 0.3262                 0.2329
 IR Inten    --      5.6246                 0.8993                 2.7644

                      7                      8                      9
                      A                      A                      A
 Frequencies --    365.9712               380.7496               416.0429
 Red. masses --      1.2850                 2.2543                 7.7324
 Frc consts  --      0.1014                 0.1926                 0.7886
 IR Inten    --     58.0537                 4.3852                10.0092

                     10                     11                     12
                      A                      A                      A
 Frequencies --    446.4827               505.7565               510.1101
 Red. masses --      2.7806                 3.8961                 4.3491
 Frc consts  --      0.3266                 0.5872                 0.6668
 IR Inten    --      4.0830                 2.4249                 2.0311

                     13                     14                     15
                      A                      A                      A
 Frequencies --    589.1310               636.7805               713.6431
 Red. masses --      5.2372                 5.2343                 3.9494
 Frc consts  --      1.0710                 1.2505                 1.1851
 IR Inten    --      3.5040                26.0435                 1.0770

                     16                     17                     18
                      A                      A                      A
 Frequencies --    716.0468               739.0623               758.5058
 Red. masses --      4.0358                 3.9148                 1.3908
 Frc consts  --      1.2192                 1.2599                 0.4714
 IR Inten    --      1.6811                 4.7870                34.6435

                     19                     20                     21
                      A                      A                      A
 Frequencies --    795.4117               859.3831               874.6236
 Red. masses --      3.3017                 3.1552                 1.3610
 Frc consts  --      1.2308                 1.3729                 0.6134
 IR Inten    --      5.5104                 1.4695                 2.0393

                     22                     23                     24
                      A                      A                      A
 Frequencies --    923.8455               933.1980               955.5151
 Red. masses --      1.9689                 2.4852                 1.4798
 Frc consts  --      0.9901                 1.2751                 0.7960
 IR Inten    --     14.4449                18.6291                 0.6892

                     25                     26                     27
                      A                      A                      A
 Frequencies --    987.8454              1007.6140              1080.4253
 Red. masses --      1.2673                 2.1636                 2.4105
 Frc consts  --      0.7286                 1.2942                 1.6578
 IR Inten    --      0.2967                35.0914                 9.0670

                     28                     29                     30
                      A                      A                      A
 Frequencies --   1092.6916              1138.1386              1196.5323
 Red. masses --      2.4797                 2.1979                 1.3128
 Frc consts  --      1.7444                 1.6775                 1.1074
 IR Inten    --     83.1530                 7.7470                 3.3584

                     31                     32                     33
                      A                      A                      A
 Frequencies --   1199.1210              1212.8716              1227.7008
 Red. masses --      1.1436                 1.9944                 1.6780
 Frc consts  --      0.9688                 1.7286                 1.4901
 IR Inten    --      1.1406                 2.1152                 8.3158

                     34                     35                     36
                      A                      A                      A
 Frequencies --   1230.9822              1257.2297              1270.0999
 Red. masses --      1.1089                 1.5491                 1.4545
 Frc consts  --      0.9901                 1.4426                 1.3825
 IR Inten    --     42.7138                 0.8193                 7.1928

                     37                     38                     39
                      A                      A                      A
 Frequencies --   1319.4529              1336.5017              1358.9201
 Red. masses --      1.3460                 1.6211                 3.2064
 Frc consts  --      1.3806                 1.7061                 3.4887
 IR Inten    --     15.1920                 5.4615                 7.9221

                     40                     41                     42
                      A                      A                      A
 Frequencies --   1394.9541              1437.1205              1492.3507
 Red. masses --      1.5640                 1.2248                 1.7362
 Frc consts  --      1.7931                 1.4904                 2.2783
 IR Inten    --      4.3485                76.2118                 2.0789

                     43                     44                     45
                      A                      A                      A
 Frequencies --   1495.7289              1501.9325              1545.0013
 Red. masses --      1.1270                 1.2915                 2.2701
 Frc consts  --      1.4855                 1.7166                 3.1927
 IR Inten    --      3.3384                10.4204                17.8392

                     46                     47                     48
                      A                      A                      A
 Frequencies --   1637.9799              1665.8012              3043.0306
 Red. masses --      6.0376                 5.6717                 1.0681
 Frc consts  --      9.5441                 9.2727                 5.8273
 IR Inten    --      2.5513                 0.0407                16.7263

                     49                     50                     51
                      A                      A                      A
 Frequencies --   3045.1061              3085.3409              3110.3156
 Red. masses --      1.0609                 1.1022                 1.0955
 Frc consts  --      5.7958                 6.1819                 6.2439
 IR Inten    --     22.9207                13.7955                 4.0432

                     52                     53                     54
                      A                      A                      A
 Frequencies --   3123.5579              3174.0768              3178.5394
 Red. masses --      1.0879                 1.0869                 1.0885
 Frc consts  --      6.2540                 6.4517                 6.4796
 IR Inten    --     21.0044                12.7829                 2.0601

                     55                     56                     57
                      A                      A                      A
 Frequencies --   3196.1113              3211.2613              3719.1401
 Red. masses --      1.0912                 1.0974                 1.0657
 Frc consts  --      6.5677                 6.6675                 8.6850
 IR Inten    --     22.2162                26.5913                20.8632

 - Thermochemistry -
 -------------------
 Temperature   298.150 Kelvin.  Pressure   1.00000 Atm.
 Atom     1 has atomic number  6 and mass  12.00000

 Molecular mass:   166.04524 amu.
 Principal axes and moments of inertia in atomic units:
                           1         2         3
     Eigenvalues --   941.313692442.239262949.42419
           X            0.99995   0.01014   0.00107
           Y           -0.01018   0.99895   0.04469
           Z           -0.00061  -0.04469   0.99900
 This molecule is an asymmetric top.
 Rotational symmetry number  1.
 Warning -- assumption of classical behavior for rotation
           may cause significant error
 Rotational temperatures (Kelvin)      0.09201     0.03546     0.02937
 Rotational constants (GHZ):           1.91726     0.73897     0.61190
 Zero-point vibrational energy     450353.3 (Joules/Mol)
                                  107.63702 (Kcal/Mol)
 Warning -- explicit consideration of  13 degrees of freedom as
           vibrations may cause significant error
 Vibrational temperatures:     86.01   152.22   231.81   360.14   420.81
          (Kelvin)            474.74   526.55   547.81   598.59   642.39
                              727.67   733.93   847.63   916.19  1026.77
                             1030.23  1063.35  1091.32  1144.42  1236.46
                             1258.39  1329.21  1342.66  1374.77  1421.29
                             1449.73  1554.49  1572.14  1637.53  1721.54
                             1725.27  1745.05  1766.39  1771.11  1808.87
                             1827.39  1898.40  1922.93  1955.18  2007.03
                             2067.70  2147.16  2152.02  2160.95  2222.91
                             2356.69  2396.72  4378.24  4381.23  4439.12
                             4475.05  4494.10  4566.79  4573.21  4598.49
                             4620.29  5351.01

 Zero-point correction=                           0.171531 (Hartree/Particle)
 Thermal correction to Energy=                    0.180868
 Thermal correction to Enthalpy=                  0.181813
 Thermal correction to Gibbs Free Energy=         0.136641
 Sum of electronic and zero-point Energies=           -822.257436
 Sum of electronic and thermal Energies=              -822.248099
 Sum of electronic and thermal Enthalpies=            -822.247154
 Sum of electronic and thermal Free Energies=         -822.292326

                     E (Thermal)             CV                S
                      KCal/Mol        Cal/Mol-Kelvin    Cal/Mol-Kelvin
 Total                  113.497             37.232             95.071
 Electronic               0.000              0.000              0.000
 Translational            0.889              2.981             41.230
 Rotational               0.889              2.981             30.295
 Vibrational            111.719             31.271             23.546
 Vibration     1          0.597              1.973              4.464
 Vibration     2          0.605              1.945              3.345
 Vibration     3          0.622              1.890              2.537
 Vibration     4          0.663              1.762              1.728
 Vibration     5          0.688              1.688              1.460
 Vibration     6          0.713              1.616              1.260
 Vibration     7          0.739              1.542              1.097
 Vibration     8          0.750              1.511              1.036
 Vibration     9          0.779              1.435              0.906
 Vibration    10          0.806              1.369              0.806
 Vibration    11          0.861              1.237              0.644
 Vibration    12          0.865              1.228              0.633
 Vibration    13          0.946              1.055              0.469

                           ! Non-Optimized Parameters !
 Normal termination of Gaussian 16 at Tue Dec  8 21:28:02 2020.

 ----------------------------------------------------------------------
 # B3LYP/6-311++G(d,p) empiricaldispersion=gd3bj scf=xqc pop=npa geom=c
 heck
 ----------------------------------------------------------------------

 ---------------------------------------
 CID_150411349_JID_1875_Energie_neutraal
 ---------------------------------------
 Structure from the checkpoint file:  "JID_1875.chk"
 Charge =  0 Multiplicity = 1

 SCF Done:  E(RB3LYP) =  -822.577599947     A.U. after   15 cycles
 Normal termination of Gaussian 16 at Tue Dec  8 21:30:20 2020.

 ----------------------------------------------------------------------
 # B3LYP/6-311++G(d,p) empiricaldispersion=gd3bj scf=xqc pop=npa geom=c
 heck
 ----------------------------------------------------------------------

 -------------------------------------
 CID_150411349_JID_1875_Energie_kation
 -------------------------------------
 Structure from the checkpoint file:  "JID_1875.chk"
 Charge =  1 Multiplicity = 2

 SCF Done:  E(UB3LYP) =  -822.269316314     A.U. after   33 cycles
 SCF Done:  E(UB3LYP) =  -822.269316314     a.u. after    1 cycles
 Normal termination of Gaussian 16 at Tue Dec  8 21:37:48 2020.
 Gaussian 16:  ES64L-G16RevA.03 25-Dec-2016

 ----------------------------------------------------------------------
 # B3LYP/6-311++G(d,p) empiricaldispersion=gd3bj scf=xqc pop=npa geom=c
 heck
 ----------------------------------------------------------------------

 ------------------------------------
 CID_150411349_JID_1875_Energie_anion
 ------------------------------------
 Structure from the checkpoint file:  "JID_1875.chk"
 Charge = -1 Multiplicity = 2

                         Standard orientation:
 ---------------------------------------------------------------------
 Center     Atomic      Atomic             Coordinates (Angstroms)
 Number     Number       Type             X           Y           Z
 ---------------------------------------------------------------------
      1          6           0       -0.666638   -1.457526   -0.560234
      2          6           0       -1.932118   -0.878261    0.064433
      3         16           0       -2.190697    0.839462   -0.588095
      4          6           0       -0.678515    1.548556    0.155518
      5          6           0        0.585148    0.718219    0.016990
      6          6           0        1.804755    1.373361    0.244891
      7          6           0        3.017160    0.694470    0.195816
      8          6           0        3.026161   -0.674481   -0.077726
      9          6           0        1.822709   -1.334891   -0.297995
     10          6           0        0.593178   -0.660451   -0.262811
     11          8           0       -1.912501   -0.949988    1.470067
     12          1           0       -0.538743   -2.481857   -0.187132
     13          1           0       -0.812255   -1.526230   -1.644761
     14          1           0       -2.813450   -1.434968   -0.260686
     15          1           0       -0.537407    2.522459   -0.321934
     16          1           0       -0.877366    1.746592    1.216428
     17          1           0        1.793376    2.439001    0.462862
     18          1           0        3.947157    1.227968    0.369918
     19          1           0        3.963143   -1.222533   -0.115286
     20          1           0        1.824454   -2.401924   -0.508094
     21          1           0       -1.028784   -0.673960    1.764381
 ---------------------------------------------------------------------

 SCF Done:  E(UB3LYP) =  -822.562679269     A.U. after   33 cycles
 SCF Done:  E(UB3LYP) =  -822.562679269     a.u. after    1 cycles

 The electronic state is 2-A.
 Alpha  occ. eigenvalues --  -88.73857 -19.03905 -10.15776 -10.10615 -10.08863
 Alpha  occ. eigenvalues --  -10.08583 -10.08246 -10.07145 -10.07046 -10.06993
 Alpha  occ. eigenvalues --  -10.06942  -7.82536  -5.78903  -5.78590  -5.77894
 Alpha  occ. eigenvalues --   -0.94668  -0.76824  -0.71084  -0.68101  -0.64534
 Alpha  occ. eigenvalues --   -0.62383  -0.55022  -0.52594  -0.50380  -0.46564
 Alpha  occ. eigenvalues --   -0.40854  -0.39588  -0.38258  -0.35823  -0.35152
 Alpha  occ. eigenvalues --   -0.34795  -0.33669  -0.31195  -0.30392  -0.28031
 Alpha  occ. eigenvalues --   -0.26977  -0.25420  -0.24883  -0.24453  -0.22617
 Alpha  occ. eigenvalues --   -0.18292  -0.15020  -0.14604  -0.13098   0.04681
 Alpha virt. eigenvalues --    0.06765   0.07387   0.07805   0.08080   0.08599
 Alpha virt. eigenvalues --    0.09452   0.09800   0.10738   0.11031   0.11792
 Alpha virt. eigenvalues --    0.12055   0.13704   0.13832   0.15470   0.16647

  Beta  occ. eigenvalues --  -88.73855 -19.03875 -10.15768 -10.10591 -10.08860
  Beta  occ. eigenvalues --  -10.08572 -10.08228 -10.07119 -10.07022 -10.06970
  Beta  occ. eigenvalues --  -10.06915  -7.82534  -5.78900  -5.78589  -5.77893
  Beta  occ. eigenvalues --   -0.94603  -0.76783  -0.71041  -0.68057  -0.64489
  Beta  occ. eigenvalues --   -0.62326  -0.54968  -0.52556  -0.50308  -0.46509
  Beta  occ. eigenvalues --   -0.40775  -0.39537  -0.38206  -0.35783  -0.35118
  Beta  occ. eigenvalues --   -0.34732  -0.33622  -0.31142  -0.30341  -0.27992
  Beta  occ. eigenvalues --   -0.26934  -0.25371  -0.24832  -0.24405  -0.22579
  Beta  occ. eigenvalues --   -0.18264  -0.14942  -0.14550  -0.13085
  Beta virt. eigenvalues --    0.07045   0.07533   0.07935   0.08315   0.08605
  Beta virt. eigenvalues --    0.09145   0.09866   0.10471   0.11249   0.11403
  Beta virt. eigenvalues --    0.12079   0.12452   0.13963   0.14153   0.15769

 Mulliken charges and spin densities:
               1          2
     1  C    2.207481  -2.922031
     2  C   -0.538619   0.504593
     3  S    0.036451  -0.074290
     4  C    1.671959  -2.458832
     5  C   -1.215256   1.526288
     6  C   -0.674836   0.735339
     7  C    1.571461  -1.757659
     8  C    1.680245  -1.918525
     9  C   -0.851356   0.680139
    10  C   -1.668226   1.666734
    11  O   -0.118795  -0.060627
    12  H   -0.148918   0.350579
    13  H    0.031151   0.118501
    14  H   -0.130195   0.416678
    15  H   -0.020109   0.186322
    16  H    0.052073   0.200128
    17  H   -0.839542   1.010630
    18  H   -0.806258   0.978490
    19  H   -0.753935   0.926822
    20  H   -0.731539   0.898064
    21  H    0.246763  -0.007342
 Sum of Mulliken charges =  -1.00000   1.00000

 Dipole moment (field-independent basis, Debye):
    X=             -6.0141    Y=              0.1675    Z=             -0.3140  Tot=              6.0246
 Quadrupole moment (field-independent basis, Debye-Ang):
   XX=           -142.2741   YY=           -116.9863   ZZ=           -101.5144
   XY=             -1.2005   XZ=              0.5979   YZ=             -1.8286

 Summary of Natural Population Analysis:

                                       Natural Population
                Natural  -----------------------------------------------
    Atom  No    Charge         Core      Valence    Rydberg      Total
 -----------------------------------------------------------------------
      C    1   -0.21438      0.99956     2.20385    0.01097     3.21438
      C    2    0.01047      0.99959     1.97161    0.01834     2.98953
      S    3    0.07445      4.99964     2.90950    0.01641     7.92555
      C    4   -0.26067      0.99954     2.24787    0.01326     3.26067
      C    5   -0.03048      0.99946     2.01931    0.01172     3.03048
      C    6   -0.09206      0.99951     2.08148    0.01107     3.09206
      C    7   -0.09327      0.99956     2.08319    0.01053     3.09327
      C    8   -0.09640      0.99956     2.08623    0.01062     3.09640
      C    9   -0.09039      0.99951     2.08015    0.01072     3.09039
      C   10   -0.02645      0.99946     2.01435    0.01264     3.02645
      O   11   -0.36202      0.99989     3.35492    0.00722     4.36202
      H   12    0.10759      0.00000     0.39078    0.00163     0.39241
      H   13    0.11306      0.00000     0.38507    0.00187     0.38694
      H   14    0.09610      0.00000     0.40271    0.00119     0.40390
      H   15    0.11534      0.00000     0.38325    0.00141     0.38466
      H   16    0.10621      0.00000     0.39201    0.00178     0.39379
      H   17    0.10103      0.00000     0.39615    0.00281     0.39897
      H   18    0.10399      0.00000     0.39312    0.00289     0.39601
      H   19    0.10392      0.00000     0.39346    0.00263     0.39608
      H   20    0.10064      0.00000     0.39682    0.00254     0.39936
      H   21    0.23335      0.00000     0.26341    0.00325     0.26665
 =======================================================================
   * Total *   -0.00000     14.99527    28.84924    0.15548    44.00000

 Normal termination of Gaussian 16 at Tue Dec  8 21:45:47 2020.
