 Gaussian 16, Revision A.03,

 -----------------------------------------------------------
 # opt freq B3LYP/6-31G(d) empiricaldispersion=gd3bj scf=xqc
 -----------------------------------------------------------

 -------------------------------
 CID_130978315_JID_3801_neutraal
 -------------------------------
 Symbolic Z-matrix:
 Charge =  0 Multiplicity = 1

 SCF Done:  E(RB3LYP) =  -926.773566849     A.U. after   15 cycles
 SCF Done:  E(RB3LYP) =  -926.781026558     A.U. after   14 cycles
 SCF Done:  E(RB3LYP) =  -926.782410752     A.U. after   15 cycles
 SCF Done:  E(RB3LYP) =  -926.782510096     A.U. after   16 cycles
 SCF Done:  E(RB3LYP) =  -926.784671428     A.U. after   13 cycles
 SCF Done:  E(RB3LYP) =  -926.783438604     A.U. after   15 cycles
 SCF Done:  E(RB3LYP) =  -926.785978551     A.U. after   14 cycles
 SCF Done:  E(RB3LYP) =  -926.786374020     A.U. after   13 cycles
 SCF Done:  E(RB3LYP) =  -926.786435249     A.U. after   12 cycles
 SCF Done:  E(RB3LYP) =  -926.786376794     A.U. after   13 cycles
 SCF Done:  E(RB3LYP) =  -926.786483612     A.U. after   11 cycles
 SCF Done:  E(RB3LYP) =  -926.786500704     A.U. after   11 cycles
 SCF Done:  E(RB3LYP) =  -926.786502558     A.U. after    9 cycles
 SCF Done:  E(RB3LYP) =  -926.786502809     A.U. after    8 cycles
 Optimization completed.
    -- Stationary point found.
 Normal termination of Gaussian 16 at Mon Dec 14 18:42:23 2020.

 --------------------------------------------------------------------
 #N Geom=AllCheck Guess=TCheck SCRF=Check GenChk RB3LYP/6-31G(d) Freq
 --------------------------------------------------------------------

 Structure from the checkpoint file:  "JID_3801.chk"
 -------------------------------
 CID_130978315_JID_3801_neutraal
 -------------------------------
 Charge =  0 Multiplicity = 1

 SCF Done:  E(RB3LYP) =  -926.786502809     A.U. after    1 cycles

  Exact polarizability: 137.178   7.069 106.717  -3.161  -1.668  95.065
 Approx polarizability: 187.019  19.883 184.652  -5.969   1.388 164.396

 ******    1 imaginary frequencies (negative Signs) ******

                      1                      2                      3
                      A                      A                      A
 Frequencies --    -77.6617                33.6057                42.6830
 Red. masses --      1.0490                 4.8964                 7.1498
 Frc consts  --      0.0037                 0.0033                 0.0077
 IR Inten    --      0.0318                 1.4067                 1.0779

                      4                      5                      6
                      A                      A                      A
 Frequencies --     72.1059                82.9019               112.9759
 Red. masses --      5.1958                 4.9564                 4.4642
 Frc consts  --      0.0159                 0.0201                 0.0336
 IR Inten    --      2.3384                13.4284                 5.2945

                      7                      8                      9
                      A                      A                      A
 Frequencies --    149.8166               200.6698               233.8072
 Red. masses --      4.4657                 4.4325                 5.3045
 Frc consts  --      0.0591                 0.1052                 0.1708
 IR Inten    --      2.1100                 1.7090                 3.4740

                     10                     11                     12
                      A                      A                      A
 Frequencies --    261.2264               286.4181               336.2277
 Red. masses --      3.4372                 4.2706                 3.1240
 Frc consts  --      0.1382                 0.2064                 0.2081
 IR Inten    --      2.7506                 1.1970                 3.3476

                     13                     14                     15
                      A                      A                      A
 Frequencies --    354.3614               373.1858               428.6365
 Red. masses --      7.1562                 3.3567                11.0182
 Frc consts  --      0.5294                 0.2754                 1.1927
 IR Inten    --      0.3102                 0.4085                 0.4485

                     16                     17                     18
                      A                      A                      A
 Frequencies --    473.0096               476.7855               529.0403
 Red. masses --      8.0363                 5.2388                 9.9708
 Frc consts  --      1.0594                 0.7017                 1.6442
 IR Inten    --      4.2476                 2.7379                 2.4729

                     19                     20                     21
                      A                      A                      A
 Frequencies --    596.6787               615.6351               677.7575
 Red. masses --      1.1997                 1.3037                 5.7684
 Frc consts  --      0.2516                 0.2911                 1.5612
 IR Inten    --     43.9892                37.8717                 3.0165

                     22                     23                     24
                      A                      A                      A
 Frequencies --    687.5067               706.6394               713.4008
 Red. masses --      4.7172                 9.5278                 5.8807
 Frc consts  --      1.3137                 2.8031                 1.7634
 IR Inten    --     24.7422                 1.2156                 6.6987

                     25                     26                     27
                      A                      A                      A
 Frequencies --    800.1117               907.6236               945.5624
 Red. masses --      5.6367                 1.7249                 2.3173
 Frc consts  --      2.1261                 0.8372                 1.2207
 IR Inten    --     10.3223                 6.8115                 1.1561

                     28                     29                     30
                      A                      A                      A
 Frequencies --    952.5260               975.7782               999.2250
 Red. masses --      3.3912                 4.1367                 4.3485
 Frc consts  --      1.8128                 2.3206                 2.5581
 IR Inten    --      4.8432                 4.6872                 0.3956

                     31                     32                     33
                      A                      A                      A
 Frequencies --   1097.1846              1147.0285              1164.3086
 Red. masses --      9.4681                 2.1623                 1.3224
 Frc consts  --      6.7154                 1.6761                 1.0562
 IR Inten    --      0.4043                17.9354                 2.9018

                     34                     35                     36
                      A                      A                      A
 Frequencies --   1216.0538              1222.3941              1262.8208
 Red. masses --      1.0826                 1.5270                 2.3975
 Frc consts  --      0.9433                 1.3443                 2.2526
 IR Inten    --      1.4396                 1.7665                 5.2762

                     37                     38                     39
                      A                      A                      A
 Frequencies --   1281.4265              1345.0911              1359.6519
 Red. masses --      1.2607                 1.5835                 4.6872
 Frc consts  --      1.2196                 1.6880                 5.1052
 IR Inten    --     16.3153                 3.8676                15.0888

                     40                     41                     42
                      A                      A                      A
 Frequencies --   1438.4297              1461.2675              1479.6259
 Red. masses --      9.4420                 1.8700                 1.0807
 Frc consts  --     11.5104                 2.3527                 1.3940
 IR Inten    --      2.1122                26.4526                15.3347

                     43                     44                     45
                      A                      A                      A
 Frequencies --   1483.1962              1511.5455              1523.5921
 Red. masses --      1.1122                 1.0444                 1.7158
 Frc consts  --      1.4415                 1.4060                 2.3467
 IR Inten    --      6.5073                 4.8607                31.3411

                     46                     47                     48
                      A                      A                      A
 Frequencies --   1530.6648              1554.8768              2238.7716
 Red. masses --      2.1966                 2.1406                 5.9842
 Frc consts  --      3.0322                 3.0492                17.6715
 IR Inten    --     18.7439                23.4269                 0.1249

                     49                     50                     51
                      A                      A                      A
 Frequencies --   2375.3693              3052.2203              3076.8243
 Red. masses --     12.5993                 1.0669                 1.0586
 Frc consts  --     41.8851                 5.8560                 5.9048
 IR Inten    --      5.0346                 3.1834                 5.6242

                     52                     53                     54
                      A                      A                      A
 Frequencies --   3094.6195              3119.8914              3128.9121
 Red. masses --      1.0326                 1.0946                 1.1058
 Frc consts  --      5.8263                 6.2773                 6.3784
 IR Inten    --     14.8301                 1.2360                 0.3348

                     55                     56                     57
                      A                      A                      A
 Frequencies --   3170.8097              3192.3385              3492.4926
 Red. masses --      1.1062                 1.1051                 1.1600
 Frc consts  --      6.5528                 6.6352                 8.3364
 IR Inten    --      2.2180                 2.7511                57.4338

 - Thermochemistry -
 -------------------
 Temperature   298.150 Kelvin.  Pressure   1.00000 Atm.
 Atom     1 has atomic number  6 and mass  12.00000

 Molecular mass:   192.04697 amu.
 Principal axes and moments of inertia in atomic units:
                           1         2         3
     Eigenvalues --  1392.665614120.482394422.78887
           X            1.00000   0.00015  -0.00283
           Y           -0.00015   1.00000   0.00063
           Z            0.00283  -0.00063   1.00000
 This molecule is an asymmetric top.
 Rotational symmetry number  1.
 Warning -- assumption of classical behavior for rotation
           may cause significant error
 Rotational temperatures (Kelvin)      0.06219     0.02102     0.01958
 Rotational constants (GHZ):           1.29589     0.43799     0.40806
    1 imaginary frequencies ignored.
 Zero-point vibrational energy     401032.0 (Joules/Mol)
                                   95.84894 (Kcal/Mol)
 Warning -- explicit consideration of  19 degrees of freedom as
           vibrations may cause significant error
 Vibrational temperatures:     48.35    61.41   103.74   119.28   162.55
          (Kelvin)            215.55   288.72   336.40   375.85   412.09
                              483.76   509.85   536.93   616.71   680.56
                              685.99   761.17   858.49   885.76   975.14
                              989.17  1016.70  1026.42  1151.18  1305.87
                             1360.45  1370.47  1403.93  1437.66  1578.60
                             1650.32  1675.18  1749.63  1758.75  1816.92
                             1843.69  1935.29  1956.24  2069.58  2102.44
                             2128.85  2133.99  2174.78  2192.11  2202.29
                             2237.12  3221.09  3417.63  4391.46  4426.86
                             4452.47  4488.83  4501.81  4562.09  4593.06
                             5024.92

 Zero-point correction=                           0.152745 (Hartree/Particle)
 Thermal correction to Energy=                    0.165477
 Thermal correction to Enthalpy=                  0.166421
 Thermal correction to Gibbs Free Energy=         0.111964
 Sum of electronic and zero-point Energies=           -926.633758
 Sum of electronic and thermal Energies=              -926.621026
 Sum of electronic and thermal Enthalpies=            -926.620082
 Sum of electronic and thermal Free Energies=         -926.674539

                     E (Thermal)             CV                S
                      KCal/Mol        Cal/Mol-Kelvin    Cal/Mol-Kelvin
 Total                  103.838             45.176            114.614
 Electronic               0.000              0.000              0.000
 Translational            0.889              2.981             41.663
 Rotational               0.889              2.981             31.607
 Vibrational            102.061             39.214             41.344
 Vibration     1          0.594              1.983              5.604
 Vibration     2          0.595              1.980              5.131
 Vibration     3          0.598              1.967              4.095
 Vibration     4          0.600              1.961              3.821
 Vibration     5          0.607              1.939              3.217
 Vibration     6          0.618              1.903              2.675
 Vibration     7          0.638              1.839              2.127
 Vibration     8          0.654              1.789              1.850
 Vibration     9          0.669              1.744              1.654
 Vibration    10          0.684              1.699              1.495
 Vibration    11          0.717              1.603              1.230
 Vibration    12          0.730              1.566              1.147
 Vibration    13          0.745              1.527              1.067
 Vibration    14          0.790              1.408              0.863
 Vibration    15          0.830              1.310              0.729
 Vibration    16          0.833              1.302              0.719
 Vibration    17          0.884              1.186              0.589
 Vibration    18          0.955              1.039              0.455
 Vibration    19          0.975              0.999              0.424

                           ! Non-Optimized Parameters !
 Normal termination of Gaussian 16 at Mon Dec 14 18:47:17 2020.

 ----------------------------------------------------------------------
 # B3LYP/6-311++G(d,p) empiricaldispersion=gd3bj scf=xqc pop=npa geom=c
 heck
 ----------------------------------------------------------------------

 ---------------------------------------
 CID_130978315_JID_3801_Energie_neutraal
 ---------------------------------------
 Structure from the checkpoint file:  "JID_3801.chk"
 Charge =  0 Multiplicity = 1

 SCF Done:  E(RB3LYP) =  -926.958081300     A.U. after   16 cycles
 Normal termination of Gaussian 16 at Mon Dec 14 18:49:26 2020.

 ----------------------------------------------------------------------
 # B3LYP/6-311++G(d,p) empiricaldispersion=gd3bj scf=xqc pop=npa geom=c
 heck
 ----------------------------------------------------------------------

 -------------------------------------
 CID_130978315_JID_3801_Energie_kation
 -------------------------------------
 Structure from the checkpoint file:  "JID_3801.chk"
 Charge =  1 Multiplicity = 2

 SCF Done:  E(UB3LYP) =  -926.623523159     A.U. after   30 cycles
 Normal termination of Gaussian 16 at Mon Dec 14 18:55:06 2020.
 Gaussian 16:  ES64L-G16RevA.03 25-Dec-2016

 ----------------------------------------------------------------------
 # B3LYP/6-311++G(d,p) empiricaldispersion=gd3bj scf=xqc pop=npa geom=c
 heck
 ----------------------------------------------------------------------

 ------------------------------------
 CID_130978315_JID_3801_Energie_anion
 ------------------------------------
 Structure from the checkpoint file:  "JID_3801.chk"
 Charge = -1 Multiplicity = 2

                         Standard orientation:
 ---------------------------------------------------------------------
 Center     Atomic      Atomic             Coordinates (Angstroms)
 Number     Number       Type             X           Y           Z
 ---------------------------------------------------------------------
      1          6           0        0.529161    1.251185    1.061066
      2          7           0        0.480034    0.035785    0.254393
      3          6           0        1.389913   -0.433435   -0.650756
      4          7           0        0.960353   -1.547007   -1.209815
      5          7           0       -0.267132   -1.835519   -0.665708
      6          6           0       -0.546506   -0.884646    0.203298
      7         16           0       -2.017931   -0.759697    1.158078
      8          6           0       -3.144340   -0.090669   -0.164289
      9          6           0       -2.741485    1.209652   -0.670370
     10          6           0       -2.382862    2.280971   -1.097270
     11          6           0        2.694499    0.215418   -1.007212
     12          6           0        3.586317    0.408359    0.142793
     13          7           0        4.261758    0.584098    1.069504
     14          1           0        0.292741    1.010404    2.098585
     15          1           0        1.534489    1.669201    1.019045
     16          1           0       -0.199422    1.972273    0.684826
     17          1           0       -3.179222   -0.834177   -0.965534
     18          1           0       -4.131661   -0.048744    0.308242
     19          1           0       -2.097050    3.232367   -1.485138
     20          1           0        3.177457   -0.437475   -1.740980
     21          1           0        2.536294    1.188796   -1.490474
 ---------------------------------------------------------------------

 SCF Done:  E(UB3LYP) =  -926.956216831     A.U. after   33 cycles
 SCF Done:  E(UB3LYP) =  -926.956216831     a.u. after    1 cycles

 The electronic state is 2-A.
 Alpha  occ. eigenvalues --  -88.73581 -14.26343 -14.21990 -14.20947 -14.20071
 Alpha  occ. eigenvalues --  -10.12839 -10.12772 -10.12506 -10.12126 -10.10909
 Alpha  occ. eigenvalues --  -10.10292 -10.07518 -10.06035  -7.82107  -5.78517
 Alpha  occ. eigenvalues --   -5.78165  -5.77462  -0.94884  -0.81901  -0.81261
 Alpha  occ. eigenvalues --   -0.73579  -0.70185  -0.66199  -0.62852  -0.62206
 Alpha  occ. eigenvalues --   -0.56789  -0.50077  -0.46985  -0.43386  -0.42853
 Alpha  occ. eigenvalues --   -0.40201  -0.37636  -0.36776  -0.35810  -0.35303
 Alpha  occ. eigenvalues --   -0.34369  -0.31876  -0.30987  -0.29606  -0.27696
 Alpha  occ. eigenvalues --   -0.25163  -0.24136  -0.23884  -0.20125  -0.18193
 Alpha  occ. eigenvalues --   -0.17738  -0.17350  -0.15012  -0.14432  -0.12618
 Alpha  occ. eigenvalues --    0.04548
 Alpha virt. eigenvalues --    0.06414   0.07951   0.08584   0.09243   0.10057
 Alpha virt. eigenvalues --    0.10920   0.11224   0.11964   0.12108   0.12504
 Alpha virt. eigenvalues --    0.13108   0.13359   0.13683   0.13914   0.14883

  Beta  occ. eigenvalues --  -88.73537 -14.26181 -14.21975 -14.21004 -14.19940
  Beta  occ. eigenvalues --  -10.12759 -10.12732 -10.12397 -10.12110 -10.10906
  Beta  occ. eigenvalues --  -10.10027 -10.07510 -10.05963  -7.82060  -5.78413
  Beta  occ. eigenvalues --   -5.78128  -5.77431  -0.94715  -0.81842  -0.81064
  Beta  occ. eigenvalues --   -0.73335  -0.69862  -0.66040  -0.62649  -0.62108
  Beta  occ. eigenvalues --   -0.56462  -0.49949  -0.46794  -0.43230  -0.42697
  Beta  occ. eigenvalues --   -0.39975  -0.37346  -0.36497  -0.35653  -0.35148
  Beta  occ. eigenvalues --   -0.34188  -0.31777  -0.30648  -0.29276  -0.27643
  Beta  occ. eigenvalues --   -0.24771  -0.23950  -0.23838  -0.20045  -0.17710
  Beta  occ. eigenvalues --   -0.17569  -0.16898  -0.14778  -0.14022  -0.12367
  Beta virt. eigenvalues --    0.07209   0.07844   0.08788   0.08929   0.09296
  Beta virt. eigenvalues --    0.10471   0.11121   0.11277   0.12190   0.12380
  Beta virt. eigenvalues --    0.12937   0.13162   0.13536   0.13865   0.14024

 Mulliken charges and spin densities:
               1          2
     1  C   -0.130779  -0.235182
     2  N    0.136944   0.070674
     3  C   -0.745611   0.992389
     4  N   -0.140342   0.105565
     5  N   -0.027131  -0.087417
     6  C   -0.348589   0.885190
     7  S   -0.773658   0.396904
     8  C   -0.279710  -0.960075
     9  C    0.769846   0.743540
    10  C   -0.771660  -0.150641
    11  C    1.730736  -2.409165
    12  C    0.291028  -0.151974
    13  N   -0.347763   0.012898
    14  H    0.026351   0.136978
    15  H   -0.054103   0.167287
    16  H    0.186918  -0.022439
    17  H    0.207935   0.010975
    18  H   -0.219881   0.418280
    19  H    0.041782   0.087936
    20  H    0.078864   0.123192
    21  H   -0.631175   0.865086
 Sum of Mulliken charges =  -1.00000   1.00000

 Dipole moment (field-independent basis, Debye):
    X=             -1.6947    Y=              1.7685    Z=              0.9089  Tot=              2.6126
 Quadrupole moment (field-independent basis, Debye-Ang):
   XX=           -143.0848   YY=           -111.1262   ZZ=           -107.4793
   XY=             -6.6110   XZ=             -2.3428   YZ=              1.3241

 Summary of Natural Population Analysis:

                                       Natural Population
                Natural  -----------------------------------------------
    Atom  No    Charge         Core      Valence    Rydberg      Total
 -----------------------------------------------------------------------
      C    1   -0.17859      0.99963     2.17179    0.00718     3.17859
      N    2   -0.19454      0.99954     2.68424    0.01075     3.69454
      C    3    0.19825      0.99958     1.78422    0.01795     2.80175
      N    4   -0.17682      0.99968     2.66478    0.01235     3.67682
      N    5   -0.14721      0.99966     2.63317    0.01438     3.64721
      C    6    0.11522      0.99955     1.86287    0.02236     2.88478
      S    7    0.13176      4.99955     2.85018    0.01850     7.86824
      C    8   -0.25769      0.99950     2.24565    0.01254     3.25769
      C    9   -0.00160      0.99938     1.99457    0.00765     3.00160
      C   10   -0.12383      0.99926     2.12097    0.00360     3.12383
      C   11   -0.26732      0.99951     2.25812    0.00969     3.26732
      C   12    0.16488      0.99965     1.81868    0.01679     2.83512
      N   13   -0.18644      0.99979     2.67554    0.01112     3.68644
      H   14    0.10701      0.00000     0.39203    0.00096     0.39299
      H   15    0.10252      0.00000     0.39639    0.00109     0.39748
      H   16    0.10731      0.00000     0.39168    0.00101     0.39269
      H   17    0.11655      0.00000     0.38202    0.00143     0.38345
      H   18    0.11339      0.00000     0.38408    0.00253     0.38661
      H   19    0.10857      0.00000     0.39034    0.00109     0.39143
      H   20    0.13469      0.00000     0.36344    0.00187     0.36531
      H   21    0.13391      0.00000     0.35733    0.00877     0.36609
 =======================================================================
   * Total *    0.00000     16.99430    32.82210    0.18360    50.00000

 Normal termination of Gaussian 16 at Mon Dec 14 19:01:24 2020.
