 Gaussian 16, Revision A.03,

 -----------------------------------------------------------
 # opt freq B3LYP/6-31G(d) empiricaldispersion=gd3bj scf=xqc
 -----------------------------------------------------------

 ------------------------------
 CID_85742267_JID_5179_neutraal
 ------------------------------
 Symbolic Z-matrix:
 Charge =  0 Multiplicity = 1

 SCF Done:  E(RB3LYP) =  -977.274134654     A.U. after   15 cycles
 SCF Done:  E(RB3LYP) =  -977.277641556     A.U. after   12 cycles
 SCF Done:  E(RB3LYP) =  -977.278373673     A.U. after   12 cycles
 SCF Done:  E(RB3LYP) =  -977.278741745     A.U. after   12 cycles
 SCF Done:  E(RB3LYP) =  -977.278931337     A.U. after   11 cycles
 SCF Done:  E(RB3LYP) =  -977.279293339     A.U. after   12 cycles
 SCF Done:  E(RB3LYP) =  -977.279416274     A.U. after   14 cycles
 SCF Done:  E(RB3LYP) =  -977.279613122     A.U. after   13 cycles
 SCF Done:  E(RB3LYP) =  -977.279782768     A.U. after   11 cycles
 SCF Done:  E(RB3LYP) =  -977.280104496     A.U. after   12 cycles
 SCF Done:  E(RB3LYP) =  -977.280198336     A.U. after    9 cycles
 SCF Done:  E(RB3LYP) =  -977.280199049     A.U. after    8 cycles
 SCF Done:  E(RB3LYP) =  -977.280199295     A.U. after    9 cycles
 SCF Done:  E(RB3LYP) =  -977.280199498     A.U. after    8 cycles
 SCF Done:  E(RB3LYP) =  -977.280199543     A.U. after    7 cycles
 Optimization completed.
    -- Stationary point found.
 Normal termination of Gaussian 16 at Thu Dec 10 14:50:39 2020.

 --------------------------------------------------------------------
 #N Geom=AllCheck Guess=TCheck SCRF=Check GenChk RB3LYP/6-31G(d) Freq
 --------------------------------------------------------------------

 Structure from the checkpoint file:  "JID_5179.chk"
 ------------------------------
 CID_85742267_JID_5179_neutraal
 ------------------------------
 Charge =  0 Multiplicity = 1

 SCF Done:  E(RB3LYP) =  -977.280199543     A.U. after    1 cycles

  Exact polarizability: 252.359  -2.158 155.554   2.746   1.846  78.995
 Approx polarizability: 349.629  -3.666 277.785   4.895   0.364 124.400

                      1                      2                      3
                      A                      A                      A
 Frequencies --     33.3807                50.2324                75.6797
 Red. masses --      5.1021                 3.7583                 4.0778
 Frc consts  --      0.0033                 0.0056                 0.0138
 IR Inten    --      0.2038                 0.9849                 1.4796

                      4                      5                      6
                      A                      A                      A
 Frequencies --     89.6290               139.0477               164.5085
 Red. masses --      4.0511                 1.0963                 1.8888
 Frc consts  --      0.0192                 0.0125                 0.0301
 IR Inten    --      2.2355                 0.0313                 0.2820

                      7                      8                      9
                      A                      A                      A
 Frequencies --    172.9511               183.1657               214.8697
 Red. masses --      1.4151                 4.4369                 2.6561
 Frc consts  --      0.0249                 0.0877                 0.0723
 IR Inten    --      0.8353                 0.5931                 1.9878

                     10                     11                     12
                      A                      A                      A
 Frequencies --    243.1896               258.2425               303.4265
 Red. masses --      3.9126                 4.3168                 4.8592
 Frc consts  --      0.1363                 0.1696                 0.2636
 IR Inten    --      2.3288                 1.5558                 1.7802

                     13                     14                     15
                      A                      A                      A
 Frequencies --    308.9492               340.6316               376.2552
 Red. masses --      2.6183                 4.4870                 1.2258
 Frc consts  --      0.1472                 0.3067                 0.1022
 IR Inten    --      0.7539                 0.8116               176.1234

                     16                     17                     18
                      A                      A                      A
 Frequencies --    447.6759               449.9374               469.8073
 Red. masses --      3.0358                 3.4432                 4.2638
 Frc consts  --      0.3585                 0.4107                 0.5545
 IR Inten    --      1.6410                 7.9978                 5.1680

                     19                     20                     21
                      A                      A                      A
 Frequencies --    516.8690               538.1202               584.1084
 Red. masses --      5.2887                 4.5504                 3.6308
 Frc consts  --      0.8324                 0.7764                 0.7299
 IR Inten    --      0.7454                 2.6099                 9.0547

                     22                     23                     24
                      A                      A                      A
 Frequencies --    603.5419               617.5785               654.6409
 Red. masses --      5.1540                 3.5831                 4.6569
 Frc consts  --      1.1061                 0.8052                 1.1758
 IR Inten    --      4.3786                 0.5966                 9.1420

                     25                     26                     27
                      A                      A                      A
 Frequencies --    700.4241               728.7601               764.2124
 Red. masses --      5.8705                 2.9745                 1.2594
 Frc consts  --      1.6969                 0.9308                 0.4334
 IR Inten    --      0.8232                 1.8310                18.4807

                     28                     29                     30
                      A                      A                      A
 Frequencies --    769.0487               835.0214               849.4166
 Red. masses --      3.8732                 1.3274                 1.4709
 Frc consts  --      1.3497                 0.5453                 0.6253
 IR Inten    --      1.4936                35.9594                 3.5821

                     31                     32                     33
                      A                      A                      A
 Frequencies --    862.2266               872.8916               900.2196
 Red. masses --      5.4294                 3.7399                 1.3996
 Frc consts  --      2.3782                 1.6789                 0.6683
 IR Inten    --     14.3363                 8.5000                 5.3421

                     34                     35                     36
                      A                      A                      A
 Frequencies --    953.6958               968.2821              1001.1857
 Red. masses --      1.3019                 3.6506                 1.6408
 Frc consts  --      0.6976                 2.0166                 0.9690
 IR Inten    --      0.5434                24.8948                14.1171

                     37                     38                     39
                      A                      A                      A
 Frequencies --   1014.5754              1029.4581              1049.9241
 Red. masses --      1.9094                 1.6364                 2.0265
 Frc consts  --      1.1580                 1.0218                 1.3162
 IR Inten    --      9.8732                 1.2444                13.5328

                     40                     41                     42
                      A                      A                      A
 Frequencies --   1059.9747              1081.8401              1085.4717
 Red. masses --      1.4320                 4.9244                 1.5970
 Frc consts  --      0.9479                 3.3957                 1.1086
 IR Inten    --      6.0034                70.8576                 0.1111

                     43                     44                     45
                      A                      A                      A
 Frequencies --   1157.2433              1166.1738              1206.9159
 Red. masses --      2.1122                 1.6150                 1.5401
 Frc consts  --      1.6667                 1.2941                 1.3218
 IR Inten    --      3.5933                17.0301                 0.7580

                     46                     47                     48
                      A                      A                      A
 Frequencies --   1214.8773              1228.9490              1257.4087
 Red. masses --      1.1782                 1.2909                 2.0762
 Frc consts  --      1.0245                 1.1487                 1.9341
 IR Inten    --      6.9861                25.5648                 1.2788

                     49                     50                     51
                      A                      A                      A
 Frequencies --   1289.8296              1335.3457              1340.7229
 Red. masses --      4.3388                 1.4980                 4.3892
 Frc consts  --      4.2529                 1.5738                 4.6485
 IR Inten    --      2.2847                 1.7127                 2.3846

                     52                     53                     54
                      A                      A                      A
 Frequencies --   1363.9918              1413.0383              1437.5427
 Red. masses --      1.9817                 1.5298                 1.5475
 Frc consts  --      2.1723                 1.7997                 1.8842
 IR Inten    --      8.6731                36.9367                41.2555

                     55                     56                     57
                      A                      A                      A
 Frequencies --   1441.6719              1451.5077              1461.3722
 Red. masses --      1.5584                 1.2423                 2.5692
 Frc consts  --      1.9084                 1.5421                 3.2327
 IR Inten    --     31.8941                 0.3924                13.6718

                     58                     59                     60
                      A                      A                      A
 Frequencies --   1506.7526              1508.8061              1521.7529
 Red. masses --      1.0453                 3.4056                 1.2805
 Frc consts  --      1.3982                 4.5678                 1.7470
 IR Inten    --      0.0096                 6.4816                18.6602

                     61                     62                     63
                      A                      A                      A
 Frequencies --   1522.5206              1525.1841              1531.4479
 Red. masses --      1.0442                 1.1456                 1.1156
 Frc consts  --      1.4261                 1.5700                 1.5416
 IR Inten    --     14.2932                 0.3534                 1.6140

                     64                     65                     66
                      A                      A                      A
 Frequencies --   1557.5902              1614.5189              1621.6488
 Red. masses --      2.6302                 5.4932                 5.9330
 Frc consts  --      3.7597                 8.4365                 9.1926
 IR Inten    --     25.8300                 2.1306                 2.1699

                     67                     68                     69
                      A                      A                      A
 Frequencies --   1673.1698              2991.3789              3037.0784
 Red. masses --      5.8185                 1.0722                 1.0388
 Frc consts  --      9.5971                 5.6527                 5.6452
 IR Inten    --      6.1197                60.2433                31.9013

                     70                     71                     72
                      A                      A                      A
 Frequencies --   3039.7764              3076.9334              3083.5367
 Red. masses --      1.0383                 1.0907                 1.1001
 Frc consts  --      5.6528                 6.0838                 6.1629
 IR Inten    --     45.0182                28.6645                29.1305

                     73                     74                     75
                      A                      A                      A
 Frequencies --   3087.5400              3127.6111              3130.2852
 Red. masses --      1.1002                 1.0998                 1.0999
 Frc consts  --      6.1792                 6.3385                 6.3497
 IR Inten    --     11.6112                26.9904                 8.8171

                     76                     77                     78
                      A                      A                      A
 Frequencies --   3179.1002              3182.4582              3205.9321
 Red. masses --      1.0882                 1.0896                 1.0931
 Frc consts  --      6.4797                 6.5020                 6.6196
 IR Inten    --     28.0979                 4.3597                 8.9718

                     79                     80                     81
                      A                      A                      A
 Frequencies --   3214.3169              3277.5912              3730.1823
 Red. masses --      1.0918                 1.0931                 1.0659
 Frc consts  --      6.6461                 6.9187                 8.7380
 IR Inten    --      9.3056                 1.6579                10.5597

 - Thermochemistry -
 -------------------
 Temperature   298.150 Kelvin.  Pressure   1.00000 Atm.
 Atom     1 has atomic number  6 and mass  12.00000

 Molecular mass:   218.07654 amu.
 Principal axes and moments of inertia in atomic units:
                           1         2         3
     Eigenvalues --  1158.865587750.675468691.61865
           X            0.99997   0.00719   0.00030
           Y           -0.00719   0.99981   0.01792
           Z           -0.00017  -0.01793   0.99984
 This molecule is an asymmetric top.
 Rotational symmetry number  1.
 Warning -- assumption of classical behavior for rotation
           may cause significant error
 Rotational temperatures (Kelvin)      0.07474     0.01118     0.00997
 Rotational constants (GHZ):           1.55733     0.23285     0.20764
 Zero-point vibrational energy     622517.3 (Joules/Mol)
                                  148.78521 (Kcal/Mol)
 Warning -- explicit consideration of  23 degrees of freedom as
           vibrations may cause significant error
 Vibrational temperatures:     48.03    72.27   108.89   128.96   200.06
          (Kelvin)            236.69   248.84   263.53   309.15   349.90
                              371.55   436.56   444.51   490.09   541.35
                              644.11   647.36   675.95   743.66   774.23
                              840.40   868.36   888.56   941.88  1007.75
                             1048.52  1099.53  1106.49  1201.41  1222.12
                             1240.55  1255.90  1295.22  1372.16  1393.14
                             1440.48  1459.75  1481.16  1510.61  1525.07
                             1556.53  1561.75  1665.02  1677.86  1736.48
                             1747.94  1768.18  1809.13  1855.78  1921.26
                             1929.00  1962.48  2033.05  2068.30  2074.24
                             2088.40  2102.59  2167.88  2170.84  2189.46
                             2190.57  2194.40  2203.41  2241.02  2322.93
                             2333.19  2407.32  4303.93  4369.68  4373.56
                             4427.02  4436.52  4442.28  4499.93  4503.78
                             4574.02  4578.85  4612.62  4624.69  4715.72
                             5366.90

 Zero-point correction=                           0.237104 (Hartree/Particle)
 Thermal correction to Energy=                    0.251700
 Thermal correction to Enthalpy=                  0.252644
 Thermal correction to Gibbs Free Energy=         0.194809
 Sum of electronic and zero-point Energies=           -977.043095
 Sum of electronic and thermal Energies=              -977.028499
 Sum of electronic and thermal Enthalpies=            -977.027555
 Sum of electronic and thermal Free Energies=         -977.085390

                     E (Thermal)             CV                S
                      KCal/Mol        Cal/Mol-Kelvin    Cal/Mol-Kelvin
 Total                  157.944             55.354            121.725
 Electronic               0.000              0.000              0.000
 Translational            0.889              2.981             42.042
 Rotational               0.889              2.981             32.723
 Vibrational            156.167             49.393             46.959
 Vibration     1          0.594              1.983              5.618
 Vibration     2          0.595              1.978              4.808
 Vibration     3          0.599              1.965              4.000
 Vibration     4          0.602              1.957              3.668
 Vibration     5          0.615              1.914              2.817
 Vibration     6          0.623              1.886              2.497
 Vibration     7          0.626              1.876              2.403
 Vibration     8          0.631              1.863              2.296
 Vibration     9          0.645              1.818              2.002
 Vibration    10          0.659              1.774              1.779
 Vibration    11          0.667              1.749              1.674
 Vibration    12          0.695              1.667              1.398
 Vibration    13          0.698              1.657              1.368
 Vibration    14          0.720              1.594              1.209
 Vibration    15          0.747              1.521              1.054
 Vibration    16          0.807              1.366              0.803
 Vibration    17          0.809              1.361              0.796
 Vibration    18          0.827              1.317              0.738
 Vibration    19          0.872              1.213              0.617
 Vibration    20          0.893              1.166              0.569
 Vibration    21          0.941              1.066              0.478
 Vibration    22          0.962              1.024              0.444
 Vibration    23          0.977              0.995              0.420

 Optimization completed.
    -- Stationary point found.
 Normal termination of Gaussian 16 at Thu Dec 10 14:58:01 2020.

 ----------------------------------------------------------------------
 # B3LYP/6-311++G(d,p) empiricaldispersion=gd3bj scf=xqc pop=npa geom=c
 heck
 ----------------------------------------------------------------------

 --------------------------------------
 CID_85742267_JID_5179_Energie_neutraal
 --------------------------------------
 Structure from the checkpoint file:  "JID_5179.chk"
 Charge =  0 Multiplicity = 1

 SCF Done:  E(RB3LYP) =  -977.466586583     A.U. after   16 cycles
 Normal termination of Gaussian 16 at Thu Dec 10 15:02:00 2020.

 ----------------------------------------------------------------------
 # B3LYP/6-311++G(d,p) empiricaldispersion=gd3bj scf=xqc pop=npa geom=c
 heck
 ----------------------------------------------------------------------

 ------------------------------------
 CID_85742267_JID_5179_Energie_kation
 ------------------------------------
 Structure from the checkpoint file:  "JID_5179.chk"
 Charge =  1 Multiplicity = 2

 SCF Done:  E(UB3LYP) =  -977.192161207     A.U. after   25 cycles
 Normal termination of Gaussian 16 at Thu Dec 10 15:11:05 2020.
 Gaussian 16:  ES64L-G16RevA.03 25-Dec-2016

 ----------------------------------------------------------------------
 # B3LYP/6-311++G(d,p) empiricaldispersion=gd3bj scf=xqc pop=npa geom=c
 heck
 ----------------------------------------------------------------------

 -----------------------------------
 CID_85742267_JID_5179_Energie_anion
 -----------------------------------
 Structure from the checkpoint file:  "JID_5179.chk"
 Charge = -1 Multiplicity = 2

                         Standard orientation:
 ---------------------------------------------------------------------
 Center     Atomic      Atomic             Coordinates (Angstroms)
 Number     Number       Type             X           Y           Z
 ---------------------------------------------------------------------
      1          6           0        4.995164   -0.915981    0.028506
      2          6           0        3.509669   -0.662785   -0.009038
      3          6           0        2.989540    0.625811    0.231282
      4          6           0        1.609740    0.823186    0.193169
      5          6           0        0.712895   -0.220167   -0.087402
      6          6           0        1.243352   -1.494666   -0.334135
      7          6           0        2.617853   -1.703263   -0.286346
      8          6           0       -0.734858    0.000292   -0.120874
      9          6           0       -1.743019   -0.901497    0.126651
     10          6           0       -3.056879   -0.351916    0.008378
     11          6           0       -3.032854    0.976151   -0.326969
     12         16           0       -1.414437    1.569919   -0.511624
     13          6           0       -4.328152   -1.134479    0.224340
     14          8           0       -5.446505   -0.311941    0.525369
     15          6           0        3.910444    1.780623    0.537356
     16          1           0        5.529869   -0.301853   -0.707545
     17          1           0        5.422764   -0.672336    1.009725
     18          1           0        5.221730   -1.964937   -0.183500
     19          1           0        1.217968    1.814587    0.406406
     20          1           0        0.579080   -2.315480   -0.585832
     21          1           0        3.011895   -2.697568   -0.482293
     22          1           0       -1.550307   -1.927600    0.421931
     23          1           0       -3.882603    1.624360   -0.487299
     24          1           0       -4.605788   -1.674333   -0.688571
     25          1           0       -4.164148   -1.895467    1.005084
     26          1           0       -5.210491    0.205458    1.311930
     27          1           0        3.346136    2.702864    0.702414
     28          1           0        4.513230    1.590059    1.434426
     29          1           0        4.616319    1.961214   -0.283351
 ---------------------------------------------------------------------

 SCF Done:  E(UB3LYP) =  -977.461981194     A.U. after   33 cycles
 SCF Done:  E(UB3LYP) =  -977.462027767     a.u. after    6 cycles

 The electronic state is 2-A.
 Alpha  occ. eigenvalues --  -88.72400 -19.02172 -10.11166 -10.05683 -10.05390
 Alpha  occ. eigenvalues --  -10.04953 -10.04906 -10.04393 -10.04313 -10.03817
 Alpha  occ. eigenvalues --  -10.03607 -10.03605 -10.03199 -10.02986 -10.02402
 Alpha  occ. eigenvalues --   -7.81057  -5.77351  -5.76994  -5.76665  -0.92248
 Alpha  occ. eigenvalues --   -0.74295  -0.72508  -0.65976  -0.63923  -0.62312
 Alpha  occ. eigenvalues --   -0.59240  -0.57428  -0.55135  -0.53489  -0.47163
 Alpha  occ. eigenvalues --   -0.45828  -0.42682  -0.40130  -0.39656  -0.36055
 Alpha  occ. eigenvalues --   -0.34730  -0.34325  -0.33344  -0.32098  -0.31718
 Alpha  occ. eigenvalues --   -0.29004  -0.28900  -0.28183  -0.27478  -0.27041
 Alpha  occ. eigenvalues --   -0.26185  -0.25196  -0.24500  -0.22575  -0.21838
 Alpha  occ. eigenvalues --   -0.21575  -0.20950  -0.19683  -0.17658  -0.13706
 Alpha  occ. eigenvalues --   -0.11991  -0.11212  -0.07779   0.05296
 Alpha virt. eigenvalues --    0.07102   0.07814   0.08710   0.09498   0.10010
 Alpha virt. eigenvalues --    0.10374   0.10543   0.11393   0.11724   0.11942
 Alpha virt. eigenvalues --    0.12659   0.13139   0.13367   0.14211   0.14406

  Beta  occ. eigenvalues --  -88.72351 -19.02169 -10.11156 -10.05676 -10.05403
  Beta  occ. eigenvalues --  -10.04960 -10.04758 -10.04449 -10.04036 -10.03850
  Beta  occ. eigenvalues --  -10.03445 -10.03337 -10.03118 -10.02876 -10.02264
  Beta  occ. eigenvalues --   -7.81012  -5.77326  -5.76974  -5.76504  -0.92241
  Beta  occ. eigenvalues --   -0.73982  -0.72274  -0.65678  -0.63770  -0.62193
  Beta  occ. eigenvalues --   -0.58869  -0.57258  -0.54954  -0.53254  -0.46932
  Beta  occ. eigenvalues --   -0.45503  -0.42520  -0.39914  -0.39500  -0.35904
  Beta  occ. eigenvalues --   -0.34619  -0.34193  -0.33313  -0.31920  -0.31582
  Beta  occ. eigenvalues --   -0.28908  -0.28787  -0.28103  -0.27420  -0.26934
  Beta  occ. eigenvalues --   -0.26015  -0.24643  -0.24220  -0.22361  -0.21461
  Beta  occ. eigenvalues --   -0.21259  -0.20707  -0.19502  -0.17594  -0.12439
  Beta  occ. eigenvalues --   -0.11398  -0.10491  -0.06437
  Beta virt. eigenvalues --    0.07185   0.07730   0.08629   0.09402   0.09851
  Beta virt. eigenvalues --    0.09959   0.10403   0.10622   0.11382   0.11691
  Beta virt. eigenvalues --    0.12068   0.12632   0.13227   0.13281   0.14321

 Mulliken charges and spin densities:
               1          2
     1  C   -0.112866  -0.481380
     2  C    0.446426   0.361637
     3  C   -0.459090   0.334604
     4  C   -0.557730   0.179403
     5  C    0.944341  -0.003791
     6  C   -0.532273  -0.079653
     7  C   -0.597142  -0.181913
     8  C    0.444757  -0.061663
     9  C    0.346884   0.124044
    10  C   -0.719727   0.095462
    11  C    0.255856   0.361665
    12  S   -0.832917   0.102797
    13  C   -0.156385  -0.326768
    14  O   -0.261063  -0.001468
    15  C   -0.377676  -0.087188
    16  H   -0.057028   0.200419
    17  H    0.131036  -0.003097
    18  H   -0.030021   0.161419
    19  H    0.032367  -0.015509
    20  H    0.069868   0.025967
    21  H    0.102788  -0.011752
    22  H    0.056730   0.026537
    23  H    0.163667   0.040247
    24  H    0.152139  -0.002959
    25  H    0.062541   0.098591
    26  H    0.193547   0.030475
    27  H    0.124213   0.027298
    28  H    0.075894   0.046990
    29  H    0.090862   0.039586
 Sum of Mulliken charges =  -1.00000   1.00000

 Dipole moment (field-independent basis, Debye):
    X=              0.4115    Y=             -0.1051    Z=              1.5298  Tot=              1.5876
 Quadrupole moment (field-independent basis, Debye-Ang):
   XX=           -169.5340   YY=           -109.7522   ZZ=           -110.5500
   XY=              1.6872   XZ=              0.8618   YZ=              1.8369

 Summary of Natural Population Analysis:

                                       Natural Population
                Natural  -----------------------------------------------
    Atom  No    Charge         Core      Valence    Rydberg      Total
 -----------------------------------------------------------------------
      C    1   -0.29481      0.99965     2.28990    0.00526     3.29481
      C    2   -0.00322      0.99953     1.98861    0.01509     3.00322
      C    3    0.03077      0.99948     1.96089    0.00886     2.96923
      C    4   -0.09363      0.99954     2.07609    0.01800     3.09363
      C    5   -0.03170      0.99952     2.01624    0.01595     3.03170
      C    6   -0.07871      0.99953     2.06904    0.01014     3.07871
      C    7   -0.11326      0.99953     2.10386    0.00987     3.11326
      C    8   -0.01494      0.99945     2.00418    0.01131     3.01494
      C    9   -0.12123      0.99950     2.10724    0.01450     3.12123
      C   10   -0.08823      0.99947     2.07535    0.01341     3.08823
      C   11   -0.15376      0.99946     2.14159    0.01270     3.15376
      S   12    0.19828      4.99946     2.77789    0.02437     7.80172
      C   13   -0.00687      0.99955     1.99482    0.01250     3.00687
      O   14   -0.37035      0.99990     3.36351    0.00694     4.37035
      C   15   -0.30601      0.99968     2.29436    0.01196     3.30601
      H   16    0.10082      0.00000     0.39762    0.00156     0.39918
      H   17    0.09732      0.00000     0.40165    0.00103     0.40268
      H   18    0.09739      0.00000     0.40181    0.00080     0.40261
      H   19    0.09445      0.00000     0.40388    0.00167     0.40555
      H   20    0.09466      0.00000     0.40403    0.00132     0.40534
      H   21    0.09038      0.00000     0.40858    0.00104     0.40962
      H   22    0.09856      0.00000     0.40014    0.00130     0.40144
      H   23    0.10212      0.00000     0.39639    0.00150     0.39788
      H   24    0.08497      0.00000     0.41312    0.00191     0.41503
      H   25    0.07425      0.00000     0.42340    0.00235     0.42575
      H   26    0.22526      0.00000     0.27136    0.00337     0.27474
      H   27    0.09909      0.00000     0.40010    0.00081     0.40091
      H   28    0.09678      0.00000     0.40219    0.00103     0.40322
      H   29    0.09838      0.00000     0.40063    0.00099     0.40162
 =======================================================================
   * Total *    0.00674     18.99326    38.78848    0.21151    57.99326

 Normal termination of Gaussian 16 at Thu Dec 10 16:15:03 2020.
