 Gaussian 16, Revision A.03,

 -----------------------------------------------------------
 # opt freq B3LYP/6-31G(d) empiricaldispersion=gd3bj scf=xqc
 -----------------------------------------------------------

 ------------------------------
 CID_64136569_JID_1431_neutraal
 ------------------------------
 Symbolic Z-matrix:
 Charge =  0 Multiplicity = 1

 SCF Done:  E(RB3LYP) =  -504.288564722     A.U. after   13 cycles
 SCF Done:  E(RB3LYP) =  -504.291015169     A.U. after   10 cycles
 SCF Done:  E(RB3LYP) =  -504.291283445     A.U. after   10 cycles
 SCF Done:  E(RB3LYP) =  -504.291334667     A.U. after    9 cycles
 SCF Done:  E(RB3LYP) =  -504.291348927     A.U. after    9 cycles
 SCF Done:  E(RB3LYP) =  -504.291356238     A.U. after    9 cycles
 SCF Done:  E(RB3LYP) =  -504.291357960     A.U. after    8 cycles
 SCF Done:  E(RB3LYP) =  -504.291358112     A.U. after    7 cycles
 SCF Done:  E(RB3LYP) =  -504.291358151     A.U. after    6 cycles
 Optimization completed.
    -- Stationary point found.

 1\1\GINC-NODE307\FOpt\RB3LYP\6-31G(d)\C9H18O2\VSC10255\08-Dec-2020\0\\
 # opt freq B3LYP/6-31G(d) empiricaldispersion=gd3bj scf=xqc\\CID_64136
 569_JID_1431_neutraal\\0,1\C,0.9705634212,0.074281799,-0.0117764212\C,
 -0.0438410238,-1.0404158865,-0.2743724734\C,0.5131621623,-2.4304608338
 ,0.0130933399\C,-0.4798012968,-3.5501975132,-0.310850167\C,0.066003022
 4,-4.9382602736,0.0752829407\C,0.5610974291,-4.8909685354,1.527396982\
 C,1.4864495299,-3.6961454121,1.7553526734\O,0.856919113,-2.4725708915,
 1.3980342788\C,-1.0077824067,-6.0180537591,-0.147962518\C,-0.550094254

 Normal termination of Gaussian 16 at Tue Dec  8 19:57:35 2020.

 --------------------------------------------------------------------
 #N Geom=AllCheck Guess=TCheck SCRF=Check GenChk RB3LYP/6-31G(d) Freq
 --------------------------------------------------------------------

 Structure from the checkpoint file:  "JID_1431.chk"
 ------------------------------
 CID_64136569_JID_1431_neutraal
 ------------------------------
 Charge =  0 Multiplicity = 1

 SCF Done:  E(RB3LYP) =  -504.291358151     A.U. after    1 cycles

  Exact polarizability: 116.042  -1.589  96.936   1.107  -0.825  86.769
 Approx polarizability: 132.089  -1.641 137.830  -1.520  -2.890 136.293

                      1                      2                      3
                      A                      A                      A
 Frequencies --     71.9689               108.6172               109.9096
 Red. masses --      2.8242                 1.9620                 2.5064
 Frc consts  --      0.0086                 0.0136                 0.0178
 IR Inten    --      0.0447                 0.0366                 0.3252

                      4                      5                      6
                      A                      A                      A
 Frequencies --    145.9860               179.1880               220.6239
 Red. masses --      2.9890                 1.7418                 3.0064
 Frc consts  --      0.0375                 0.0330                 0.0862
 IR Inten    --      1.5328                 0.1872                 0.5746

                      7                      8                      9
                      A                      A                      A
 Frequencies --    234.1503               235.8252               300.4405
 Red. masses --      1.2189                 1.3870                 2.3076
 Frc consts  --      0.0394                 0.0454                 0.1227
 IR Inten    --      0.3799                 0.5445                 8.0792

                     10                     11                     12
                      A                      A                      A
 Frequencies --    301.5940               320.4486               343.4066
 Red. masses --      2.0529                 1.4417                 3.1206
 Frc consts  --      0.1100                 0.0872                 0.2168
 IR Inten    --     25.8720                73.5133                24.1659

                     13                     14                     15
                      A                      A                      A
 Frequencies --    361.6521               418.1189               457.5178
 Red. masses --      2.4489                 2.1533                 2.4703
 Frc consts  --      0.1887                 0.2218                 0.3047
 IR Inten    --      0.6793                 1.2987                11.0250

                     16                     17                     18
                      A                      A                      A
 Frequencies --    492.7947               516.1570               570.4525
 Red. masses --      2.6262                 2.8184                 3.1055
 Frc consts  --      0.3758                 0.4424                 0.5954
 IR Inten    --      4.3328                 1.4591                10.7927

                     19                     20                     21
                      A                      A                      A
 Frequencies --    623.2896               753.7786               774.0760
 Red. masses --      2.4030                 2.8214                 1.3975
 Frc consts  --      0.5500                 0.9445                 0.4934
 IR Inten    --      1.6705                 1.7104                 3.2434

                     22                     23                     24
                      A                      A                      A
 Frequencies --    798.9389               837.2392               892.6939
 Red. masses --      1.2683                 1.9734                 2.3748
 Frc consts  --      0.4770                 0.8150                 1.1150
 IR Inten    --      1.3697                 8.0704                11.6441

                     25                     26                     27
                      A                      A                      A
 Frequencies --    927.8840               950.8463               965.1269
 Red. masses --      1.9148                 2.0544                 2.1529
 Frc consts  --      0.9713                 1.0943                 1.1815
 IR Inten    --      6.5808                 9.8928                 2.9602

                     28                     29                     30
                      A                      A                      A
 Frequencies --    975.6662              1017.8441              1040.3105
 Red. masses --      2.0218                 1.8733                 2.2179
 Frc consts  --      1.1339                 1.1434                 1.4142
 IR Inten    --     17.8911                22.5287                 9.6563

                     31                     32                     33
                      A                      A                      A
 Frequencies --   1051.7851              1074.7776              1089.5381
 Red. masses --      1.9300                 1.9644                 1.6495
 Frc consts  --      1.2579                 1.3369                 1.1537
 IR Inten    --      1.7460                 2.8506                11.3748

                     34                     35                     36
                      A                      A                      A
 Frequencies --   1097.3852              1130.1768              1148.8144
 Red. masses --      2.2957                 2.5805                 2.0366
 Frc consts  --      1.6289                 1.9420                 1.5836
 IR Inten    --     23.0232                62.0379                36.2431

                     37                     38                     39
                      A                      A                      A
 Frequencies --   1161.8062              1178.6663              1214.6192
 Red. masses --      2.1564                 2.2553                 2.4117
 Frc consts  --      1.7149                 1.8460                 2.0963
 IR Inten    --     17.3695                53.0913                 9.1758

                     40                     41                     42
                      A                      A                      A
 Frequencies --   1230.4884              1283.0790              1298.2872
 Red. masses --      1.3089                 1.2902                 1.2633
 Frc consts  --      1.1676                 1.2514                 1.2546
 IR Inten    --     21.6576                 0.7604                16.1836

                     43                     44                     45
                      A                      A                      A
 Frequencies --   1305.5106              1320.2766              1332.4421
 Red. masses --      1.3004                 1.4124                 1.2058
 Frc consts  --      1.3058                 1.4505                 1.2613
 IR Inten    --      3.8172                25.4343                 4.2701

                     46                     47                     48
                      A                      A                      A
 Frequencies --   1367.7683              1384.9915              1396.2444
 Red. masses --      1.3322                 1.4109                 1.5696
 Frc consts  --      1.4684                 1.5945                 1.8029
 IR Inten    --      5.3159                13.6783                 2.9663

                     49                     50                     51
                      A                      A                      A
 Frequencies --   1400.9909              1426.2669              1430.0523
 Red. masses --      1.2709                 1.5229                 1.6841
 Frc consts  --      1.4697                 1.8252                 2.0292
 IR Inten    --     10.8482                23.3590                 6.8734

                     52                     53                     54
                      A                      A                      A
 Frequencies --   1435.7389              1440.5686              1447.5575
 Red. masses --      1.2607                 1.3344                 1.3968
 Frc consts  --      1.5311                 1.6316                 1.7245
 IR Inten    --      8.0191                 6.2923                 2.9652

                     55                     56                     57
                      A                      A                      A
 Frequencies --   1491.9825              1503.0331              1509.3327
 Red. masses --      1.0921                 1.0939                 1.0810
 Frc consts  --      1.4323                 1.4560                 1.4510
 IR Inten    --      1.7429                 1.3302                 0.9430

                     58                     59                     60
                      A                      A                      A
 Frequencies --   1517.0415              1526.0117              1528.6821
 Red. masses --      1.0864                 1.0466                 1.0601
 Frc consts  --      1.4731                 1.4359                 1.4596
 IR Inten    --      1.1315                 5.2489                 0.9806

                     61                     62                     63
                      A                      A                      A
 Frequencies --   1531.2904              1540.5636              1542.5444
 Red. masses --      1.0746                 1.0580                 1.0581
 Frc consts  --      1.4846                 1.4794                 1.4834
 IR Inten    --      5.4313                 5.2502                 5.4687

                     64                     65                     66
                      A                      A                      A
 Frequencies --   2981.9367              3011.1817              3023.0237
 Red. masses --      1.0824                 1.0673                 1.0652
 Frc consts  --      5.6705                 5.7015                 5.7355
 IR Inten    --     27.1243                18.0735                66.4296

                     67                     68                     69
                      A                      A                      A
 Frequencies --   3025.0336              3039.3337              3050.0968
 Red. masses --      1.0661                 1.0602                 1.0398
 Frc consts  --      5.7477                 5.7704                 5.6996
 IR Inten    --     16.0008                38.7335                32.5185

                     70                     71                     72
                      A                      A                      A
 Frequencies --   3057.8976              3059.5911              3062.9635
 Red. masses --      1.0429                 1.0683                 1.0819
 Frc consts  --      5.7455                 5.8919                 5.9801
 IR Inten    --      9.1286                21.5855                16.6054

                     73                     74                     75
                      A                      A                      A
 Frequencies --   3072.6718              3080.5563              3106.5331
 Red. masses --      1.0983                 1.0990                 1.0959
 Frc consts  --      6.1095                 6.1445                 6.2314
 IR Inten    --      2.6326                64.5109                37.1319

                     76                     77                     78
                      A                      A                      A
 Frequencies --   3111.5513              3112.0340              3121.6743
 Red. masses --      1.1038                 1.1020                 1.1020
 Frc consts  --      6.2966                 6.2881                 6.3269
 IR Inten    --     11.2266                83.0357                36.8370

                     79                     80                     81
                      A                      A                      A
 Frequencies --   3136.2275              3142.2818              3725.6520
 Red. masses --      1.1022                 1.1009                 1.0659
 Frc consts  --      6.3876                 6.4043                 8.7168
 IR Inten    --     25.5760                25.4312                 6.1570

 - Thermochemistry -
 -------------------
 Temperature   298.150 Kelvin.  Pressure   1.00000 Atm.
 Atom     1 has atomic number  6 and mass  12.00000

 Molecular mass:   158.13068 amu.
 Principal axes and moments of inertia in atomic units:
                           1         2         3
     Eigenvalues --   765.137882939.465293235.35659
           X            0.99994  -0.00626   0.00882
           Y            0.00614   0.99988   0.01405
           Z           -0.00890  -0.01400   0.99986
 This molecule is an asymmetric top.
 Rotational symmetry number  1.
 Warning -- assumption of classical behavior for rotation
           may cause significant error
 Rotational temperatures (Kelvin)      0.11320     0.02947     0.02677
 Rotational constants (GHZ):           2.35871     0.61397     0.55782
 Zero-point vibrational energy     695060.9 (Joules/Mol)
                                  166.12353 (Kcal/Mol)
 Warning -- explicit consideration of  18 degrees of freedom as
           vibrations may cause significant error
 Vibrational temperatures:    103.55   156.28   158.14   210.04   257.81
          (Kelvin)            317.43   336.89   339.30   432.27   433.93
                              461.05   494.09   520.34   601.58   658.27
                              709.02   742.63   820.75   896.77  1084.52
                             1113.72  1149.49  1204.60  1284.39  1335.02
                             1368.06  1388.60  1403.77  1464.45  1496.77
                             1513.28  1546.37  1567.60  1578.89  1626.07
                             1652.89  1671.58  1695.84  1747.57  1770.40
                             1846.06  1867.95  1878.34  1899.58  1917.09
                             1967.91  1992.69  2008.88  2015.71  2052.08
                             2057.53  2065.71  2072.66  2082.71  2146.63
                             2162.53  2171.59  2182.68  2195.59  2199.43
                             2203.19  2216.53  2219.38  4290.34  4332.42
                             4349.46  4352.35  4372.92  4388.41  4399.63
                             4402.07  4406.92  4420.89  4432.23  4469.61
                             4476.83  4477.52  4491.39  4512.33  4521.04
                             5360.38

 Zero-point correction=                           0.264735 (Hartree/Particle)
 Thermal correction to Energy=                    0.276848
 Thermal correction to Enthalpy=                  0.277792
 Thermal correction to Gibbs Free Energy=         0.227577
 Sum of electronic and zero-point Energies=           -504.026623
 Sum of electronic and thermal Energies=              -504.014510
 Sum of electronic and thermal Enthalpies=            -504.013566
 Sum of electronic and thermal Free Energies=         -504.063781

                     E (Thermal)             CV                S
                      KCal/Mol        Cal/Mol-Kelvin    Cal/Mol-Kelvin
 Total                  173.725             46.800            105.687
 Electronic               0.000              0.000              0.000
 Translational            0.889              2.981             41.084
 Rotational               0.889              2.981             30.366
 Vibrational            171.947             40.838             34.238
 Vibration     1          0.598              1.967              4.099
 Vibration     2          0.606              1.942              3.293
 Vibration     3          0.606              1.941              3.271
 Vibration     4          0.617              1.907              2.724
 Vibration     5          0.629              1.868              2.337
 Vibration     6          0.647              1.810              1.954
 Vibration     7          0.654              1.789              1.847
 Vibration     8          0.655              1.786              1.834
 Vibration     9          0.693              1.673              1.414
 Vibration    10          0.694              1.671              1.408
 Vibration    11          0.706              1.634              1.308
 Vibration    12          0.722              1.589              1.196
 Vibration    13          0.736              1.551              1.115
 Vibration    14          0.781              1.431              0.898
 Vibration    15          0.816              1.344              0.773
 Vibration    16          0.848              1.266              0.676
 Vibration    17          0.871              1.214              0.619
 Vibration    18          0.927              1.095              0.503

 Optimization completed.
    -- Stationary point found.

 1\1\GINC-NODE307\Freq\RB3LYP\6-31G(d)\C9H18O2\VSC10255\08-Dec-2020\0\\
 #N Geom=AllCheck Guess=TCheck SCRF=Check GenChk RB3LYP/6-31G(d) Freq\\
 CID_64136569_JID_1431_neutraal\\0,1\C,0.9705634212,0.074281799,-0.0117
 764212\C,-0.0438410238,-1.0404158865,-0.2743724734\C,0.5131621623,-2.4
 304608338,0.0130933399\C,-0.4798012968,-3.5501975132,-0.310850167\C,0.
 0660030224,-4.9382602736,0.0752829407\C,0.5610974291,-4.8909685354,1.5
 27396982\C,1.4864495299,-3.6961454121,1.7553526734\O,0.856919113,-2.47
 25708915,1.3980342788\C,-1.0077824067,-6.0180537591,-0.147962518\C,-0.

 Normal termination of Gaussian 16 at Tue Dec  8 20:03:39 2020.

 ----------------------------------------------------------------------
 # B3LYP/6-311++G(d,p) empiricaldispersion=gd3bj scf=xqc pop=npa geom=c
 heck
 ----------------------------------------------------------------------

 --------------------------------------
 CID_64136569_JID_1431_Energie_neutraal
 --------------------------------------
 Structure from the checkpoint file:  "JID_1431.chk"
 Charge =  0 Multiplicity = 1

 SCF Done:  E(RB3LYP) =  -504.444549425     A.U. after   13 cycles
 Normal termination of Gaussian 16 at Tue Dec  8 20:05:49 2020.

 ----------------------------------------------------------------------
 # B3LYP/6-311++G(d,p) empiricaldispersion=gd3bj scf=xqc pop=npa geom=c
 heck
 ----------------------------------------------------------------------

 ------------------------------------
 CID_64136569_JID_1431_Energie_kation
 ------------------------------------
 Structure from the checkpoint file:  "JID_1431.chk"
 Charge =  1 Multiplicity = 2

 SCF Done:  E(UB3LYP) =  -504.121374144     A.U. after   21 cycles
 Normal termination of Gaussian 16 at Tue Dec  8 20:10:23 2020.
 Gaussian 16:  ES64L-G16RevA.03 25-Dec-2016

 -----------------------------------
 CID_64136569_JID_1431_Energie_anion
 -----------------------------------
 Structure from the checkpoint file:  "JID_1431.chk"
 Charge = -1 Multiplicity = 2

                         Standard orientation:
 ---------------------------------------------------------------------
 Center     Atomic      Atomic             Coordinates (Angstroms)
 Number     Number       Type             X           Y           Z
 ---------------------------------------------------------------------
      1          6           0        3.919885   -0.284626    0.194097
      2          6           0        2.649820   -0.965005   -0.320242
      3          6           0        1.374313   -0.265563    0.136899
      4          6           0        0.102259   -0.982804   -0.323721
      5          6           0       -1.172220   -0.210024    0.066450
      6          6           0       -1.029668    1.247486   -0.393261
      7          6           0        0.304295    1.840100    0.059721
      8          8           0        1.402949    1.059689   -0.393091
      9          6           0       -2.417352   -0.896353   -0.522961
     10          6           0       -3.744055   -0.227589   -0.157203
     11          8           0       -1.280968   -0.143823    1.501263
     12          1           0        3.956355    0.755769   -0.140100
     13          1           0        4.818169   -0.797296   -0.166834
     14          1           0        3.949372   -0.286521    1.290650
     15          1           0        2.653979   -0.988583   -1.417925
     16          1           0        2.612466   -2.008418    0.020310
     17          1           0        1.363095   -0.205447    1.238475
     18          1           0        0.063592   -1.994056    0.107569
     19          1           0        0.137517   -1.099347   -1.414532
     20          1           0       -1.088736    1.280153   -1.487814
     21          1           0       -1.854867    1.843947    0.009864
     22          1           0        0.322647    1.916679    1.156864
     23          1           0        0.449783    2.839897   -0.360190
     24          1           0       -2.307365   -0.950342   -1.613938
     25          1           0       -2.422544   -1.938449   -0.167720
     26          1           0       -3.841101    0.758275   -0.623970
     27          1           0       -4.591468   -0.835747   -0.491052
     28          1           0       -3.818818   -0.094155    0.926212
     29          1           0       -1.301590   -1.057022    1.830075
 ---------------------------------------------------------------------

 SCF Done:  E(UB3LYP) =  -504.429094222     A.U. after   26 cycles

 The electronic state is 2-A.
 Alpha  occ. eigenvalues --  -19.01563 -19.00748 -10.11874 -10.11020 -10.10881
 Alpha  occ. eigenvalues --  -10.06335 -10.05948 -10.05829 -10.05615 -10.05499
 Alpha  occ. eigenvalues --  -10.04639  -0.93311  -0.91054  -0.69729  -0.69240
 Alpha  occ. eigenvalues --   -0.64032  -0.63136  -0.55424  -0.53804  -0.50953
 Alpha  occ. eigenvalues --   -0.46816  -0.45895  -0.38952  -0.38238  -0.37054
 Alpha  occ. eigenvalues --   -0.35326  -0.34587  -0.33755  -0.32557  -0.31543
 Alpha  occ. eigenvalues --   -0.29579  -0.28506  -0.27109  -0.26463  -0.26282
 Alpha  occ. eigenvalues --   -0.25869  -0.24328  -0.23798  -0.23448  -0.22732
 Alpha  occ. eigenvalues --   -0.20273  -0.19990  -0.17176  -0.14580   0.04830
 Alpha virt. eigenvalues --    0.06938   0.07667   0.08379   0.08637   0.09791
 Alpha virt. eigenvalues --    0.10168   0.10415   0.10860   0.11542   0.12023
 Alpha virt. eigenvalues --    0.12780   0.13060   0.13886   0.14426   0.14625

  Beta  occ. eigenvalues --  -19.01552 -19.00702 -10.11874 -10.11013 -10.10874
  Beta  occ. eigenvalues --  -10.06318 -10.05926 -10.05815 -10.05589 -10.05466
  Beta  occ. eigenvalues --  -10.04608  -0.93288  -0.90959  -0.69681  -0.69208
  Beta  occ. eigenvalues --   -0.63987  -0.63100  -0.55382  -0.53752  -0.50886
  Beta  occ. eigenvalues --   -0.46755  -0.45820  -0.38916  -0.38193  -0.37007
  Beta  occ. eigenvalues --   -0.35294  -0.34546  -0.33704  -0.32535  -0.31512
  Beta  occ. eigenvalues --   -0.29542  -0.28461  -0.27072  -0.26407  -0.26240
  Beta  occ. eigenvalues --   -0.25824  -0.24299  -0.23761  -0.23409  -0.22691
  Beta  occ. eigenvalues --   -0.20217  -0.19961  -0.17129  -0.14534
  Beta virt. eigenvalues --    0.07069   0.07628   0.08422   0.08856   0.09314
  Beta virt. eigenvalues --    0.10097   0.10657   0.11020   0.11209   0.11764
  Beta virt. eigenvalues --    0.12357   0.13049   0.13351   0.14249   0.14717

 Mulliken charges and spin densities:
               1          2
     1  C   -0.305778  -0.290215
     2  C    0.188957  -0.480137
     3  C   -1.070629   1.097800
     4  C    0.595740  -1.589716
     5  C    0.080416   0.547801
     6  C    0.741533  -1.106460
     7  C    0.066086  -0.453363
     8  O   -0.092898   0.037874
     9  C   -0.256561   0.213822
    10  C    1.208598  -1.842401
    11  O   -0.156281  -0.003861
    12  H    0.126972   0.026726
    13  H   -0.183570   0.319911
    14  H   -0.037203   0.159211
    15  H    0.082043   0.062149
    16  H   -0.206789   0.350514
    17  H    0.158879  -0.005175
    18  H   -0.284173   0.475891
    19  H   -0.011322   0.179436
    20  H   -0.251508   0.432650
    21  H    0.225501  -0.075768
    22  H    0.084537   0.075916
    23  H    0.020899   0.150792
    24  H   -0.050062   0.177942
    25  H   -0.598702   0.757793
    26  H   -0.223748   0.355385
    27  H   -0.582188   0.731134
    28  H    0.024083   0.133426
    29  H   -0.292831   0.560923
 Sum of Mulliken charges =  -1.00000   1.00000

 Dipole moment (field-independent basis, Debye):
    X=              3.7084    Y=              4.6390    Z=             -0.8510  Tot=              5.9997
 Quadrupole moment (field-independent basis, Debye-Ang):
   XX=           -139.7818   YY=           -108.4378   ZZ=           -102.8597
   XY=             -5.0310   XZ=             -0.7958   YZ=              5.6059

 Summary of Natural Population Analysis:

                                       Natural Population
                Natural  -----------------------------------------------
    Atom  No    Charge         Core      Valence    Rydberg      Total
 -----------------------------------------------------------------------
      C    1   -0.28419      0.99966     2.28012    0.00441     3.28419
      C    2   -0.19466      0.99961     2.18584    0.00921     3.19466
      C    3    0.06663      0.99954     1.91896    0.01487     2.93337
      C    4   -0.21186      0.99956     2.20138    0.01092     3.21186
      C    5    0.13475      0.99951     1.84910    0.01664     2.86525
      C    6   -0.21087      0.99957     2.20167    0.00963     3.21087
      C    7   -0.00632      0.99958     1.99547    0.01127     3.00632
      O    8   -0.30722      0.99988     3.29889    0.00845     4.30722
      C    9   -0.19800      0.99958     2.18845    0.00997     3.19800
      C   10   -0.28788      0.99966     2.28218    0.00603     3.28788
      O   11   -0.38541      0.99989     3.37876    0.00676     4.38541
      H   12    0.10204      0.00000     0.39660    0.00135     0.39796
      H   13    0.09518      0.00000     0.40393    0.00089     0.40482
      H   14    0.09459      0.00000     0.40432    0.00109     0.40541
      H   15    0.09563      0.00000     0.40309    0.00128     0.40437
      H   16    0.09981      0.00000     0.39892    0.00127     0.40019
      H   17    0.08184      0.00000     0.41594    0.00222     0.41816
      H   18    0.10605      0.00000     0.39159    0.00235     0.39395
      H   19    0.10246      0.00000     0.39594    0.00160     0.39754
      H   20    0.10163      0.00000     0.39714    0.00123     0.39837
      H   21    0.10606      0.00000     0.39281    0.00113     0.39394
      H   22    0.08328      0.00000     0.41523    0.00150     0.41672
      H   23    0.08648      0.00000     0.41246    0.00106     0.41352
      H   24    0.09851      0.00000     0.39992    0.00157     0.40149
      H   25    0.09954      0.00000     0.39773    0.00273     0.40046
      H   26    0.09415      0.00000     0.40484    0.00101     0.40585
      H   27    0.09996      0.00000     0.39883    0.00120     0.40004
      H   28    0.10372      0.00000     0.39497    0.00131     0.39628
      H   29    0.23409      0.00000     0.25924    0.00667     0.26591
 =======================================================================
   * Total *    0.00000     10.99603    32.86432    0.13964    44.00000

 Normal termination of Gaussian 16 at Tue Dec  8 20:16:41 2020.
