 Gaussian 16, Revision A.03,

 -----------------------------------------------------------
 # opt freq B3LYP/6-31G(d) empiricaldispersion=gd3bj scf=xqc
 -----------------------------------------------------------

 -------------------------------
 CID_107645134_JID_9013_neutraal
 -------------------------------
 Symbolic Z-matrix:
 Charge =  0 Multiplicity = 1

 SCF Done:  E(RB3LYP) =  -1216.16191941     A.U. after   15 cycles
 SCF Done:  E(RB3LYP) =  -1216.16822579     A.U. after   14 cycles
 SCF Done:  E(RB3LYP) =  -1216.16841851     A.U. after   13 cycles
 SCF Done:  E(RB3LYP) =  -1216.17048660     A.U. after   13 cycles
 SCF Done:  E(RB3LYP) =  -1216.17116387     A.U. after   12 cycles
 SCF Done:  E(RB3LYP) =  -1216.17130741     A.U. after   12 cycles
 SCF Done:  E(RB3LYP) =  -1216.17146093     A.U. after   12 cycles
 SCF Done:  E(RB3LYP) =  -1216.17153370     A.U. after   11 cycles
 SCF Done:  E(RB3LYP) =  -1216.17151394     A.U. after   11 cycles
 SCF Done:  E(RB3LYP) =  -1216.17156388     A.U. after   11 cycles
 SCF Done:  E(RB3LYP) =  -1216.17161876     A.U. after    9 cycles
 SCF Done:  E(RB3LYP) =  -1216.17162428     A.U. after   11 cycles
 SCF Done:  E(RB3LYP) =  -1216.17162679     A.U. after   10 cycles
 SCF Done:  E(RB3LYP) =  -1216.17162761     A.U. after    9 cycles
 SCF Done:  E(RB3LYP) =  -1216.17162810     A.U. after    9 cycles
 SCF Done:  E(RB3LYP) =  -1216.17162865     A.U. after    9 cycles
 Optimization completed.
    -- Stationary point found.
 Normal termination of Gaussian 16 at Sun Dec 13 12:38:43 2020.

 --------------------------------------------------------------------
 #N Geom=AllCheck Guess=TCheck SCRF=Check GenChk RB3LYP/6-31G(d) Freq
 --------------------------------------------------------------------

 Structure from the checkpoint file:  "JID_9013.chk"
 -------------------------------
 CID_107645134_JID_9013_neutraal
 -------------------------------
 Charge =  0 Multiplicity = 1

 SCF Done:  E(RB3LYP) =  -1216.17162865     A.U. after    1 cycles

  Exact polarizability: 277.586  21.306 140.217  -4.445  11.040 134.013
 Approx polarizability: 378.762  33.223 226.449 -14.586  32.052 254.763

                      1                      2                      3
                      A                      A                      A
 Frequencies --     11.2945                29.1222                42.3547
 Red. masses --      6.3540                 6.0560                 5.6976
 Frc consts  --      0.0005                 0.0030                 0.0060
 IR Inten    --      0.1543                 1.6188                 0.7483

                      4                      5                      6
                      A                      A                      A
 Frequencies --     72.9649                89.0230               103.6514
 Red. masses --      5.8122                 3.0601                 3.2490
 Frc consts  --      0.0182                 0.0143                 0.0206
 IR Inten    --      0.2108                 1.4233                 0.1701

                      7                      8                      9
                      A                      A                      A
 Frequencies --    114.2218               133.8211               138.5568
 Red. masses --      2.8609                 2.8044                 1.1810
 Frc consts  --      0.0220                 0.0296                 0.0134
 IR Inten    --      2.0941                 0.6217                 0.0410

                     10                     11                     12
                      A                      A                      A
 Frequencies --    178.4571               187.8102               203.4868
 Red. masses --      1.9040                 4.9888                 3.7480
 Frc consts  --      0.0357                 0.1037                 0.0914
 IR Inten    --      7.1091                 0.9530                 3.2865

                     13                     14                     15
                      A                      A                      A
 Frequencies --    230.1998               235.9826               263.2329
 Red. masses --      3.5420                 4.1927                 6.6067
 Frc consts  --      0.1106                 0.1376                 0.2697
 IR Inten    --      3.4611                 1.5627                 0.7166

                     16                     17                     18
                      A                      A                      A
 Frequencies --    305.8135               335.0515               368.5007
 Red. masses --      4.6062                 4.5269                 6.5537
 Frc consts  --      0.2538                 0.2994                 0.5243
 IR Inten    --      5.8246                15.9337                 3.7486

                     19                     20                     21
                      A                      A                      A
 Frequencies --    375.7598               414.7806               460.6571
 Red. masses --      1.1872                 8.6580                 5.1153
 Frc consts  --      0.0988                 0.8776                 0.6396
 IR Inten    --     98.6521                 0.9605                 2.0912

                     22                     23                     24
                      A                      A                      A
 Frequencies --    468.4632               472.3538               500.4621
 Red. masses --      7.3822                 3.8314                 7.5142
 Frc consts  --      0.9545                 0.5037                 1.1089
 IR Inten    --     55.4677                 7.6909                 0.7395

                     25                     26                     27
                      A                      A                      A
 Frequencies --    538.6581               567.3126               623.8474
 Red. masses --      4.1951                 6.2041                 7.6235
 Frc consts  --      0.7172                 1.1764                 1.7481
 IR Inten    --      5.9450                 2.6979                 0.8265

                     28                     29                     30
                      A                      A                      A
 Frequencies --    644.5454               687.8018               697.1180
 Red. masses --      5.9633                 5.9684                 6.9666
 Frc consts  --      1.4596                 1.6636                 1.9947
 IR Inten    --      6.8244                 3.2561                 2.5372

                     31                     32                     33
                      A                      A                      A
 Frequencies --    710.6326               745.7386               757.5566
 Red. masses --      6.5226                 3.6788                 3.3778
 Frc consts  --      1.9407                 1.2054                 1.1421
 IR Inten    --      1.5215                 9.9831                 9.2973

                     34                     35                     36
                      A                      A                      A
 Frequencies --    776.3693               784.5860               818.7662
 Red. masses --      1.5862                 4.2333                 4.8270
 Frc consts  --      0.5633                 1.5354                 1.9066
 IR Inten    --     38.1624                 9.3482                 9.9883

                     37                     38                     39
                      A                      A                      A
 Frequencies --    866.3131               889.8678               894.9807
 Red. masses --      3.0575                 1.6296                 1.6188
 Frc consts  --      1.3520                 0.7603                 0.7639
 IR Inten    --      2.9980                 1.4017                 5.8364

                     40                     41                     42
                      A                      A                      A
 Frequencies --    940.9789               954.8304               958.4441
 Red. masses --      1.4627                 1.6229                 3.3530
 Frc consts  --      0.7631                 0.8718                 1.8147
 IR Inten    --      0.3414                 4.0178                 2.4740

                     43                     44                     45
                      A                      A                      A
 Frequencies --    988.6974               999.2102              1013.0613
 Red. masses --      1.2737                 1.2023                 1.2558
 Frc consts  --      0.7336                 0.7072                 0.7593
 IR Inten    --      0.0332                 3.3079                12.6583

                     46                     47                     48
                      A                      A                      A
 Frequencies --   1028.0160              1057.0640              1067.9948
 Red. masses --      5.7046                 7.1827                 3.5092
 Frc consts  --      3.5520                 4.7287                 2.3583
 IR Inten    --     34.2402                34.9875                 7.2637

                     49                     50                     51
                      A                      A                      A
 Frequencies --   1093.5006              1156.7968              1186.7633
 Red. masses --      2.7668                 1.6467                 1.2737
 Frc consts  --      1.9492                 1.2983                 1.0569
 IR Inten    --      8.0054                10.6269                 0.8627

                     52                     53                     54
                      A                      A                      A
 Frequencies --   1193.2061              1195.4606              1196.2629
 Red. masses --      2.6289                 1.3809                 1.5490
 Frc consts  --      2.2053                 1.1628                 1.3060
 IR Inten    --    150.2911                47.5485                40.9955

                     55                     56                     57
                      A                      A                      A
 Frequencies --   1230.6465              1267.5875              1288.9370
 Red. masses --      1.9543                 2.6682                 1.6502
 Frc consts  --      1.7438                 2.5259                 1.6153
 IR Inten    --    202.4448                 5.7709                 4.8391

                     58                     59                     60
                      A                      A                      A
 Frequencies --   1299.6316              1315.1745              1336.4998
 Red. masses --      2.7323                 3.3120                 8.1653
 Frc consts  --      2.7190                 3.3752                 8.5933
 IR Inten    --    248.2916                15.9486                 7.7291

                     61                     62                     63
                      A                      A                      A
 Frequencies --   1367.6471              1391.1760              1430.8571
 Red. masses --      2.0369                 1.1555                 2.1221
 Frc consts  --      2.2448                 1.3176                 2.5598
 IR Inten    --    195.2278                 3.5890                 9.5590

                     64                     65                     66
                      A                      A                      A
 Frequencies --   1476.4478              1485.4648              1493.4751
 Red. masses --      2.6654                 2.1186                 1.2927
 Frc consts  --      3.4234                 2.7544                 1.6988
 IR Inten    --    194.9546                 8.3733                 4.2716

                     67                     68                     69
                      A                      A                      A
 Frequencies --   1499.0560              1512.1725              1517.3061
 Red. masses --      1.0675                 1.0478                 1.0732
 Frc consts  --      1.4134                 1.4117                 1.4558
 IR Inten    --     15.8505                 6.1591                 8.3850

                     70                     71                     72
                      A                      A                      A
 Frequencies --   1521.0269              1524.9244              1550.1746
 Red. masses --      2.5046                 1.0491                 3.6787
 Frc consts  --      3.4140                 1.4374                 5.2084
 IR Inten    --     37.7224                14.6135               190.0412

                     73                     74                     75
                      A                      A                      A
 Frequencies --   1601.1966              1622.3717              1629.2812
 Red. masses --      5.4547                 5.2083                 5.7839
 Frc consts  --      8.2396                 8.0770                 9.0462
 IR Inten    --    130.7607                 5.1439               135.1796

                     76                     77                     78
                      A                      A                      A
 Frequencies --   1650.7049              1827.4221              3073.0903
 Red. masses --      5.7664                11.9235                 1.0292
 Frc consts  --      9.2576                23.4602                 5.7268
 IR Inten    --      2.6822               195.6642                20.0853

                     79                     80                     81
                      A                      A                      A
 Frequencies --   3075.6529              3149.5946              3161.7248
 Red. masses --      1.0296                 1.1074                 1.1049
 Frc consts  --      5.7385                 6.4726                 6.5078
 IR Inten    --     41.8727                20.4325                 3.5464

                     82                     83                     84
                      A                      A                      A
 Frequencies --   3168.9730              3183.9886              3191.9756
 Red. masses --      1.1085                 1.1070                 1.0857
 Frc consts  --      6.5586                 6.6124                 6.5173
 IR Inten    --      5.1788                17.7552                 0.4806

                     85                     86                     87
                      A                      A                      A
 Frequencies --   3200.5716              3204.2207              3210.3626
 Red. masses --      1.0895                 1.0912                 1.0932
 Frc consts  --      6.5753                 6.6009                 6.6382
 IR Inten    --      8.0883                16.8418                13.8336

                     88                     89                     90
                      A                      A                      A
 Frequencies --   3218.9972              3237.7696              3590.6669
 Red. masses --      1.0977                 1.0922                 1.0755
 Frc consts  --      6.7015                 6.7462                 8.1694
 IR Inten    --     20.3061                 4.2843                39.8331

 - Thermochemistry -
 -------------------
 Temperature   298.150 Kelvin.  Pressure   1.00000 Atm.
 Atom     1 has atomic number  6 and mass  12.00000

 Molecular mass:   275.07285 amu.
 Principal axes and moments of inertia in atomic units:
                           1         2         3
     Eigenvalues --  2083.61446********************
           X            0.99998   0.00548   0.00141
           Y           -0.00539   0.99832  -0.05777
           Z           -0.00173   0.05776   0.99833
 This molecule is an asymmetric top.
 Rotational symmetry number  1.
 Warning -- assumption of classical behavior for rotation
           may cause significant error
 Rotational temperatures (Kelvin)      0.04157     0.00808     0.00785
 Rotational constants (GHZ):           0.86616     0.16827     0.16363
 Zero-point vibrational energy     647641.3 (Joules/Mol)
                                  154.78999 (Kcal/Mol)
 Warning -- explicit consideration of  26 degrees of freedom as
           vibrations may cause significant error
 Vibrational temperatures:     16.25    41.90    60.94   104.98   128.08
          (Kelvin)            149.13   164.34   192.54   199.35   256.76
                              270.22   292.77   331.21   339.53   378.73
                              440.00   482.06   530.19   540.63   596.78
                              662.78   674.01   679.61   720.05   775.01
                              816.24   897.58   927.36   989.59  1003.00
                             1022.44  1072.95  1089.96  1117.02  1128.84
                             1178.02  1246.43  1280.32  1287.68  1353.86
                             1373.79  1378.99  1422.52  1437.64  1457.57
                             1479.09  1520.88  1536.61  1573.30  1664.37
                             1707.49  1716.76  1720.00  1721.16  1770.63
                             1823.78  1854.49  1869.88  1892.24  1922.93
                             1967.74  2001.59  2058.68  2124.28  2137.25
                             2148.78  2156.81  2175.68  2183.07  2188.42
                             2194.03  2230.36  2303.76  2334.23  2344.17
                             2375.00  2629.25  4421.49  4425.18  4531.56
                             4549.02  4559.45  4581.05  4592.54  4604.91
                             4610.16  4619.00  4631.42  4658.43  5166.17

 Zero-point correction=                           0.246674 (Hartree/Particle)
 Thermal correction to Energy=                    0.264623
 Thermal correction to Enthalpy=                  0.265567
 Thermal correction to Gibbs Free Energy=         0.198128
 Sum of electronic and zero-point Energies=          -1215.924955
 Sum of electronic and thermal Energies=             -1215.907006
 Sum of electronic and thermal Enthalpies=           -1215.906061
 Sum of electronic and thermal Free Energies=        -1215.973501

                     E (Thermal)             CV                S
                      KCal/Mol        Cal/Mol-Kelvin    Cal/Mol-Kelvin
 Total                  166.053             66.008            141.938
 Electronic               0.000              0.000              0.000
 Translational            0.889              2.981             42.734
 Rotational               0.889              2.981             33.866
 Vibrational            164.276             60.047             65.338
 Vibration     1          0.593              1.987              7.769
 Vibration     2          0.593              1.984              5.888
 Vibration     3          0.595              1.980              5.146
 Vibration     4          0.599              1.967              4.072
 Vibration     5          0.602              1.957              3.681
 Vibration     6          0.605              1.946              3.384
 Vibration     7          0.607              1.938              3.196
 Vibration     8          0.613              1.920              2.890
 Vibration     9          0.614              1.915              2.824
 Vibration    10          0.629              1.869              2.344
 Vibration    11          0.632              1.857              2.249
 Vibration    12          0.639              1.835              2.101
 Vibration    13          0.652              1.795              1.877
 Vibration    14          0.655              1.786              1.833
 Vibration    15          0.670              1.740              1.640
 Vibration    16          0.696              1.663              1.385
 Vibration    17          0.716              1.606              1.236
 Vibration    18          0.741              1.537              1.086
 Vibration    19          0.747              1.522              1.056
 Vibration    20          0.778              1.438              0.910
 Vibration    21          0.818              1.337              0.764
 Vibration    22          0.826              1.320              0.742
 Vibration    23          0.829              1.311              0.731
 Vibration    24          0.856              1.249              0.657
 Vibration    25          0.894              1.165              0.568
 Vibration    26          0.923              1.102              0.509

                           ! Non-Optimized Parameters !
 Normal termination of Gaussian 16 at Sun Dec 13 12:53:00 2020.

 ----------------------------------------------------------------------
 # B3LYP/6-311++G(d,p) empiricaldispersion=gd3bj scf=xqc pop=npa geom=c
 heck
 ----------------------------------------------------------------------

 ---------------------------------------
 CID_107645134_JID_9013_Energie_neutraal
 ---------------------------------------
 Structure from the checkpoint file:  "JID_9013.chk"
 Charge =  0 Multiplicity = 1

 SCF Done:  E(RB3LYP) =  -1216.42075331     A.U. after   16 cycles
 Normal termination of Gaussian 16 at Sun Dec 13 12:59:40 2020.

 ----------------------------------------------------------------------
 # B3LYP/6-311++G(d,p) empiricaldispersion=gd3bj scf=xqc pop=npa geom=c
 heck
 ----------------------------------------------------------------------

 -------------------------------------
 CID_107645134_JID_9013_Energie_kation
 -------------------------------------
 Structure from the checkpoint file:  "JID_9013.chk"
 Charge =  1 Multiplicity = 2

 SCF Done:  E(UB3LYP) =  -1216.13120064     A.U. after   29 cycles
 Normal termination of Gaussian 16 at Sun Dec 13 13:16:55 2020.
 Gaussian 16:  ES64L-G16RevA.03 25-Dec-2016

 ----------------------------------------------------------------------
 # B3LYP/6-311++G(d,p) empiricaldispersion=gd3bj scf=xqc pop=npa geom=c
 heck
 ----------------------------------------------------------------------

 ------------------------------------
 CID_107645134_JID_9013_Energie_anion
 ------------------------------------
 Structure from the checkpoint file:  "JID_9013.chk"
 Charge = -1 Multiplicity = 2

                         Standard orientation:
 ---------------------------------------------------------------------
 Center     Atomic      Atomic             Coordinates (Angstroms)
 Number     Number       Type             X           Y           Z
 ---------------------------------------------------------------------
      1          6           0        6.019716    0.107097   -0.212746
      2          8           0        4.722693   -0.037694    0.383093
      3          6           0        3.706721   -0.204079   -0.495863
      4          8           0        3.854821   -0.233156   -1.696322
      5          6           0        2.393205   -0.341439    0.213983
      6          6           0        2.281501   -0.276616    1.601155
      7          7           0        1.088053   -0.402960    2.210066
      8          6           0        0.028342   -0.583144    1.438606
      9          6           0        0.141819   -0.646406    0.025661
     10          7           0        1.323687   -0.522279   -0.577780
     11          7           0       -0.937629   -0.865259   -0.798133
     12          6           0       -2.299231   -0.685172   -0.462046
     13          6           0       -3.187390   -1.741346   -0.698711
     14          6           0       -4.538606   -1.626170   -0.385889
     15          6           0       -5.016207   -0.447669    0.188503
     16          6           0       -4.147741    0.619802    0.403277
     17          6           0       -2.790444    0.530934    0.064634
     18         16           0       -1.773987    1.968473    0.366074
     19          6           0       -0.950520    2.230854   -1.250132
     20          1           0        6.712027    0.229762    0.620245
     21          1           0        6.044293    0.981860   -0.867921
     22          1           0        6.272823   -0.780580   -0.798380
     23          1           0        3.150058   -0.129191    2.231946
     24          1           0       -0.937683   -0.693231    1.922329
     25          1           0       -0.691411   -1.045683   -1.763377
     26          1           0       -2.790243   -2.664689   -1.110227
     27          1           0       -5.209777   -2.458844   -0.573359
     28          1           0       -6.065869   -0.349433    0.448630
     29          1           0       -4.521372    1.554705    0.808670
     30          1           0       -0.114578    1.545845   -1.404622
     31          1           0       -1.675497    2.137310   -2.061660
     32          1           0       -0.574868    3.257007   -1.225288
 ---------------------------------------------------------------------

 SCF Done:  E(UB3LYP) =  -1216.43760971     A.U. after   30 cycles

 The electronic state is 2-A.
 Alpha  occ. eigenvalues --  -88.74101 -19.02560 -18.94941 -14.21168 -14.15021
 Alpha  occ. eigenvalues --  -14.13980 -10.13276 -10.11870 -10.11067 -10.10696
 Alpha  occ. eigenvalues --  -10.09700 -10.08849 -10.08580 -10.08303 -10.08247
 Alpha  occ. eigenvalues --  -10.07863 -10.04819 -10.04400 -10.03773  -7.82695
 Alpha  occ. eigenvalues --   -5.79113  -5.78722  -5.78044  -0.96360  -0.86973
 Alpha  occ. eigenvalues --   -0.84908  -0.80269  -0.76081  -0.73583  -0.69641
 Alpha  occ. eigenvalues --   -0.65440  -0.64004  -0.62377  -0.59196  -0.55032
 Alpha  occ. eigenvalues --   -0.52715  -0.51156  -0.50415  -0.47933  -0.44503
 Alpha  occ. eigenvalues --   -0.42284  -0.40482  -0.38867  -0.37314  -0.36057
 Alpha  occ. eigenvalues --   -0.35804  -0.34838  -0.34499  -0.33771  -0.33532
 Alpha  occ. eigenvalues --   -0.32437  -0.31810  -0.30764  -0.29322  -0.28626
 Alpha  occ. eigenvalues --   -0.28212  -0.27042  -0.26165  -0.25790  -0.24566
 Alpha  occ. eigenvalues --   -0.23005  -0.22170  -0.20448  -0.17695  -0.17445
 Alpha  occ. eigenvalues --   -0.16820  -0.15339  -0.14834  -0.13034  -0.11499
 Alpha  occ. eigenvalues --   -0.09383  -0.08399   0.04009
 Alpha virt. eigenvalues --    0.06607   0.06933   0.07166   0.08052   0.08373
 Alpha virt. eigenvalues --    0.08839   0.10016   0.10772   0.11291   0.11556
 Alpha virt. eigenvalues --    0.11964   0.12284   0.12499   0.12717   0.12822

  Beta  occ. eigenvalues --  -88.74097 -19.02467 -18.94693 -14.21190 -14.14735
  Beta  occ. eigenvalues --  -14.13420 -10.13101 -10.11847 -10.11073 -10.10706
  Beta  occ. eigenvalues --  -10.09798 -10.08846 -10.08581 -10.08273 -10.08213
  Beta  occ. eigenvalues --  -10.07819 -10.04897 -10.04170 -10.03452  -7.82690
  Beta  occ. eigenvalues --   -5.79109  -5.78718  -5.78032  -0.96098  -0.86576
  Beta  occ. eigenvalues --   -0.84721  -0.79847  -0.75931  -0.72860  -0.69615
  Beta  occ. eigenvalues --   -0.65272  -0.63919  -0.62137  -0.58988  -0.54998
  Beta  occ. eigenvalues --   -0.52399  -0.50654  -0.50318  -0.47834  -0.44323
  Beta  occ. eigenvalues --   -0.42164  -0.40268  -0.38797  -0.37255  -0.35948
  Beta  occ. eigenvalues --   -0.35464  -0.34593  -0.34413  -0.33583  -0.33480
  Beta  occ. eigenvalues --   -0.32338  -0.31576  -0.30705  -0.29151  -0.28328
  Beta  occ. eigenvalues --   -0.27313  -0.27007  -0.26068  -0.25011  -0.24310
  Beta  occ. eigenvalues --   -0.22848  -0.22054  -0.19955  -0.17316  -0.16622
  Beta  occ. eigenvalues --   -0.15955  -0.14322  -0.13726  -0.12674  -0.11237
  Beta  occ. eigenvalues --   -0.08901  -0.07395
  Beta virt. eigenvalues --    0.06583   0.06971   0.07497   0.08046   0.08328
  Beta virt. eigenvalues --    0.08823   0.09992   0.10581   0.10786   0.11293
  Beta virt. eigenvalues --    0.11543   0.11997   0.12277   0.12727   0.12807

 Mulliken charges and spin densities:
               1          2
     1  C   -0.249686  -0.002303
     2  O   -0.126982   0.017879
     3  C    0.033787   0.077046
     4  O   -0.340522   0.087375
     5  C   -0.109852   0.172921
     6  C   -0.323592  -0.022293
     7  N   -0.071138   0.127053
     8  C   -0.340815   0.229845
     9  C   -0.193088  -0.056329
    10  N   -0.125256   0.264117
    11  N   -0.064883  -0.009877
    12  C   -0.173561   0.016153
    13  C   -0.007365   0.033034
    14  C   -0.226980  -0.000967
    15  C   -0.399624   0.010893
    16  C   -0.012865   0.106074
    17  C    0.142374  -0.109944
    18  S    0.248680   0.052142
    19  C   -0.794090  -0.006370
    20  H    0.117413  -0.000398
    21  H    0.157943   0.003003
    22  H    0.157742   0.003560
    23  H    0.170199   0.004848
    24  H    0.116081  -0.007600
    25  H    0.291863   0.007665
    26  H    0.155220  -0.003496
    27  H    0.144156   0.000625
    28  H    0.129384   0.000576
    29  H    0.171499   0.002443
    30  H    0.192416   0.000277
    31  H    0.154047   0.000997
    32  H    0.177495   0.001051
 Sum of Mulliken charges =  -1.00000   1.00000

 Dipole moment (field-independent basis, Debye):
    X=             -5.1790    Y=              1.1401    Z=             -1.7199  Tot=              5.5750
 Quadrupole moment (field-independent basis, Debye-Ang):
   XX=           -153.9086   YY=           -125.9081   ZZ=           -143.0962
   XY=              6.4734   XZ=              7.5203   YZ=              0.2680

 Summary of Natural Population Analysis:

                                       Natural Population
                Natural  -----------------------------------------------
    Atom  No    Charge         Core      Valence    Rydberg      Total
 -----------------------------------------------------------------------
      C    1   -0.10595      0.99962     2.09746    0.00887     3.10595
      O    2   -0.28039      0.99986     3.27209    0.00843     4.28039
      C    3    0.41380      0.99967     1.56237    0.02416     2.58620
      O    4   -0.29042      0.99987     3.28415    0.00640     4.29042
      C    5    0.06306      0.99949     1.92496    0.01248     2.93694
      C    6   -0.01413      0.99956     2.00181    0.01277     3.01413
      N    7   -0.19197      0.99971     2.68006    0.01221     3.69197
      C    8    0.04908      0.99956     1.93445    0.01691     2.95092
      C    9    0.15791      0.99953     1.82657    0.01599     2.84209
      N   10   -0.16022      0.99964     2.64818    0.01240     3.66022
      N   11   -0.32541      0.99964     2.81302    0.01275     3.82541
      C   12    0.07800      0.99941     1.91000    0.01259     2.92200
      C   13   -0.09764      0.99952     2.08958    0.00854     3.09764
      C   14   -0.10463      0.99957     2.09619    0.00886     3.10463
      C   15   -0.11246      0.99957     2.10370    0.00918     3.11246
      C   16   -0.09277      0.99951     2.08354    0.00972     3.09277
      C   17   -0.09980      0.99936     2.08661    0.01383     3.09980
      S   18    0.12105      4.99956     2.85831    0.02108     7.87895
      C   19   -0.34886      0.99961     2.34404    0.00521     3.34886
      H   20    0.08199      0.00000     0.41713    0.00088     0.41801
      H   21    0.08655      0.00000     0.41213    0.00132     0.41345
      H   22    0.08666      0.00000     0.41202    0.00133     0.41334
      H   23    0.09163      0.00000     0.40719    0.00119     0.40837
      H   24    0.08145      0.00000     0.41638    0.00217     0.41855
      H   25    0.19701      0.00000     0.30130    0.00168     0.30299
      H   26    0.10275      0.00000     0.39626    0.00100     0.39725
      H   27    0.09623      0.00000     0.40279    0.00098     0.40377
      H   28    0.09608      0.00000     0.40293    0.00099     0.40392
      H   29    0.10223      0.00000     0.39672    0.00105     0.39777
      H   30    0.11828      0.00000     0.38015    0.00157     0.38172
      H   31    0.09856      0.00000     0.40032    0.00112     0.40144
      H   32    0.10233      0.00000     0.39681    0.00087     0.39767
 =======================================================================
   * Total *   -0.00000     22.99226    48.75922    0.24852    72.00000

 Normal termination of Gaussian 16 at Sun Dec 13 13:34:56 2020.
