 Gaussian 16, Revision A.03,

 -----------------------------------------------------------
 # opt freq B3LYP/6-31G(d) empiricaldispersion=gd3bj scf=xqc
 -----------------------------------------------------------

 -------------------------------
 CID_130067258_JID_2450_neutraal
 -------------------------------
 Symbolic Z-matrix:
 Charge =  0 Multiplicity = 1

 SCF Done:  E(RB3LYP) =  -533.724833003     A.U. after   14 cycles
 SCF Done:  E(RB3LYP) =  -533.729074753     A.U. after   12 cycles
 SCF Done:  E(RB3LYP) =  -533.729799443     A.U. after   12 cycles
 SCF Done:  E(RB3LYP) =  -533.730541421     A.U. after   12 cycles
 SCF Done:  E(RB3LYP) =  -533.730995660     A.U. after   13 cycles
 SCF Done:  E(RB3LYP) =  -533.731597735     A.U. after   11 cycles
 SCF Done:  E(RB3LYP) =  -533.732885303     A.U. after   13 cycles
 SCF Done:  E(RB3LYP) =  -533.733124729     A.U. after   14 cycles
 SCF Done:  E(RB3LYP) =  -533.734006238     A.U. after   12 cycles
 SCF Done:  E(RB3LYP) =  -533.734236626     A.U. after   11 cycles
 SCF Done:  E(RB3LYP) =  -533.734385423     A.U. after    8 cycles
 SCF Done:  E(RB3LYP) =  -533.734385836     A.U. after    7 cycles
 SCF Done:  E(RB3LYP) =  -533.734386635     A.U. after    9 cycles
 SCF Done:  E(RB3LYP) =  -533.734387025     A.U. after    8 cycles
 SCF Done:  E(RB3LYP) =  -533.734387169     A.U. after    7 cycles
 Optimization completed.
    -- Stationary point found.
 Normal termination of Gaussian 16 at Wed Dec  9 17:32:08 2020.

 --------------------------------------------------------------------
 #N Geom=AllCheck Guess=TCheck SCRF=Check GenChk RB3LYP/6-31G(d) Freq
 --------------------------------------------------------------------

 Structure from the checkpoint file:  "JID_2450.chk"
 -------------------------------
 CID_130067258_JID_2450_neutraal
 -------------------------------
 Charge =  0 Multiplicity = 1

 SCF Done:  E(RB3LYP) =  -533.734387169     A.U. after    1 cycles

  Exact polarizability: 157.945  -2.338 115.332   1.767   0.516  50.051
 Approx polarizability: 240.205   1.361 201.073   2.350   1.478  75.974

                      1                      2                      3
                      A                      A                      A
 Frequencies --     39.6669                69.9934               101.4975
 Red. masses --      4.1259                 1.2657                 2.3436
 Frc consts  --      0.0038                 0.0037                 0.0142
 IR Inten    --      3.5773                 0.4851                 2.9162

                      4                      5                      6
                      A                      A                      A
 Frequencies --    168.0282               187.6041               230.3267
 Red. masses --      2.8802                 3.6847                 5.1579
 Frc consts  --      0.0479                 0.0764                 0.1612
 IR Inten    --      0.8151                 0.1065                 1.5104

                      7                      8                      9
                      A                      A                      A
 Frequencies --    276.4287               334.2929               372.4070
 Red. masses --      3.6756                 4.1334                 5.5483
 Frc consts  --      0.1655                 0.2722                 0.4534
 IR Inten    --      3.7172                 1.1571                 2.8734

                     10                     11                     12
                      A                      A                      A
 Frequencies --    431.2631               466.9292               483.6450
 Red. masses --      2.6075                 1.1420                 3.3087
 Frc consts  --      0.2857                 0.1467                 0.4560
 IR Inten    --     15.2250                81.9216                 8.4728

                     13                     14                     15
                      A                      A                      A
 Frequencies --    592.0659               597.1031               616.6753
 Red. masses --      6.7221                 4.2425                 4.7693
 Frc consts  --      1.3883                 0.8912                 1.0686
 IR Inten    --      7.5009                 5.5852                 3.9969

                     16                     17                     18
                      A                      A                      A
 Frequencies --    652.0500               717.4838               737.0985
 Red. masses --      4.8888                 4.1045                 1.4466
 Frc consts  --      1.2247                 1.2449                 0.4631
 IR Inten    --     10.7776                 3.8487                23.1166

                     19                     20                     21
                      A                      A                      A
 Frequencies --    790.2668               809.7214               820.0449
 Red. masses --      3.5773                 4.9835                 5.5320
 Frc consts  --      1.3163                 1.9251                 2.1918
 IR Inten    --      9.5395                 8.7093                 6.2679

                     22                     23                     24
                      A                      A                      A
 Frequencies --    855.8034               879.8669               916.7572
 Red. masses --      1.2996                 1.4461                 1.3454
 Frc consts  --      0.5608                 0.6596                 0.6662
 IR Inten    --      3.2696                17.7974                 0.1038

                     25                     26                     27
                      A                      A                      A
 Frequencies --    955.4723              1038.8800              1047.4162
 Red. masses --      3.9277                 1.9827                 1.7762
 Frc consts  --      2.1126                 1.2607                 1.1481
 IR Inten    --     25.6837                 9.4109                 1.1353

                     28                     29                     30
                      A                      A                      A
 Frequencies --   1106.7370              1113.8998              1140.7983
 Red. masses --      4.1242                 1.1845                 3.4971
 Frc consts  --      2.9763                 0.8659                 2.6815
 IR Inten    --     70.0759                25.3929                51.5911

                     31                     32                     33
                      A                      A                      A
 Frequencies --   1161.2121              1176.5705              1249.1514
 Red. masses --      1.2900                 1.7904                 1.1358
 Frc consts  --      1.0248                 1.4603                 1.0442
 IR Inten    --      0.1681                 0.8932                13.6951

                     34                     35                     36
                      A                      A                      A
 Frequencies --   1269.8582              1295.4290              1309.3573
 Red. masses --      2.3850                 1.7356                 2.0106
 Frc consts  --      2.2659                 1.7160                 2.0309
 IR Inten    --      1.2593                48.8253                12.2991

                     37                     38                     39
                      A                      A                      A
 Frequencies --   1334.2818              1377.3881              1390.4471
 Red. masses --      1.6927                 2.6847                 5.0239
 Frc consts  --      1.7756                 3.0010                 5.7227
 IR Inten    --     23.8089                10.1338                21.7385

                     40                     41                     42
                      A                      A                      A
 Frequencies --   1432.3282              1468.0770              1481.1286
 Red. masses --      4.0227                 2.1199                 1.5197
 Frc consts  --      4.8624                 2.6919                 1.9642
 IR Inten    --     19.4380               108.6517                14.3877

                     43                     44                     45
                      A                      A                      A
 Frequencies --   1503.2695              1509.2118              1533.4286
 Red. masses --      1.5427                 1.0408                 2.1775
 Frc consts  --      2.0540                 1.3967                 3.0168
 IR Inten    --    231.6561                 7.8420                34.9156

                     46                     47                     48
                      A                      A                      A
 Frequencies --   1545.1193              1548.5342              1562.9076
 Red. masses --      1.1866                 1.2081                 3.4136
 Frc consts  --      1.6690                 1.7069                 4.9127
 IR Inten    --     20.7336                 7.3047                18.9366

                     49                     50                     51
                      A                      A                      A
 Frequencies --   1611.5722              1669.6406              2957.4839
 Red. masses --      7.5811                 6.6865                 1.0745
 Frc consts  --     11.6007                10.9823                 5.5372
 IR Inten    --     32.6530                24.1911                75.4034

                     52                     53                     54
                      A                      A                      A
 Frequencies --   3041.6063              3051.5932              3107.6904
 Red. masses --      1.0872                 1.0349                 1.1060
 Frc consts  --      5.9262                 5.6782                 6.2933
 IR Inten    --     47.7396                55.9077                21.1544

                     55                     56                     57
                      A                      A                      A
 Frequencies --   3158.6766              3172.0613              3193.2641
 Red. masses --      1.1012                 1.0905                 1.0911
 Frc consts  --      6.4735                 6.4651                 6.5550
 IR Inten    --      8.5694                25.6606                11.1897

                     58                     59                     60
                      A                      A                      A
 Frequencies --   3257.9213              3277.8073              3589.7422
 Red. masses --      1.0906                 1.1027                 1.0646
 Frc consts  --      6.8201                 6.9806                 8.0825
 IR Inten    --      0.5671                 4.2230               133.0753

 - Thermochemistry -
 -------------------
 Temperature   298.150 Kelvin.  Pressure   1.00000 Atm.
 Atom     1 has atomic number  6 and mass  12.00000

 Molecular mass:   162.07931 amu.
 Principal axes and moments of inertia in atomic units:
                           1         2         3
     Eigenvalues --   736.612403099.430583805.16164
           X            0.99976  -0.02183   0.00223
           Y            0.02183   0.99976   0.00023
           Z           -0.00223  -0.00019   1.00000
 This molecule is an asymmetric top.
 Rotational symmetry number  1.
 Warning -- assumption of classical behavior for rotation
           may cause significant error
 Rotational temperatures (Kelvin)      0.11758     0.02795     0.02276
 Rotational constants (GHZ):           2.45006     0.58228     0.47429
 Zero-point vibrational energy     471250.8 (Joules/Mol)
                                  112.63165 (Kcal/Mol)
 Warning -- explicit consideration of  15 degrees of freedom as
           vibrations may cause significant error
 Vibrational temperatures:     57.07   100.70   146.03   241.76   269.92
          (Kelvin)            331.39   397.72   480.97   535.81   620.49
                              671.81   695.86   851.85   859.10   887.26
                              938.15  1032.30  1060.52  1137.02  1165.01
                             1179.86  1231.31  1265.93  1319.01  1374.71
                             1494.72  1507.00  1592.35  1602.65  1641.35
                             1670.73  1692.82  1797.25  1827.04  1863.83
                             1883.87  1919.73  1981.75  2000.54  2060.80
                             2112.24  2131.01  2162.87  2171.42  2206.26
                             2223.08  2228.00  2248.68  2318.69  2402.24
                             4255.16  4376.19  4390.56  4471.27  4544.63
                             4563.89  4594.39  4687.42  4716.03  5164.84

 Zero-point correction=                           0.179490 (Hartree/Particle)
 Thermal correction to Energy=                    0.189899
 Thermal correction to Enthalpy=                  0.190843
 Thermal correction to Gibbs Free Energy=         0.142640
 Sum of electronic and zero-point Energies=           -533.554897
 Sum of electronic and thermal Energies=              -533.544489
 Sum of electronic and thermal Enthalpies=            -533.543544
 Sum of electronic and thermal Free Energies=         -533.591747

                     E (Thermal)             CV                S
                      KCal/Mol        Cal/Mol-Kelvin    Cal/Mol-Kelvin
 Total                  119.163             39.383            101.452
 Electronic               0.000              0.000              0.000
 Translational            0.889              2.981             41.157
 Rotational               0.889              2.981             30.542
 Vibrational            117.386             33.422             29.752
 Vibration     1          0.594              1.981              5.276
 Vibration     2          0.598              1.968              4.154
 Vibration     3          0.604              1.948              3.425
 Vibration     4          0.625              1.882              2.457
 Vibration     5          0.632              1.857              2.251
 Vibration     6          0.652              1.795              1.876
 Vibration     7          0.678              1.717              1.556
 Vibration     8          0.716              1.607              1.239
 Vibration     9          0.744              1.529              1.070
 Vibration    10          0.792              1.402              0.855
 Vibration    11          0.824              1.323              0.746
 Vibration    12          0.840              1.286              0.700
 Vibration    13          0.950              1.049              0.464
 Vibration    14          0.955              1.038              0.455
 Vibration    15          0.976              0.997              0.422

 Optimization completed.
    -- Stationary point found.
 Normal termination of Gaussian 16 at Wed Dec  9 17:36:43 2020.

 ----------------------------------------------------------------------
 # B3LYP/6-311++G(d,p) empiricaldispersion=gd3bj scf=xqc pop=npa geom=c
 heck
 ----------------------------------------------------------------------

 ---------------------------------------
 CID_130067258_JID_2450_Energie_neutraal
 ---------------------------------------
 Structure from the checkpoint file:  "JID_2450.chk"
 Charge =  0 Multiplicity = 1

 SCF Done:  E(RB3LYP) =  -533.884806539     A.U. after   15 cycles
 Normal termination of Gaussian 16 at Wed Dec  9 17:40:27 2020.

 ----------------------------------------------------------------------
 # B3LYP/6-311++G(d,p) empiricaldispersion=gd3bj scf=xqc pop=npa geom=c
 heck
 ----------------------------------------------------------------------

 -------------------------------------
 CID_130067258_JID_2450_Energie_kation
 -------------------------------------
 Structure from the checkpoint file:  "JID_2450.chk"
 Charge =  1 Multiplicity = 2

 SCF Done:  E(UB3LYP) =  -533.594951097     A.U. after   23 cycles
 Normal termination of Gaussian 16 at Wed Dec  9 17:47:26 2020.
 Gaussian 16:  ES64L-G16RevA.03 25-Dec-2016

 ----------------------------------------------------------------------
 # B3LYP/6-311++G(d,p) empiricaldispersion=gd3bj scf=xqc pop=npa geom=c
 heck
 ----------------------------------------------------------------------

 ------------------------------------
 CID_130067258_JID_2450_Energie_anion
 ------------------------------------
 Structure from the checkpoint file:  "JID_2450.chk"
 Charge = -1 Multiplicity = 2

                         Standard orientation:
 ---------------------------------------------------------------------
 Center     Atomic      Atomic             Coordinates (Angstroms)
 Number     Number       Type             X           Y           Z
 ---------------------------------------------------------------------
      1          6           0        3.104605   -1.575812    0.003910
      2          7           0        2.313500   -0.362924    0.007317
      3          6           0        2.792080    0.931590    0.045136
      4          6           0        1.753686    1.830645    0.044189
      5          6           0        0.544819    1.062882    0.002598
      6          6           0       -0.827928    1.345489   -0.013319
      7          6           0       -1.714918    0.275783   -0.052055
      8          7           0       -1.324558   -1.017975   -0.070895
      9          6           0       -0.026690   -1.317320   -0.051949
     10          6           0        0.932525   -0.307904   -0.018655
     11          6           0       -3.222978    0.471641   -0.113666
     12          8           0       -3.920483   -0.706104    0.214516
     13          1           0        2.907194   -2.166607   -0.897588
     14          1           0        2.880867   -2.189814    0.883606
     15          1           0        4.163113   -1.309487    0.022829
     16          1           0        3.859307    1.106623    0.069379
     17          1           0        1.843846    2.907125    0.068457
     18          1           0       -1.196445    2.367557    0.007709
     19          1           0        0.240655   -2.372348   -0.062546
     20          1           0       -3.521486    1.271645    0.577741
     21          1           0       -3.491244    0.815336   -1.129350
     22          1           0       -3.255736   -1.416858    0.111539
 ---------------------------------------------------------------------

 SCF Done:  E(UB3LYP) =  -533.873202983     A.U. after   33 cycles
 SCF Done:  E(UB3LYP) =  -533.878317207     a.u. after    9 cycles

 The electronic state is 2-A.
 Alpha  occ. eigenvalues --  -19.00118 -14.24682 -14.18208 -10.10871 -10.09759
 Alpha  occ. eigenvalues --  -10.08620 -10.08576 -10.08517 -10.07832 -10.05971
 Alpha  occ. eigenvalues --  -10.05178 -10.04691  -0.91075  -0.87651  -0.81339
 Alpha  occ. eigenvalues --   -0.70359  -0.65621  -0.64030  -0.59333  -0.55644
 Alpha  occ. eigenvalues --   -0.52472  -0.47281  -0.46260  -0.41699  -0.39734
 Alpha  occ. eigenvalues --   -0.36668  -0.35771  -0.35438  -0.34261  -0.33388
 Alpha  occ. eigenvalues --   -0.31300  -0.30751  -0.29398  -0.28588  -0.28269
 Alpha  occ. eigenvalues --   -0.24601  -0.24088  -0.22120  -0.17863  -0.16225
 Alpha  occ. eigenvalues --   -0.14982  -0.12490  -0.10040   0.04723
 Alpha virt. eigenvalues --    0.06797   0.08101   0.08454   0.09750   0.10289
 Alpha virt. eigenvalues --    0.10820   0.11193   0.12285   0.12444   0.12970
 Alpha virt. eigenvalues --    0.13864   0.14442   0.15236   0.15541   0.16078

  Beta  occ. eigenvalues --  -19.00116 -14.24648 -14.18054 -10.10868 -10.09699
  Beta  occ. eigenvalues --  -10.08664 -10.08558 -10.08396 -10.07654 -10.05883
  Beta  occ. eigenvalues --  -10.05048 -10.04711  -0.91067  -0.87538  -0.81081
  Beta  occ. eigenvalues --   -0.70187  -0.65463  -0.63802  -0.59258  -0.55544
  Beta  occ. eigenvalues --   -0.52128  -0.47195  -0.46109  -0.41603  -0.39650
  Beta  occ. eigenvalues --   -0.36545  -0.35653  -0.35293  -0.34188  -0.33277
  Beta  occ. eigenvalues --   -0.31232  -0.30689  -0.29297  -0.28343  -0.28091
  Beta  occ. eigenvalues --   -0.24511  -0.23588  -0.22024  -0.17362  -0.16043
  Beta  occ. eigenvalues --   -0.14805  -0.11839  -0.09536
  Beta virt. eigenvalues --    0.07741   0.08261   0.08533   0.08876   0.10262
  Beta virt. eigenvalues --    0.10451   0.10991   0.11913   0.12650   0.12855
  Beta virt. eigenvalues --    0.13118   0.13869   0.14803   0.15504   0.15589

 Mulliken charges and spin densities:
               1          2
     1  C    1.309916  -1.621971
     2  N   -0.193200   0.298684
     3  C   -0.086321   0.439889
     4  C    0.014974  -0.552015
     5  C    1.243511   0.367050
     6  C   -0.128181  -0.058456
     7  C   -0.212294  -0.155040
     8  N   -0.095351   0.067158
     9  C    0.099126  -0.329993
    10  C   -0.812644  -0.401558
    11  C   -0.322009  -0.200731
    12  O   -0.306622  -0.000947
    13  H   -0.062340   0.217855
    14  H   -0.528405   0.715957
    15  H   -0.889833   1.038710
    16  H   -0.777214   0.949947
    17  H    0.056133   0.050157
    18  H    0.117009   0.013651
    19  H    0.007250   0.151912
    20  H    0.135161   0.012569
    21  H    0.145035  -0.002524
    22  H    0.286300  -0.000303
 Sum of Mulliken charges =  -1.00000   1.00000

 Dipole moment (field-independent basis, Debye):
    X=             -5.8592    Y=              3.6765    Z=             -2.8031  Tot=              7.4635
 Quadrupole moment (field-independent basis, Debye-Ang):
   XX=           -158.7099   YY=            -93.9946   ZZ=            -91.0928
   XY=              3.8964   XZ=             -6.1219   YZ=              3.8334

 Summary of Natural Population Analysis:

                                       Natural Population
                Natural  -----------------------------------------------
    Atom  No    Charge         Core      Valence    Rydberg      Total
 -----------------------------------------------------------------------
      C    1   -0.17113      0.99964     2.16330    0.00819     3.17113
      N    2   -0.20544      0.99963     2.69484    0.01097     3.70544
      C    3    0.05145      0.99955     1.93681    0.01218     2.94855
      C    4   -0.16430      0.99953     2.15512    0.00965     3.16430
      C    5   -0.01543      0.99951     2.00566    0.01026     3.01543
      C    6   -0.09803      0.99947     2.09126    0.00729     3.09803
      C    7    0.06905      0.99955     1.91940    0.01201     2.93095
      N    8   -0.25627      0.99965     2.74419    0.01243     3.75627
      C    9    0.04848      0.99955     1.93778    0.01420     2.95152
      C   10    0.05526      0.99947     1.93446    0.01082     2.94474
      C   11   -0.01290      0.99958     2.00210    0.01122     3.01290
      O   12   -0.38159      0.99990     3.37460    0.00709     4.38159
      H   13    0.09270      0.00000     0.40620    0.00110     0.40730
      H   14    0.10242      0.00000     0.39417    0.00341     0.39758
      H   15    0.10631      0.00000     0.38965    0.00404     0.39369
      H   16    0.09907      0.00000     0.39954    0.00139     0.40093
      H   17    0.10208      0.00000     0.39721    0.00071     0.39792
      H   18    0.09498      0.00000     0.40374    0.00128     0.40502
      H   19    0.08856      0.00000     0.40971    0.00173     0.41144
      H   20    0.07946      0.00000     0.41902    0.00152     0.42054
      H   21    0.07348      0.00000     0.42506    0.00146     0.42652
      H   22    0.24179      0.00000     0.25407    0.00415     0.25821
 =======================================================================
   * Total *    0.00000     11.99502    30.85789    0.14708    43.00000

 Normal termination of Gaussian 16 at Wed Dec  9 18:12:34 2020.
