 Gaussian 16, Revision A.03,

 -----------------------------------------------------------
 # opt freq B3LYP/6-31G(d) empiricaldispersion=gd3bj scf=xqc
 -----------------------------------------------------------

 ------------------------------
 CID_54183843_JID_1793_neutraal
 ------------------------------
 Symbolic Z-matrix:
 Charge =  0 Multiplicity = 1

 SCF Done:  E(RB3LYP) =  -610.817248720     A.U. after   14 cycles
 SCF Done:  E(RB3LYP) =  -610.822110789     A.U. after   12 cycles
 SCF Done:  E(RB3LYP) =  -610.822013220     A.U. after   12 cycles
 SCF Done:  E(RB3LYP) =  -610.822490685     A.U. after   12 cycles
 SCF Done:  E(RB3LYP) =  -610.822765945     A.U. after   11 cycles
 SCF Done:  E(RB3LYP) =  -610.822776762     A.U. after   10 cycles
 SCF Done:  E(RB3LYP) =  -610.822779256     A.U. after    9 cycles
 SCF Done:  E(RB3LYP) =  -610.822779659     A.U. after    8 cycles
 SCF Done:  E(RB3LYP) =  -610.822779786     A.U. after    7 cycles
 SCF Done:  E(RB3LYP) =  -610.822779813     A.U. after    7 cycles
 Optimization completed.
    -- Stationary point found.

 1\1\GINC-NODE313\FOpt\RB3LYP\6-31G(d)\C6H10O5\VSC10255\08-Dec-2020\0\\
 # opt freq B3LYP/6-31G(d) empiricaldispersion=gd3bj scf=xqc\\CID_54183
 843_JID_1793_neutraal\\0,1\C,0.8711302622,-0.0413360471,-0.0009145879\
 C,0.8282573022,-1.4490601612,0.599077539\C,1.6742741431,-1.6081498314,
 1.8551808876\O,1.1737884802,-0.7582967223,2.9186550759\C,1.847293577,0
 .3678901006,3.1498080335\O,2.857116775,0.7487637743,2.6043923221\O,1.1
 777920575,1.0369269672,4.124447297\C,1.8079050162,2.2125975527,4.59324
 5497\O,2.7765932445,1.8881288408,5.5869532128\C,2.3182400248,1.7749655

 Normal termination of Gaussian 16 at Tue Dec  8 21:03:59 2020.

 --------------------------------------------------------------------
 #N Geom=AllCheck Guess=TCheck SCRF=Check GenChk RB3LYP/6-31G(d) Freq
 --------------------------------------------------------------------

 Structure from the checkpoint file:  "JID_1793.chk"
 ------------------------------
 CID_54183843_JID_1793_neutraal
 ------------------------------
 Charge =  0 Multiplicity = 1

 SCF Done:  E(RB3LYP) =  -610.822779813     A.U. after    1 cycles

  Exact polarizability:  97.132   0.537  67.634   2.221   0.906  67.188
 Approx polarizability: 109.382   2.503  99.788   9.010  13.897 108.251

                      1                      2                      3
                      A                      A                      A
 Frequencies --     30.2384                36.8763                52.3508
 Red. masses --      4.5648                 7.6735                 5.1872
 Frc consts  --      0.0025                 0.0061                 0.0084
 IR Inten    --      0.1679                 0.7727                 2.4530

                      4                      5                      6
                      A                      A                      A
 Frequencies --     75.3784                91.5144               125.5679
 Red. masses --      5.2364                 4.8095                 2.2205
 Frc consts  --      0.0175                 0.0237                 0.0206
 IR Inten    --      0.7974                 2.1651                 2.0491

                      7                      8                      9
                      A                      A                      A
 Frequencies --    200.2393               249.6877               267.6422
 Red. masses --      5.3672                 1.3374                 2.9383
 Frc consts  --      0.1268                 0.0491                 0.1240
 IR Inten    --      0.9827                 2.7741                11.5013

                     10                     11                     12
                      A                      A                      A
 Frequencies --    277.5747               345.2224               392.4508
 Red. masses --      3.5673                 2.2304                 3.8497
 Frc consts  --      0.1619                 0.1566                 0.3493
 IR Inten    --      1.4670                 3.3825                28.7180

                     13                     14                     15
                      A                      A                      A
 Frequencies --    430.9414               505.1967               615.8536
 Red. masses --      3.1693                 2.7543                 4.5092
 Frc consts  --      0.3468                 0.4142                 1.0076
 IR Inten    --     18.2904                12.7271                 9.9786

                     16                     17                     18
                      A                      A                      A
 Frequencies --    686.9833               763.6153               781.5733
 Red. masses --      5.0979                 5.6818                 7.3542
 Frc consts  --      1.4175                 1.9520                 2.6468
 IR Inten    --      1.8589                13.7332                15.9156

                     19                     20                     21
                      A                      A                      A
 Frequencies --    790.8275               869.3686               917.3240
 Red. masses --      1.4286                 2.7993                 1.9138
 Frc consts  --      0.5264                 1.2465                 0.9488
 IR Inten    --      2.9764                10.1853                10.7778

                     22                     23                     24
                      A                      A                      A
 Frequencies --    944.3502               962.9456               993.1288
 Red. masses --      2.2525                 5.3322                 3.0399
 Frc consts  --      1.1835                 2.9131                 1.7665
 IR Inten    --     62.1834                92.4469               154.2055

                     25                     26                     27
                      A                      A                      A
 Frequencies --   1037.3862              1066.7693              1117.2239
 Red. masses --      1.6513                 2.3616                 2.9694
 Frc consts  --      1.0470                 1.5834                 2.1837
 IR Inten    --      1.0169               211.7372               132.2878

                     28                     29                     30
                      A                      A                      A
 Frequencies --   1134.2419              1182.8521              1194.9739
 Red. masses --      2.6862                 3.6439                 2.5468
 Frc consts  --      2.0361                 3.0039                 2.1427
 IR Inten    --    174.4899               107.6468               296.6525

                     31                     32                     33
                      A                      A                      A
 Frequencies --   1205.4568              1300.5927              1313.9996
 Red. masses --      2.4184                 1.9978                 1.3274
 Frc consts  --      2.0705                 1.9911                 1.3503
 IR Inten    --     13.8844               391.2881                90.3874

                     34                     35                     36
                      A                      A                      A
 Frequencies --   1332.9169              1354.1858              1406.6372
 Red. masses --      1.4951                 1.1311                 1.3937
 Frc consts  --      1.5650                 1.2221                 1.6248
 IR Inten    --    193.1433                11.4558                19.9561

                     37                     38                     39
                      A                      A                      A
 Frequencies --   1418.4218              1430.3917              1449.9103
 Red. masses --      1.1381                 1.3273                 1.2554
 Frc consts  --      1.3491                 1.6001                 1.5549
 IR Inten    --      1.3155                13.1328                 6.1219

                     40                     41                     42
                      A                      A                      A
 Frequencies --   1465.1647              1505.0734              1508.1349
 Red. masses --      1.2823                 1.1091                 1.0780
 Frc consts  --      1.6219                 1.4802                 1.4446
 IR Inten    --     14.8503                23.8204                 1.5079

                     43                     44                     45
                      A                      A                      A
 Frequencies --   1519.1443              1529.9047              1540.7754
 Red. masses --      1.0781                 1.0771                 1.0474
 Frc consts  --      1.4659                 1.4854                 1.4650
 IR Inten    --      4.5599                19.4093                 8.2193

                     46                     47                     48
                      A                      A                      A
 Frequencies --   1840.1292              1845.0750              3045.0911
 Red. masses --     10.6426                 8.9710                 1.0617
 Frc consts  --     21.2321                17.9936                 5.8004
 IR Inten    --    194.2366               319.8669                23.6944

                     49                     50                     51
                      A                      A                      A
 Frequencies --   3058.9761              3080.7865              3083.4898
 Red. masses --      1.0352                 1.0987                 1.0932
 Frc consts  --      5.7074                 6.1438                 6.1240
 IR Inten    --     18.9266                10.4314                59.5839

                     52                     53                     54
                      A                      A                      A
 Frequencies --   3098.7159              3126.0251              3131.8981
 Red. masses --      1.0614                 1.1024                 1.1034
 Frc consts  --      6.0045                 6.3468                 6.3766
 IR Inten    --     35.6203                40.3379                28.0684

                     55                     56                     57
                      A                      A                      A
 Frequencies --   3150.2491              3155.2657              3224.5199
 Red. masses --      1.0539                 1.1097                 1.1174
 Frc consts  --      6.1622                 6.5092                 6.8450
 IR Inten    --     15.4156                14.5439                 1.3080

 - Thermochemistry -
 -------------------
 Temperature   298.150 Kelvin.  Pressure   1.00000 Atm.
 Atom     1 has atomic number  6 and mass  12.00000

 Molecular mass:   162.05282 amu.
 Principal axes and moments of inertia in atomic units:
                           1         2         3
     Eigenvalues --   574.825853973.521634083.19690
           X            0.99998  -0.00276  -0.00645
           Y            0.00138   0.97889  -0.20440
           Z            0.00687   0.20439   0.97887
 This molecule is an asymmetric top.
 Rotational symmetry number  1.
 Warning -- assumption of classical behavior for rotation
           may cause significant error
 Rotational temperatures (Kelvin)      0.15068     0.02180     0.02121
 Rotational constants (GHZ):           3.13963     0.45419     0.44199
 Zero-point vibrational energy     444180.8 (Joules/Mol)
                                  106.16176 (Kcal/Mol)
 Warning -- explicit consideration of  15 degrees of freedom as
           vibrations may cause significant error
 Vibrational temperatures:     43.51    53.06    75.32   108.45   131.67
          (Kelvin)            180.66   288.10   359.24   385.08   399.37
                              496.70   564.65   620.03   726.87   886.08
                              988.42  1098.67  1124.51  1137.82  1250.83
                             1319.82  1358.71  1385.46  1428.89  1492.57
                             1534.84  1607.44  1631.92  1701.86  1719.30
                             1734.38  1871.26  1890.55  1917.77  1948.37
                             2023.84  2040.79  2058.01  2086.10  2108.05
                             2165.46  2169.87  2185.71  2201.19  2216.83
                             2647.54  2654.65  4381.21  4401.18  4432.56
                             4436.45  4458.36  4497.65  4506.10  4532.51
                             4539.72  4639.37

 Zero-point correction=                           0.169180 (Hartree/Particle)
 Thermal correction to Energy=                    0.180961
 Thermal correction to Enthalpy=                  0.181905
 Thermal correction to Gibbs Free Energy=         0.128814
 Sum of electronic and zero-point Energies=           -610.653600
 Sum of electronic and thermal Energies=              -610.641819
 Sum of electronic and thermal Enthalpies=            -610.640875
 Sum of electronic and thermal Free Energies=         -610.693966

                     E (Thermal)             CV                S
                      KCal/Mol        Cal/Mol-Kelvin    Cal/Mol-Kelvin
 Total                  113.554             39.896            111.740
 Electronic               0.000              0.000              0.000
 Translational            0.889              2.981             41.157
 Rotational               0.889              2.981             30.612
 Vibrational            111.777             33.935             39.971
 Vibration     1          0.594              1.984              5.814
 Vibration     2          0.594              1.982              5.420
 Vibration     3          0.596              1.977              4.727
 Vibration     4          0.599              1.965              4.008
 Vibration     5          0.602              1.955              3.627
 Vibration     6          0.611              1.927              3.013
 Vibration     7          0.638              1.840              2.131
 Vibration     8          0.662              1.763              1.733
 Vibration     9          0.673              1.733              1.611
 Vibration    10          0.679              1.715              1.549
 Vibration    11          0.724              1.585              1.188
 Vibration    12          0.760              1.486              0.991
 Vibration    13          0.792              1.403              0.856
 Vibration    14          0.860              1.238              0.645
 Vibration    15          0.975              0.998              0.423

 Optimization completed.
    -- Stationary point found.

 1\1\GINC-NODE313\Freq\RB3LYP\6-31G(d)\C6H10O5\VSC10255\08-Dec-2020\0\\
 #N Geom=AllCheck Guess=TCheck SCRF=Check GenChk RB3LYP/6-31G(d) Freq\\
 CID_54183843_JID_1793_neutraal\\0,1\C,0.8711302622,-0.0413360471,-0.00
 09145879\C,0.8282573022,-1.4490601612,0.599077539\C,1.6742741431,-1.60
 81498314,1.8551808876\O,1.1737884802,-0.7582967223,2.9186550759\C,1.84
 7293577,0.3678901006,3.1498080335\O,2.857116775,0.7487637743,2.6043923
 221\O,1.1777920575,1.0369269672,4.124447297\C,1.8079050162,2.212597552
 7,4.593245497\O,2.7765932445,1.8881288408,5.5869532128\C,2.3182400248,

 Normal termination of Gaussian 16 at Tue Dec  8 21:07:44 2020.

 ----------------------------------------------------------------------
 # B3LYP/6-311++G(d,p) empiricaldispersion=gd3bj scf=xqc pop=npa geom=c
 heck
 ----------------------------------------------------------------------

 --------------------------------------
 CID_54183843_JID_1793_Energie_neutraal
 --------------------------------------
 Structure from the checkpoint file:  "JID_1793.chk"
 Charge =  0 Multiplicity = 1

 SCF Done:  E(RB3LYP) =  -611.010718103     A.U. after   13 cycles
 Normal termination of Gaussian 16 at Tue Dec  8 21:10:15 2020.

 ----------------------------------------------------------------------
 # B3LYP/6-311++G(d,p) empiricaldispersion=gd3bj scf=xqc pop=npa geom=c
 heck
 ----------------------------------------------------------------------

 ------------------------------------
 CID_54183843_JID_1793_Energie_kation
 ------------------------------------
 Structure from the checkpoint file:  "JID_1793.chk"
 Charge =  1 Multiplicity = 2

 SCF Done:  E(UB3LYP) =  -610.632169417     A.U. after   28 cycles
 Normal termination of Gaussian 16 at Tue Dec  8 21:16:41 2020.
 Gaussian 16:  ES64L-G16RevA.03 25-Dec-2016

 -----------------------------------
 CID_54183843_JID_1793_Energie_anion
 -----------------------------------
 Structure from the checkpoint file:  "JID_1793.chk"
 Charge = -1 Multiplicity = 2

                         Standard orientation:
 ---------------------------------------------------------------------
 Center     Atomic      Atomic             Coordinates (Angstroms)
 Number     Number       Type             X           Y           Z
 ---------------------------------------------------------------------
      1          6           0        3.465532    0.958285   -0.661112
      2          6           0        3.588770   -0.510048   -0.245992
      3          6           0        2.447393   -0.997487    0.636341
      4          8           0        1.187829   -0.940279   -0.080555
      5          6           0        0.380949    0.079254    0.210706
      6          8           0        0.554781    0.944938    1.036938
      7          8           0       -0.695682   -0.020072   -0.611950
      8          6           0       -1.728554    0.915098   -0.371849
      9          8           0       -2.579356    0.450154    0.672687
     10          6           0       -3.585985   -0.380356    0.302872
     11          8           0       -3.851002   -0.721274   -0.819237
     12          1           0        2.586626    1.116295   -1.294756
     13          1           0        4.344811    1.273530   -1.232373
     14          1           0        3.368835    1.612183    0.211864
     15          1           0        3.648701   -1.149561   -1.135262
     16          1           0        4.518578   -0.666206    0.317552
     17          1           0        2.570514   -2.051372    0.897318
     18          1           0        2.358013   -0.401745    1.547252
     19          1           0       -1.321094    1.860440   -0.021496
     20          1           0       -2.281468    0.993628   -1.305096
     21          1           0       -4.134701   -0.683393    1.206132
 ---------------------------------------------------------------------

 SCF Done:  E(UB3LYP) =  -610.994202319     A.U. after   33 cycles
 SCF Done:  E(UB3LYP) =  -610.994202319     a.u. after    1 cycles

 The electronic state is 2-A.
 Alpha  occ. eigenvalues --  -19.08767 -19.08756 -19.07826 -19.02967 -19.02342
 Alpha  occ. eigenvalues --  -10.25810 -10.20698 -10.19782 -10.12739 -10.06894
 Alpha  occ. eigenvalues --  -10.05473  -1.06305  -1.02574  -0.97248  -0.94172
 Alpha  occ. eigenvalues --   -0.93436  -0.69925  -0.66098  -0.60630  -0.55242
 Alpha  occ. eigenvalues --   -0.50461  -0.47867  -0.46442  -0.44471  -0.41262
 Alpha  occ. eigenvalues --   -0.40525  -0.39387  -0.37092  -0.35712  -0.35015
 Alpha  occ. eigenvalues --   -0.33656  -0.32962  -0.31167  -0.28191  -0.27192
 Alpha  occ. eigenvalues --   -0.26970  -0.25190  -0.24400  -0.23737  -0.23326
 Alpha  occ. eigenvalues --   -0.21246  -0.20787  -0.20141   0.04824
 Alpha virt. eigenvalues --    0.06302   0.07207   0.07684   0.08433   0.09297
 Alpha virt. eigenvalues --    0.09946   0.10773   0.11158   0.11725   0.12408
 Alpha virt. eigenvalues --    0.12990   0.13605   0.14574   0.14986   0.16879

  Beta  occ. eigenvalues --  -19.08762 -19.08737 -19.07820 -19.02864 -19.02334
  Beta  occ. eigenvalues --  -10.25805 -10.20561 -10.19769 -10.12714 -10.06857
  Beta  occ. eigenvalues --  -10.05435  -1.06283  -1.02477  -0.97196  -0.94104
  Beta  occ. eigenvalues --   -0.93369  -0.69873  -0.66022  -0.60546  -0.55131
  Beta  occ. eigenvalues --   -0.50363  -0.47766  -0.46384  -0.44383  -0.41196
  Beta  occ. eigenvalues --   -0.40487  -0.39279  -0.37001  -0.35545  -0.34870
  Beta  occ. eigenvalues --   -0.33620  -0.32748  -0.31077  -0.28148  -0.27148
  Beta  occ. eigenvalues --   -0.26939  -0.25113  -0.24249  -0.23693  -0.23154
  Beta  occ. eigenvalues --   -0.21223  -0.20760  -0.20057
  Beta virt. eigenvalues --    0.07213   0.07826   0.07962   0.08448   0.09314
  Beta virt. eigenvalues --    0.09760   0.10629   0.10873   0.11417   0.12231
  Beta virt. eigenvalues --    0.12889   0.13089   0.13722   0.14560   0.15227

 Mulliken charges and spin densities:
               1          2
     1  C    0.590046  -1.038241
     2  C    0.338953  -0.552132
     3  C    0.661114  -0.846848
     4  O   -0.135553   0.072102
     5  C    0.122930  -0.211653
     6  O   -0.270383   0.036391
     7  O   -0.148103   0.035241
     8  C    0.274550  -0.422932
     9  O   -0.094018   0.037680
    10  C    0.323520  -0.169931
    11  O   -0.316228   0.029004
    12  H   -0.146544   0.294399
    13  H   -0.786242   0.944076
    14  H    0.120532   0.028308
    15  H   -0.045724   0.200893
    16  H   -0.681318   0.838096
    17  H   -0.531007   0.710633
    18  H    0.007046   0.181473
    19  H   -0.021182   0.241605
    20  H    0.112495   0.095009
    21  H   -0.374885   0.496826
 Sum of Mulliken charges =  -1.00000   1.00000

 Dipole moment (field-independent basis, Debye):
    X=             -5.9252    Y=              1.3342    Z=              0.1865  Tot=              6.0764
 Quadrupole moment (field-independent basis, Debye-Ang):
   XX=           -165.0327   YY=            -93.5118   ZZ=            -94.1686
   XY=             -2.7566   XZ=              2.5657   YZ=             -0.2550

 Summary of Natural Population Analysis:

                                       Natural Population
                Natural  -----------------------------------------------
    Atom  No    Charge         Core      Valence    Rydberg      Total
 -----------------------------------------------------------------------
      C    1   -0.28891      0.99967     2.28276    0.00648     3.28891
      C    2   -0.20176      0.99964     2.19383    0.00829     3.20176
      C    3   -0.01286      0.99955     2.00114    0.01217     3.01286
      O    4   -0.27301      0.99985     3.26443    0.00873     4.27301
      C    5    0.51810      0.99972     1.45444    0.02774     2.48190
      O    6   -0.32028      0.99986     3.31498    0.00544     4.32028
      O    7   -0.27711      0.99985     3.26895    0.00831     4.27711
      C    8    0.13269      0.99958     1.85223    0.01550     2.86731
      O    9   -0.28211      0.99988     3.27308    0.00915     4.28211
      C   10    0.35189      0.99977     1.62383    0.02451     2.64811
      O   11   -0.28667      0.99988     3.27977    0.00702     4.28667
      H   12    0.09607      0.00000     0.40261    0.00132     0.40393
      H   13    0.10318      0.00000     0.39490    0.00192     0.39682
      H   14    0.10023      0.00000     0.39869    0.00107     0.39977
      H   15    0.09819      0.00000     0.40022    0.00159     0.40181
      H   16    0.10445      0.00000     0.39143    0.00413     0.39555
      H   17    0.09488      0.00000     0.40334    0.00177     0.40512
      H   18    0.09763      0.00000     0.40096    0.00141     0.40237
      H   19    0.09600      0.00000     0.40222    0.00178     0.40400
      H   20    0.09380      0.00000     0.40468    0.00152     0.40620
      H   21    0.05559      0.00000     0.44178    0.00263     0.44441
 =======================================================================
   * Total *   -0.00000     10.99725    31.85027    0.15248    43.00000

 Normal termination of Gaussian 16 at Tue Dec  8 21:22:22 2020.
