 Gaussian 16, Revision A.03,

 -----------------------------------------------------------
 # opt freq B3LYP/6-31G(d) empiricaldispersion=gd3bj scf=xqc
 -----------------------------------------------------------

 -------------------------------
 CID_121015165_JID_6172_neutraal
 -------------------------------
 Symbolic Z-matrix:
 Charge =  0 Multiplicity = 1

 SCF Done:  E(RB3LYP) =  -687.208906524     A.U. after   15 cycles
 SCF Done:  E(RB3LYP) =  -687.213461527     A.U. after   12 cycles
 SCF Done:  E(RB3LYP) =  -687.214116246     A.U. after   12 cycles
 SCF Done:  E(RB3LYP) =  -687.214337730     A.U. after   12 cycles
 SCF Done:  E(RB3LYP) =  -687.214461706     A.U. after   12 cycles
 SCF Done:  E(RB3LYP) =  -687.214511366     A.U. after   11 cycles
 SCF Done:  E(RB3LYP) =  -687.214562826     A.U. after   11 cycles
 SCF Done:  E(RB3LYP) =  -687.214664032     A.U. after   11 cycles
 SCF Done:  E(RB3LYP) =  -687.214673839     A.U. after   10 cycles
 SCF Done:  E(RB3LYP) =  -687.214681117     A.U. after   10 cycles
 SCF Done:  E(RB3LYP) =  -687.214682602     A.U. after    9 cycles
 SCF Done:  E(RB3LYP) =  -687.214682690     A.U. after    7 cycles
 Optimization completed.
    -- Stationary point found.
 Normal termination of Gaussian 16 at Thu Dec 10 21:13:18 2020.

 --------------------------------------------------------------------
 #N Geom=AllCheck Guess=TCheck SCRF=Check GenChk RB3LYP/6-31G(d) Freq
 --------------------------------------------------------------------

 Structure from the checkpoint file:  "JID_6172.chk"
 -------------------------------
 CID_121015165_JID_6172_neutraal
 -------------------------------
 Charge =  0 Multiplicity = 1

 SCF Done:  E(RB3LYP) =  -687.214682690     A.U. after    1 cycles

  Exact polarizability: 187.975  -3.323 141.152  -2.453 -18.948 114.022
 Approx polarizability: 259.342  -5.770 208.450  -5.360 -51.594 189.454

                      1                      2                      3
                      A                      A                      A
 Frequencies --     18.9689                26.5905                49.7533
 Red. masses --      3.2403                 2.9393                 4.4258
 Frc consts  --      0.0007                 0.0012                 0.0065
 IR Inten    --      0.1020                 0.0161                 0.4971

                      4                      5                      6
                      A                      A                      A
 Frequencies --     58.6782                93.7513               112.8450
 Red. masses --      3.1896                 2.3877                 2.1178
 Frc consts  --      0.0065                 0.0124                 0.0159
 IR Inten    --      0.0094                 0.3512                 0.4015

                      7                      8                      9
                      A                      A                      A
 Frequencies --    147.5870               178.7058               221.6394
 Red. masses --      2.6379                 2.0746                 1.4426
 Frc consts  --      0.0339                 0.0390                 0.0418
 IR Inten    --      0.3461                 0.2806                 0.2331

                     10                     11                     12
                      A                      A                      A
 Frequencies --    239.7017               252.3449               273.9792
 Red. masses --      3.7130                 1.4827                 3.2095
 Frc consts  --      0.1257                 0.0556                 0.1419
 IR Inten    --      5.9414                 2.2408                 1.7760

                     13                     14                     15
                      A                      A                      A
 Frequencies --    294.0070               312.0510               361.1928
 Red. masses --      2.4752                 2.9154                 2.6089
 Frc consts  --      0.1261                 0.1673                 0.2005
 IR Inten    --      0.4036                 0.9829                 0.4178

                     16                     17                     18
                      A                      A                      A
 Frequencies --    380.8876               413.6872               450.3878
 Red. masses --      2.4599                 2.6750                 2.9708
 Frc consts  --      0.2103                 0.2697                 0.3551
 IR Inten    --      0.1058                 5.8316                 1.8972

                     19                     20                     21
                      A                      A                      A
 Frequencies --    462.3278               490.1128               534.3067
 Red. masses --      3.4757                 4.2048                 4.0153
 Frc consts  --      0.4377                 0.5951                 0.6754
 IR Inten    --      3.8680                10.4174                 2.8213

                     22                     23                     24
                      A                      A                      A
 Frequencies --    595.3982               621.4951               681.2165
 Red. masses --      1.6396                 4.6138                 2.9437
 Frc consts  --      0.3425                 1.0500                 0.8048
 IR Inten    --     65.6244                15.9889                20.4037

                     25                     26                     27
                      A                      A                      A
 Frequencies --    689.5450               715.5550               749.3810
 Red. masses --      2.8502                 3.2442                 2.6781
 Frc consts  --      0.7984                 0.9787                 0.8861
 IR Inten    --      9.7551                 2.7284                 1.3878

                     28                     29                     30
                      A                      A                      A
 Frequencies --    790.8725               807.0173               821.4000
 Red. masses --      2.6949                 3.5721                 1.8301
 Frc consts  --      0.9931                 1.3707                 0.7275
 IR Inten    --     18.1512                 8.9814                10.1485

                     31                     32                     33
                      A                      A                      A
 Frequencies --    849.8291               878.5870               885.3455
 Red. masses --      2.3898                 2.6197                 2.5209
 Frc consts  --      1.0169                 1.1915                 1.1642
 IR Inten    --      7.5741                 0.2550                 1.8887

                     34                     35                     36
                      A                      A                      A
 Frequencies --    906.1286               910.8540               936.3078
 Red. masses --      1.5273                 1.4321                 4.0467
 Frc consts  --      0.7388                 0.7000                 2.0902
 IR Inten    --      2.2530                 3.0361                16.1158

                     37                     38                     39
                      A                      A                      A
 Frequencies --    962.3174               990.1535              1017.8051
 Red. masses --      1.5759                 2.8034                 1.9565
 Frc consts  --      0.8598                 1.6193                 1.1941
 IR Inten    --     10.3786                 1.3369                 9.2409

                     40                     41                     42
                      A                      A                      A
 Frequencies --   1045.3082              1056.7914              1057.4392
 Red. masses --      2.0284                 2.0208                 2.0739
 Frc consts  --      1.3059                 1.3297                 1.3663
 IR Inten    --      2.3415                19.8252                17.4464

                     43                     44                     45
                      A                      A                      A
 Frequencies --   1106.3039              1109.7681              1118.4550
 Red. masses --      1.7420                 1.9417                 1.8098
 Frc consts  --      1.2562                 1.4090                 1.3339
 IR Inten    --      2.0345                 3.2691                14.9456

                     46                     47                     48
                      A                      A                      A
 Frequencies --   1131.8070              1211.8909              1226.7193
 Red. masses --      2.3101                 3.8902                 2.3028
 Frc consts  --      1.7435                 3.3663                 2.0417
 IR Inten    --      3.5660                 0.5157                46.0600

                     49                     50                     51
                      A                      A                      A
 Frequencies --   1245.3509              1257.3151              1278.4959
 Red. masses --      1.6694                 1.1941                 1.4413
 Frc consts  --      1.5254                 1.1122                 1.3880
 IR Inten    --      3.9490                 4.4091                 2.7699

                     52                     53                     54
                      A                      A                      A
 Frequencies --   1286.1500              1301.2792              1304.3374
 Red. masses --      2.5904                 1.2672                 1.2782
 Frc consts  --      2.5246                 1.2642                 1.2812
 IR Inten    --     49.1748                 1.6286                 1.9017

                     55                     56                     57
                      A                      A                      A
 Frequencies --   1315.5069              1340.2050              1359.6878
 Red. masses --      1.8442                 1.7572                 1.5279
 Frc consts  --      1.8804                 1.8596                 1.6643
 IR Inten    --     75.0885                 7.8338                12.3649

                     58                     59                     60
                      A                      A                      A
 Frequencies --   1374.3133              1383.2112              1394.3435
 Red. masses --      2.1477                 1.4254                 1.5396
 Frc consts  --      2.3900                 1.6069                 1.7636
 IR Inten    --     35.3204                 4.5570                26.4461

                     61                     62                     63
                      A                      A                      A
 Frequencies --   1395.2914              1427.4363              1445.2531
 Red. masses --      1.4139                 2.3304                 1.2824
 Frc consts  --      1.6219                 2.7976                 1.5782
 IR Inten    --     12.3679                85.9785                 4.4637

                     64                     65                     66
                      A                      A                      A
 Frequencies --   1449.3628              1483.4526              1503.1353
 Red. masses --      1.2663                 3.1253                 1.2080
 Frc consts  --      1.5672                 4.0522                 1.6081
 IR Inten    --      3.5330               147.7517                71.5600

                     67                     68                     69
                      A                      A                      A
 Frequencies --   1504.3625              1515.2543              1518.2083
 Red. masses --      1.1147                 1.1473                 1.1780
 Frc consts  --      1.4863                 1.5520                 1.5997
 IR Inten    --      7.4099                12.7064                71.2340

                     70                     71                     72
                      A                      A                      A
 Frequencies --   1519.8968              1524.1828              1530.1482
 Red. masses --      1.0585                 1.7451                 1.0427
 Frc consts  --      1.4407                 2.3886                 1.4383
 IR Inten    --      2.1110               109.0960                 8.4797

                     73                     74                     75
                      A                      A                      A
 Frequencies --   1530.8822              1534.6360              1535.9662
 Red. masses --      1.0479                 1.0798                 1.1827
 Frc consts  --      1.4470                 1.4983                 1.6439
 IR Inten    --      4.4408                 5.8168                10.1801

                     76                     77                     78
                      A                      A                      A
 Frequencies --   1624.8006              1657.2941              1756.4019
 Red. masses --      6.2531                 5.6839                 8.1533
 Frc consts  --      9.7262                 9.1981                14.8194
 IR Inten    --    150.5531               167.4195               135.7471

                     79                     80                     81
                      A                      A                      A
 Frequencies --   2992.4382              3031.3290              3043.3113
 Red. masses --      1.0733                 1.0664                 1.0693
 Frc consts  --      5.6625                 5.7735                 5.8352
 IR Inten    --     50.3722                21.1112                33.5290

                     82                     83                     84
                      A                      A                      A
 Frequencies --   3046.9710              3048.2452              3054.2018
 Red. masses --      1.0376                 1.0605                 1.0356
 Frc consts  --      5.6756                 5.8055                 5.6914
 IR Inten    --     19.8121                35.9989                16.0306

                     85                     86                     87
                      A                      A                      A
 Frequencies --   3064.9576              3074.6647              3074.8424
 Red. masses --      1.0607                 1.0918                 1.0942
 Frc consts  --      5.8706                 6.0814                 6.0953
 IR Inten    --     24.6772                39.4638                19.8620

                     88                     89                     90
                      A                      A                      A
 Frequencies --   3086.2254              3112.2070              3117.9750
 Red. masses --      1.1012                 1.1031                 1.1022
 Frc consts  --      6.1798                 6.2952                 6.3131
 IR Inten    --      6.8415                17.9191                50.1949

                     91                     92                     93
                      A                      A                      A
 Frequencies --   3121.3983              3121.7377              3125.1468
 Red. masses --      1.1029                 1.1024                 1.1025
 Frc consts  --      6.3313                 6.3299                 6.3441
 IR Inten    --     54.2097                22.1717                43.4052

                     94                     95                     96
                      A                      A                      A
 Frequencies --   3132.3279              3160.3791              3596.8402
 Red. masses --      1.0950                 1.0909                 1.0767
 Frc consts  --      6.3300                 6.4200                 8.2067
 IR Inten    --     23.6882                28.1121                28.2859

 - Thermochemistry -
 -------------------
 Temperature   298.150 Kelvin.  Pressure   1.00000 Atm.
 Atom     1 has atomic number  6 and mass  12.00000

 Molecular mass:   218.15315 amu.
 Principal axes and moments of inertia in atomic units:
                           1         2         3
     Eigenvalues --  2104.251525542.326076705.08155
           X            1.00000  -0.00107   0.00048
           Y            0.00106   0.99997   0.00786
           Z           -0.00049  -0.00786   0.99997
 This molecule is an asymmetric top.
 Rotational symmetry number  1.
 Warning -- assumption of classical behavior for rotation
           may cause significant error
 Rotational temperatures (Kelvin)      0.04116     0.01563     0.01292
 Rotational constants (GHZ):           0.85766     0.32563     0.26916
 Zero-point vibrational energy     774872.4 (Joules/Mol)
                                  185.19896 (Kcal/Mol)
 Warning -- explicit consideration of  22 degrees of freedom as
           vibrations may cause significant error
 Vibrational temperatures:     27.29    38.26    71.58    84.42   134.89
          (Kelvin)            162.36   212.34   257.12   318.89   344.88
                              363.07   394.19   423.01   448.97   519.68
                              548.01   595.20   648.01   665.19   705.16
                              768.75   856.65   894.19   980.12   992.10
                             1029.52  1078.19  1137.89  1161.12  1181.81
                             1222.71  1264.09  1273.81  1303.72  1310.52
                             1347.14  1384.56  1424.61  1464.39  1503.97
                             1520.49  1521.42  1591.72  1596.71  1609.21
                             1628.42  1743.64  1764.98  1791.78  1809.00
                             1839.47  1850.48  1872.25  1876.65  1892.72
                             1928.26  1956.29  1977.33  1990.13  2006.15
                             2007.51  2053.76  2079.40  2085.31  2134.36
                             2162.68  2164.44  2180.11  2184.36  2186.79
                             2192.96  2201.54  2202.60  2208.00  2209.91
                             2337.73  2384.48  2527.07  4305.45  4361.41
                             4378.65  4383.91  4385.74  4394.32  4409.79
                             4423.76  4424.01  4440.39  4477.77  4486.07
                             4491.00  4491.48  4496.39  4506.72  4547.08
                             5175.05

 Zero-point correction=                           0.295133 (Hartree/Particle)
 Thermal correction to Energy=                    0.310676
 Thermal correction to Enthalpy=                  0.311620
 Thermal correction to Gibbs Free Energy=         0.250169
 Sum of electronic and zero-point Energies=           -686.919549
 Sum of electronic and thermal Energies=              -686.904007
 Sum of electronic and thermal Enthalpies=            -686.903063
 Sum of electronic and thermal Free Energies=         -686.964514

                     E (Thermal)             CV                S
                      KCal/Mol        Cal/Mol-Kelvin    Cal/Mol-Kelvin
 Total                  194.952             58.397            129.335
 Electronic               0.000              0.000              0.000
 Translational            0.889              2.981             42.043
 Rotational               0.889              2.981             32.725
 Vibrational            193.175             52.436             54.566
 Vibration     1          0.593              1.986              6.739
 Vibration     2          0.593              1.984              6.069
 Vibration     3          0.595              1.978              4.827
 Vibration     4          0.596              1.974              4.501
 Vibration     5          0.603              1.954              3.580
 Vibration     6          0.607              1.939              3.219
 Vibration     7          0.617              1.905              2.703
 Vibration     8          0.629              1.868              2.342
 Vibration     9          0.648              1.808              1.946
 Vibration    10          0.657              1.780              1.805
 Vibration    11          0.664              1.759              1.714
 Vibration    12          0.676              1.721              1.571
 Vibration    13          0.689              1.685              1.451
 Vibration    14          0.700              1.651              1.351
 Vibration    15          0.735              1.552              1.117
 Vibration    16          0.751              1.511              1.036
 Vibration    17          0.777              1.441              0.914
 Vibration    18          0.809              1.360              0.795
 Vibration    19          0.820              1.334              0.759
 Vibration    20          0.846              1.272              0.683
 Vibration    21          0.889              1.174              0.578
 Vibration    22          0.953              1.042              0.458

                           ! Non-Optimized Parameters !
 Normal termination of Gaussian 16 at Thu Dec 10 21:24:28 2020.

 ----------------------------------------------------------------------
 # B3LYP/6-311++G(d,p) empiricaldispersion=gd3bj scf=xqc pop=npa geom=c
 heck
 ----------------------------------------------------------------------

 ---------------------------------------
 CID_121015165_JID_6172_Energie_neutraal
 ---------------------------------------
 Structure from the checkpoint file:  "JID_6172.chk"
 Charge =  0 Multiplicity = 1

 SCF Done:  E(RB3LYP) =  -687.397030605     A.U. after   15 cycles
 Normal termination of Gaussian 16 at Thu Dec 10 21:30:02 2020.

 ----------------------------------------------------------------------
 # B3LYP/6-311++G(d,p) empiricaldispersion=gd3bj scf=xqc pop=npa geom=c
 heck
 ----------------------------------------------------------------------

 -------------------------------------
 CID_121015165_JID_6172_Energie_kation
 -------------------------------------
 Structure from the checkpoint file:  "JID_6172.chk"
 Charge =  1 Multiplicity = 2

 SCF Done:  E(UB3LYP) =  -687.095026261     A.U. after   24 cycles
 Normal termination of Gaussian 16 at Thu Dec 10 21:42:26 2020.
 Gaussian 16:  ES64L-G16RevA.03 25-Dec-2016

 ----------------------------------------------------------------------
 # B3LYP/6-311++G(d,p) empiricaldispersion=gd3bj scf=xqc pop=npa geom=c
 heck
 ----------------------------------------------------------------------

 ------------------------------------
 CID_121015165_JID_6172_Energie_anion
 ------------------------------------
 Structure from the checkpoint file:  "JID_6172.chk"
 Charge = -1 Multiplicity = 2

                         Standard orientation:
 ---------------------------------------------------------------------
 Center     Atomic      Atomic             Coordinates (Angstroms)
 Number     Number       Type             X           Y           Z
 ---------------------------------------------------------------------
      1          6           0        2.952946    2.045884    1.310410
      2          6           0        3.268173    1.981340   -0.185330
      3          6           0        3.553346    0.548750   -0.678924
      4          6           0        2.414503   -0.403750   -0.420494
      5          7           0        2.534725   -1.362686    0.414071
      6          6           0        1.398362   -2.276594    0.580803
      7          6           0        0.063199   -1.636664    0.289245
      8          6           0       -1.166741   -1.974349    0.830600
      9          7           0       -2.317898   -1.386289    0.467677
     10          6           0       -2.230961   -0.414861   -0.452360
     11          7           0       -1.093126    0.039325   -1.007096
     12          6           0        0.026799   -0.577464   -0.628048
     13          7           0        1.233143   -0.121271   -1.129671
     14          6           0       -3.516419    0.260954   -0.852062
     15          6           0       -4.094445    1.117919    0.291221
     16          6           0       -3.180420    2.276356    0.697020
     17          1           0        2.052205    1.471748    1.552608
     18          1           0        2.792333    3.079733    1.633850
     19          1           0        3.774857    1.626556    1.901592
     20          1           0        2.436577    2.418048   -0.755999
     21          1           0        4.144793    2.600420   -0.411511
     22          1           0        3.771354    0.565291   -1.755961
     23          1           0        4.428781    0.140324   -0.168091
     24          1           0        1.560473   -3.136793   -0.089068
     25          1           0        1.421562   -2.677585    1.600444
     26          1           0       -1.241925   -2.757845    1.584622
     27          1           0        1.177227    0.731936   -1.672160
     28          1           0       -3.325620    0.881319   -1.733275
     29          1           0       -4.245685   -0.511084   -1.123121
     30          1           0       -5.069871    1.508120   -0.025640
     31          1           0       -4.275985    0.464493    1.152580
     32          1           0       -2.983638    2.940942   -0.152832
     33          1           0       -3.632805    2.874180    1.495954
     34          1           0       -2.212595    1.911534    1.058657
 ---------------------------------------------------------------------

 SCF Done:  E(UB3LYP) =  -687.389888144     A.U. after   33 cycles
 SCF Done:  E(UB3LYP) =  -687.389888144     a.u. after    1 cycles

 The electronic state is 2-A.
 Alpha  occ. eigenvalues --  -14.23010 -14.17847 -14.17251 -14.17037 -10.12302
 Alpha  occ. eigenvalues --  -10.11701 -10.11523 -10.08991 -10.07820 -10.07019
 Alpha  occ. eigenvalues --  -10.06385 -10.06280 -10.06181 -10.05992 -10.05984
 Alpha  occ. eigenvalues --  -10.05041  -0.88201  -0.84321  -0.78014  -0.74044
 Alpha  occ. eigenvalues --   -0.70613  -0.68695  -0.66382  -0.60972  -0.59281
 Alpha  occ. eigenvalues --   -0.56048  -0.53551  -0.52451  -0.49132  -0.48019
 Alpha  occ. eigenvalues --   -0.43715  -0.42044  -0.39903  -0.36854  -0.36310
 Alpha  occ. eigenvalues --   -0.35379  -0.34786  -0.34168  -0.33428  -0.32359
 Alpha  occ. eigenvalues --   -0.30859  -0.30018  -0.29615  -0.28496  -0.27353
 Alpha  occ. eigenvalues --   -0.27019  -0.26694  -0.24687  -0.24458  -0.23536
 Alpha  occ. eigenvalues --   -0.23446  -0.23071  -0.22772  -0.18718  -0.18122
 Alpha  occ. eigenvalues --   -0.16425  -0.14199  -0.12626  -0.10966   0.04816
 Alpha virt. eigenvalues --    0.06921   0.07194   0.08373   0.08623   0.09054
 Alpha virt. eigenvalues --    0.09596   0.09865   0.10291   0.10658   0.11115
 Alpha virt. eigenvalues --    0.11313   0.12013   0.12410   0.12569   0.13243

  Beta  occ. eigenvalues --  -14.23044 -14.17662 -14.17075 -14.16935 -10.12205
  Beta  occ. eigenvalues --  -10.11736 -10.11265 -10.08995 -10.07569 -10.07021
  Beta  occ. eigenvalues --  -10.06384 -10.06279 -10.06128 -10.06064 -10.05984
  Beta  occ. eigenvalues --  -10.05026  -0.87968  -0.84088  -0.77771  -0.73729
  Beta  occ. eigenvalues --   -0.70501  -0.68645  -0.66283  -0.60911  -0.59209
  Beta  occ. eigenvalues --   -0.55948  -0.53227  -0.52248  -0.49013  -0.47935
  Beta  occ. eigenvalues --   -0.43633  -0.41928  -0.39764  -0.36753  -0.36101
  Beta  occ. eigenvalues --   -0.35263  -0.34717  -0.34118  -0.33331  -0.32246
  Beta  occ. eigenvalues --   -0.30762  -0.29923  -0.29143  -0.28446  -0.27282
  Beta  occ. eigenvalues --   -0.26921  -0.26422  -0.24577  -0.24402  -0.23473
  Beta  occ. eigenvalues --   -0.23413  -0.22779  -0.22693  -0.18234  -0.17303
  Beta  occ. eigenvalues --   -0.15823  -0.13957  -0.12413  -0.10563
  Beta virt. eigenvalues --    0.06998   0.07765   0.08483   0.08583   0.09247
  Beta virt. eigenvalues --    0.09441   0.09772   0.10184   0.10387   0.10863
  Beta virt. eigenvalues --    0.11246   0.11425   0.12190   0.12428   0.12625

 Mulliken charges and spin densities:
               1          2
     1  C    0.096530  -0.651455
     2  C    0.257011  -0.297807
     3  C   -0.598446   0.108209
     4  C    0.441449  -0.663493
     5  N    0.036176   0.070366
     6  C   -0.510389  -0.025772
     7  C    0.768128  -0.158230
     8  C   -0.546359   0.197315
     9  N    0.005228   0.069099
    10  C   -0.292018  -0.060703
    11  N   -0.050629   0.128936
    12  C   -0.180822   0.170354
    13  N   -0.078753   0.034135
    14  C   -0.266578  -0.024552
    15  C   -0.206866   0.096745
    16  C   -0.387086  -0.199655
    17  H    0.074818   0.075195
    18  H   -0.164932   0.294261
    19  H    0.102547   0.020413
    20  H    0.012939   0.075015
    21  H   -0.922070   1.101474
    22  H   -0.154337   0.316776
    23  H    0.102222   0.064523
    24  H    0.159569   0.006268
    25  H    0.155115   0.019977
    26  H    0.141286  -0.017581
    27  H    0.203441   0.086027
    28  H    0.151904   0.003178
    29  H    0.136760   0.007615
    30  H    0.119110   0.005940
    31  H    0.140624   0.000890
    32  H    0.036157   0.077682
    33  H    0.053480   0.060581
    34  H    0.164791   0.008276
 Sum of Mulliken charges =  -1.00000   1.00000

 Dipole moment (field-independent basis, Debye):
    X=             -5.6681    Y=             -2.8346    Z=              0.2199  Tot=              6.3412
 Quadrupole moment (field-independent basis, Debye-Ang):
   XX=           -168.3728   YY=           -136.3702   ZZ=           -116.6134
   XY=            -20.1567   XZ=              4.8709   YZ=              2.5484

 Summary of Natural Population Analysis:

                                       Natural Population
                Natural  -----------------------------------------------
    Atom  No    Charge         Core      Valence    Rydberg      Total
 -----------------------------------------------------------------------
      C    1   -0.28762      0.99966     2.28144    0.00652     3.28762
      C    2   -0.18652      0.99964     2.17808    0.00881     3.18652
      C    3   -0.21316      0.99959     2.20227    0.01129     3.21316
      C    4    0.24318      0.99958     1.73867    0.01858     2.75682
      N    5   -0.25454      0.99965     2.74590    0.00899     3.75454
      C    6   -0.09976      0.99959     2.09004    0.01012     3.09976
      C    7   -0.09321      0.99945     2.08405    0.00970     3.09321
      C    8    0.08817      0.99954     1.89740    0.01489     2.91183
      N    9   -0.25348      0.99967     2.74291    0.01090     3.75348
      C   10    0.20967      0.99961     1.76912    0.02159     2.79033
      N   11   -0.25248      0.99964     2.74315    0.00970     3.75248
      C   12    0.24899      0.99946     1.73655    0.01500     2.75101
      N   13   -0.31773      0.99963     2.80952    0.00858     3.81773
      C   14   -0.20444      0.99959     2.19599    0.00887     3.20444
      C   15   -0.18631      0.99964     2.17947    0.00720     3.18631
      C   16   -0.28749      0.99967     2.28322    0.00461     3.28749
      H   17    0.10028      0.00000     0.39850    0.00122     0.39972
      H   18    0.09716      0.00000     0.40202    0.00082     0.40284
      H   19    0.09612      0.00000     0.40297    0.00091     0.40388
      H   20    0.09099      0.00000     0.40733    0.00168     0.40901
      H   21    0.10088      0.00000     0.39437    0.00474     0.39912
      H   22    0.10417      0.00000     0.39439    0.00144     0.39583
      H   23    0.10883      0.00000     0.38936    0.00181     0.39117
      H   24    0.09101      0.00000     0.40765    0.00135     0.40899
      H   25    0.09463      0.00000     0.40410    0.00127     0.40537
      H   26    0.08116      0.00000     0.41784    0.00100     0.41884
      H   27    0.19804      0.00000     0.29881    0.00315     0.30196
      H   28    0.10090      0.00000     0.39797    0.00113     0.39910
      H   29    0.10228      0.00000     0.39681    0.00091     0.39772
      H   30    0.08773      0.00000     0.41098    0.00129     0.41227
      H   31    0.10041      0.00000     0.39809    0.00150     0.39959
      H   32    0.09519      0.00000     0.40356    0.00126     0.40481
      H   33    0.09281      0.00000     0.40620    0.00099     0.40719
      H   34    0.10416      0.00000     0.39474    0.00110     0.39584
 =======================================================================
   * Total *   -0.00000     15.99364    42.80346    0.20290    59.00000

 Normal termination of Gaussian 16 at Thu Dec 10 22:00:10 2020.
