 Gaussian 16, Revision A.03,

 -----------------------------------------------------------
 # opt freq B3LYP/6-31G(d) empiricaldispersion=gd3bj scf=xqc
 -----------------------------------------------------------

 ------------------------------
 CID_16772303_JID_7242_neutraal
 ------------------------------
 Symbolic Z-matrix:
 Charge =  0 Multiplicity = 1

 SCF Done:  E(RB3LYP) =  -819.577144715     A.U. after   15 cycles
 SCF Done:  E(RB3LYP) =  -819.585361490     A.U. after   13 cycles
 SCF Done:  E(RB3LYP) =  -819.586467726     A.U. after   13 cycles
 SCF Done:  E(RB3LYP) =  -819.586443901     A.U. after   12 cycles
 SCF Done:  E(RB3LYP) =  -819.587318231     A.U. after   13 cycles
 SCF Done:  E(RB3LYP) =  -819.587578209     A.U. after   13 cycles
 SCF Done:  E(RB3LYP) =  -819.587662130     A.U. after   12 cycles
 SCF Done:  E(RB3LYP) =  -819.587694974     A.U. after   10 cycles
 SCF Done:  E(RB3LYP) =  -819.587713811     A.U. after   11 cycles
 SCF Done:  E(RB3LYP) =  -819.587725559     A.U. after   11 cycles
 SCF Done:  E(RB3LYP) =  -819.587759876     A.U. after   11 cycles
 SCF Done:  E(RB3LYP) =  -819.587773974     A.U. after   10 cycles
 SCF Done:  E(RB3LYP) =  -819.587776625     A.U. after    9 cycles
 SCF Done:  E(RB3LYP) =  -819.587776901     A.U. after    8 cycles
 SCF Done:  E(RB3LYP) =  -819.587777233     A.U. after    8 cycles
 SCF Done:  E(RB3LYP) =  -819.587777343     A.U. after    8 cycles
 Optimization completed.
    -- Stationary point found.
 Normal termination of Gaussian 16 at Fri Dec 11 11:59:37 2020.

 --------------------------------------------------------------------
 #N Geom=AllCheck Guess=TCheck SCRF=Check GenChk RB3LYP/6-31G(d) Freq
 --------------------------------------------------------------------

 Structure from the checkpoint file:  "JID_7242.chk"
 ------------------------------
 CID_16772303_JID_7242_neutraal
 ------------------------------
 Charge =  0 Multiplicity = 1

 SCF Done:  E(RB3LYP) =  -819.587777343     A.U. after    1 cycles

  Exact polarizability: 189.916 -13.677 195.227  -1.589  -0.296  65.714
 Approx polarizability: 315.120 -23.076 315.179 -13.477  -2.272 104.547

                      1                      2                      3
                      A                      A                      A
 Frequencies --     44.6893                52.0003                61.6833
 Red. masses --      8.9433                 3.4962                 2.3856
 Frc consts  --      0.0105                 0.0056                 0.0053
 IR Inten    --      2.0862                 1.2513                 3.2571

                      4                      5                      6
                      A                      A                      A
 Frequencies --     81.0161               119.2304               138.4404
 Red. masses --      3.8374                 3.7149                 2.0698
 Frc consts  --      0.0148                 0.0311                 0.0234
 IR Inten    --      3.6996                 1.1113                 0.2510

                      7                      8                      9
                      A                      A                      A
 Frequencies --    155.1569               170.8067               205.4475
 Red. masses --      4.3888                 2.2943                 3.2311
 Frc consts  --      0.0623                 0.0394                 0.0804
 IR Inten    --      0.1637                 1.8207                 1.1188

                     10                     11                     12
                      A                      A                      A
 Frequencies --    211.9475               247.8268               287.9346
 Red. masses --      4.3818                 1.6684                 2.5570
 Frc consts  --      0.1160                 0.0604                 0.1249
 IR Inten    --      4.6570                 2.3569                 3.3220

                     13                     14                     15
                      A                      A                      A
 Frequencies --    313.1299               329.8298               351.0551
 Red. masses --      5.3099                 5.3951                 6.2228
 Frc consts  --      0.3067                 0.3458                 0.4518
 IR Inten    --      5.6756                 1.9074                 4.0025

                     16                     17                     18
                      A                      A                      A
 Frequencies --    389.1929               442.8491               449.9210
 Red. masses --      5.7816                 4.8539                 4.7943
 Frc consts  --      0.5160                 0.5609                 0.5718
 IR Inten    --      1.5959                 2.6305                 0.3828

                     19                     20                     21
                      A                      A                      A
 Frequencies --    477.6162               507.9284               539.8260
 Red. masses --      6.7549                 6.0909                 4.1745
 Frc consts  --      0.9079                 0.9258                 0.7167
 IR Inten    --      1.4399                10.6077                 0.4607

                     22                     23                     24
                      A                      A                      A
 Frequencies --    570.4234               611.4070               646.1002
 Red. masses --      2.3417                 5.4191                 1.6664
 Frc consts  --      0.4489                 1.1935                 0.4098
 IR Inten    --     13.4196                46.5016                74.2807

                     25                     26                     27
                      A                      A                      A
 Frequencies --    665.8559               692.1950               709.4868
 Red. masses --      5.2585                 4.8190                 6.9263
 Frc consts  --      1.3736                 1.3604                 2.0542
 IR Inten    --     15.8477                28.3088                15.4345

                     28                     29                     30
                      A                      A                      A
 Frequencies --    739.9117               765.5148               811.7284
 Red. masses --      5.8454                 4.0941                 3.3563
 Frc consts  --      1.8855                 1.4136                 1.3030
 IR Inten    --      7.6231                10.3803                36.3803

                     31                     32                     33
                      A                      A                      A
 Frequencies --    827.5535               839.3034               905.3027
 Red. masses --      2.0431                 4.9167                 1.4572
 Frc consts  --      0.8244                 2.0406                 0.7037
 IR Inten    --     14.0726                 7.9064                10.9043

                     34                     35                     36
                      A                      A                      A
 Frequencies --    943.6050               969.4604               991.0991
 Red. masses --      7.5315                 1.4047                 7.4198
 Frc consts  --      3.9510                 0.7778                 4.2941
 IR Inten    --     12.6757                 0.0545                54.3893

                     37                     38                     39
                      A                      A                      A
 Frequencies --   1002.7049              1032.2300              1064.3374
 Red. masses --      1.3084                 6.8619                 2.6121
 Frc consts  --      0.7751                 4.3077                 1.7434
 IR Inten    --      0.5615                15.5567                 2.8303

                     40                     41                     42
                      A                      A                      A
 Frequencies --   1111.7243              1152.4275              1170.5988
 Red. masses --      4.3320                 2.5251                 2.1930
 Frc consts  --      3.1545                 1.9759                 1.7705
 IR Inten    --    111.5287                19.4647               449.1959

                     43                     44                     45
                      A                      A                      A
 Frequencies --   1184.8022              1185.5362              1195.9552
 Red. masses --      1.2722                 1.2746                 1.8851
 Frc consts  --      1.0522                 1.0555                 1.5886
 IR Inten    --      8.0922                12.3961               141.6450

                     46                     47                     48
                      A                      A                      A
 Frequencies --   1219.9261              1226.7800              1277.8480
 Red. masses --      1.3775                 1.5950                 1.7386
 Frc consts  --      1.2079                 1.4143                 1.6727
 IR Inten    --      2.4417                83.8250                10.3153

                     49                     50                     51
                      A                      A                      A
 Frequencies --   1294.0565              1312.9937              1354.4880
 Red. masses --      2.3514                 3.4828                 2.8695
 Frc consts  --      2.3200                 3.5375                 3.1017
 IR Inten    --     28.2349               129.0904                62.6198

                     52                     53                     54
                      A                      A                      A
 Frequencies --   1387.0574              1399.7153              1426.8840
 Red. masses --      3.4020                 5.1743                 3.1999
 Frc consts  --      3.8563                 5.9728                 3.8386
 IR Inten    --    165.6229                86.4753                12.6070

                     55                     56                     57
                      A                      A                      A
 Frequencies --   1446.5243              1490.3086              1508.7809
 Red. masses --      2.2482                 1.3562                 1.2308
 Frc consts  --      2.7717                 1.7747                 1.6508
 IR Inten    --      6.7591                12.2014                 1.1867

                     58                     59                     60
                      A                      A                      A
 Frequencies --   1514.3609              1522.9583              1528.8114
 Red. masses --      1.1158                 1.0485                 2.2764
 Frc consts  --      1.5076                 1.4328                 3.1348
 IR Inten    --     10.4923                 6.6315                59.8625

                     61                     62                     63
                      A                      A                      A
 Frequencies --   1535.9794              1542.6576              1551.5414
 Red. masses --      1.1541                 1.0560                 3.9625
 Frc consts  --      1.6042                 1.4806                 5.6202
 IR Inten    --     29.9819                 8.6271                43.5330

                     64                     65                     66
                      A                      A                      A
 Frequencies --   1618.0246              1652.4002              1662.7645
 Red. masses --      7.1301                 6.4946                 6.3637
 Frc consts  --     10.9981                10.4479                10.3662
 IR Inten    --    121.6812               121.9901                 0.5036

                     67                     68                     69
                      A                      A                      A
 Frequencies --   1839.6342              3033.3372              3046.7957
 Red. masses --     10.0090                 1.0344                 1.0386
 Frc consts  --     19.9574                 5.6078                 5.6806
 IR Inten    --    267.5214                60.5558                62.5113

                     70                     71                     72
                      A                      A                      A
 Frequencies --   3096.0504              3132.0091              3162.9653
 Red. masses --      1.1069                 1.0953                 1.0894
 Frc consts  --      6.2511                 6.3302                 6.4214
 IR Inten    --     35.7159                36.8417                33.9727

                     73                     74                     75
                      A                      A                      A
 Frequencies --   3164.3613              3166.6766              3207.6004
 Red. masses --      1.1006                 1.1073                 1.0907
 Frc consts  --      6.4929                 6.5420                 6.6120
 IR Inten    --     20.7017                16.7635                17.6637

                     76                     77                     78
                      A                      A                      A
 Frequencies --   3234.2062              3258.6519              3694.0966
 Red. masses --      1.0942                 1.0890                 1.0640
 Frc consts  --      6.7433                 6.8134                 8.5549
 IR Inten    --      8.2193                 0.7342                64.5236

 - Thermochemistry -
 -------------------
 Temperature   298.150 Kelvin.  Pressure   1.00000 Atm.
 Atom     1 has atomic number  6 and mass  12.00000

 Molecular mass:   233.06881 amu.
 Principal axes and moments of inertia in atomic units:
                           1         2         3
     Eigenvalues --  3165.591773905.056756853.10080
           X            0.99745  -0.07067   0.00982
           Y            0.07062   0.99749   0.00543
           Z           -0.01018  -0.00472   0.99994
 This molecule is an asymmetric top.
 Rotational symmetry number  1.
 Warning -- assumption of classical behavior for rotation
           may cause significant error
 Rotational temperatures (Kelvin)      0.02736     0.02218     0.01264
 Rotational constants (GHZ):           0.57011     0.46215     0.26335
 Zero-point vibrational energy     567496.7 (Joules/Mol)
                                  135.63496 (Kcal/Mol)
 Warning -- explicit consideration of  23 degrees of freedom as
           vibrations may cause significant error
 Vibrational temperatures:     64.30    74.82    88.75   116.56   171.55
          (Kelvin)            199.18   223.24   245.75   295.59   304.95
                              356.57   414.27   450.52   474.55   505.09
                              559.96   637.16   647.34   687.18   730.80
                              776.69   820.71   879.68   929.59   958.02
                              995.91  1020.79  1064.57  1101.41  1167.90
                             1190.66  1207.57  1302.53  1357.64  1394.84
                             1425.97  1442.67  1485.15  1531.34  1599.52
                             1658.09  1684.23  1704.67  1705.72  1720.71
                             1755.20  1765.06  1838.54  1861.86  1889.11
                             1948.81  1995.67  2013.88  2052.97  2081.23
                             2144.22  2170.80  2178.83  2191.20  2199.62
                             2209.93  2219.54  2232.32  2327.98  2377.44
                             2392.35  2646.82  4364.30  4383.66  4454.53
                             4506.26  4550.80  4552.81  4556.14  4615.02
                             4653.30  4688.47  5314.98

 Zero-point correction=                           0.216148 (Hartree/Particle)
 Thermal correction to Energy=                    0.231279
 Thermal correction to Enthalpy=                  0.232223
 Thermal correction to Gibbs Free Energy=         0.173121
 Sum of electronic and zero-point Energies=           -819.371629
 Sum of electronic and thermal Energies=              -819.356499
 Sum of electronic and thermal Enthalpies=            -819.355554
 Sum of electronic and thermal Free Energies=         -819.414656

                     E (Thermal)             CV                S
                      KCal/Mol        Cal/Mol-Kelvin    Cal/Mol-Kelvin
 Total                  145.130             56.439            124.391
 Electronic               0.000              0.000              0.000
 Translational            0.889              2.981             42.240
 Rotational               0.889              2.981             32.804
 Vibrational            143.352             50.477             49.346
 Vibration     1          0.595              1.980              5.040
 Vibration     2          0.596              1.977              4.740
 Vibration     3          0.597              1.973              4.403
 Vibration     4          0.600              1.962              3.866
 Vibration     5          0.609              1.933              3.113
 Vibration     6          0.614              1.915              2.825
 Vibration     7          0.620              1.897              2.608
 Vibration     8          0.626              1.878              2.427
 Vibration     9          0.640              1.832              2.084
 Vibration    10          0.643              1.823              2.027
 Vibration    11          0.661              1.766              1.746
 Vibration    12          0.685              1.696              1.486
 Vibration    13          0.701              1.649              1.346
 Vibration    14          0.713              1.616              1.261
 Vibration    15          0.728              1.573              1.161
 Vibration    16          0.757              1.493              1.003
 Vibration    17          0.802              1.377              0.818
 Vibration    18          0.809              1.361              0.796
 Vibration    19          0.834              1.300              0.717
 Vibration    20          0.863              1.232              0.639
 Vibration    21          0.895              1.162              0.566
 Vibration    22          0.927              1.095              0.503
 Vibration    23          0.971              1.008              0.430

                           ! Non-Optimized Parameters !
 Normal termination of Gaussian 16 at Fri Dec 11 12:09:53 2020.

 ----------------------------------------------------------------------
 # B3LYP/6-311++G(d,p) empiricaldispersion=gd3bj scf=xqc pop=npa geom=c
 heck
 ----------------------------------------------------------------------

 --------------------------------------
 CID_16772303_JID_7242_Energie_neutraal
 --------------------------------------
 Structure from the checkpoint file:  "JID_7242.chk"
 Charge =  0 Multiplicity = 1

 SCF Done:  E(RB3LYP) =  -819.818727280     A.U. after   15 cycles
 Normal termination of Gaussian 16 at Fri Dec 11 12:14:06 2020.

 ----------------------------------------------------------------------
 # B3LYP/6-311++G(d,p) empiricaldispersion=gd3bj scf=xqc pop=npa geom=c
 heck
 ----------------------------------------------------------------------

 ------------------------------------
 CID_16772303_JID_7242_Energie_kation
 ------------------------------------
 Structure from the checkpoint file:  "JID_7242.chk"
 Charge =  1 Multiplicity = 2

 SCF Done:  E(UB3LYP) =  -819.530508518     A.U. after   24 cycles
 Normal termination of Gaussian 16 at Fri Dec 11 12:23:42 2020.
 Gaussian 16:  ES64L-G16RevA.03 25-Dec-2016

 ----------------------------------------------------------------------
 # B3LYP/6-311++G(d,p) empiricaldispersion=gd3bj scf=xqc pop=npa geom=c
 heck
 ----------------------------------------------------------------------

 -----------------------------------
 CID_16772303_JID_7242_Energie_anion
 -----------------------------------
 Structure from the checkpoint file:  "JID_7242.chk"
 Charge = -1 Multiplicity = 2

                         Standard orientation:
 ---------------------------------------------------------------------
 Center     Atomic      Atomic             Coordinates (Angstroms)
 Number     Number       Type             X           Y           Z
 ---------------------------------------------------------------------
      1          6           0        2.765261   -2.697770   -0.220861
      2          8           0        2.652627   -1.282270   -0.191987
      3          6           0        1.403836   -0.735001   -0.123560
      4          6           0        1.324881    0.655074   -0.148813
      5          6           0        0.057090    1.290591   -0.127584
      6          6           0       -1.147700    0.517339   -0.055414
      7          6           0       -1.032094   -0.903141    0.019103
      8          6           0        0.220773   -1.494769   -0.033396
      9          6           0       -2.223692   -1.776491    0.202039
     10          8           0       -3.252700   -1.497179    0.772562
     11          8           0       -2.018038   -3.021003   -0.330760
     12          7           0       -2.377677    1.099586   -0.087969
     13          6           0       -2.444059    2.411903   -0.151927
     14          6           0       -1.314055    3.266911   -0.192933
     15          6           0       -0.063272    2.703222   -0.189413
     16          8           0        2.433833    1.447601   -0.257916
     17          6           0        3.362997    1.386829    0.831350
     18          1           0        3.832364   -2.906714   -0.308913
     19          1           0        2.237934   -3.123888   -1.083230
     20          1           0        2.380498   -3.152749    0.700769
     21          1           0        0.276904   -2.574026   -0.000276
     22          1           0       -2.824311   -3.522432   -0.108832
     23          1           0       -3.445279    2.840479   -0.180919
     24          1           0       -1.448609    4.343119   -0.239955
     25          1           0        0.838583    3.302079   -0.243947
     26          1           0        2.862081    1.632809    1.775946
     27          1           0        3.824513    0.399306    0.903323
     28          1           0        4.123479    2.139536    0.615086
 ---------------------------------------------------------------------

 SCF Done:  E(UB3LYP) =  -819.839857451     A.U. after   25 cycles

 The electronic state is 2-A.
 Alpha  occ. eigenvalues --  -19.03637 -19.02797 -19.01314 -18.95588 -14.14067
 Alpha  occ. eigenvalues --  -10.14641 -10.12244 -10.10256 -10.09179 -10.07174
 Alpha  occ. eigenvalues --  -10.06223 -10.04856 -10.03958 -10.02762 -10.02581
 Alpha  occ. eigenvalues --  -10.02564 -10.02317  -0.96252  -0.95468  -0.92467
 Alpha  occ. eigenvalues --   -0.86881  -0.78877  -0.70345  -0.65965  -0.63373
 Alpha  occ. eigenvalues --   -0.61271  -0.58859  -0.56666  -0.50967  -0.49618
 Alpha  occ. eigenvalues --   -0.47995  -0.44029  -0.41233  -0.40086  -0.39049
 Alpha  occ. eigenvalues --   -0.36440  -0.35492  -0.34976  -0.34249  -0.33475
 Alpha  occ. eigenvalues --   -0.33304  -0.32845  -0.30428  -0.30294  -0.29028
 Alpha  occ. eigenvalues --   -0.27049  -0.26636  -0.26143  -0.24710  -0.24167
 Alpha  occ. eigenvalues --   -0.23650  -0.22234  -0.21262  -0.18618  -0.17396
 Alpha  occ. eigenvalues --   -0.16588  -0.15054  -0.13700  -0.10671  -0.09463
 Alpha  occ. eigenvalues --   -0.07903   0.03561
 Alpha virt. eigenvalues --    0.07287   0.08429   0.09287   0.09703   0.10992
 Alpha virt. eigenvalues --    0.11132   0.11830   0.12074   0.12397   0.12660
 Alpha virt. eigenvalues --    0.12898   0.13321   0.15105   0.15939   0.16615

  Beta  occ. eigenvalues --  -19.03650 -19.02775 -19.01289 -18.95426 -14.13826
  Beta  occ. eigenvalues --  -10.14543 -10.12238 -10.10219 -10.09240 -10.06779
  Beta  occ. eigenvalues --  -10.06272 -10.04738 -10.04057 -10.02740 -10.02304
  Beta  occ. eigenvalues --  -10.02300 -10.02090  -0.96113  -0.95458  -0.92328
  Beta  occ. eigenvalues --   -0.86651  -0.78515  -0.69967  -0.65509  -0.63232
  Beta  occ. eigenvalues --   -0.60920  -0.58682  -0.56392  -0.50520  -0.49261
  Beta  occ. eigenvalues --   -0.47841  -0.43836  -0.41058  -0.39895  -0.38918
  Beta  occ. eigenvalues --   -0.36375  -0.35309  -0.34805  -0.33995  -0.33339
  Beta  occ. eigenvalues --   -0.33134  -0.32727  -0.30276  -0.29816  -0.28800
  Beta  occ. eigenvalues --   -0.26839  -0.26275  -0.25873  -0.24516  -0.23795
  Beta  occ. eigenvalues --   -0.23458  -0.22076  -0.21061  -0.17981  -0.16576
  Beta  occ. eigenvalues --   -0.16101  -0.14187  -0.13400  -0.09653  -0.09176
  Beta  occ. eigenvalues --   -0.06354
  Beta virt. eigenvalues --    0.07225   0.08267   0.09139   0.09297   0.09663
  Beta virt. eigenvalues --    0.10957   0.11087   0.12004   0.12218   0.12727
  Beta virt. eigenvalues --    0.12861   0.13240   0.13778   0.15073   0.15912

 Mulliken charges and spin densities:
               1          2
     1  C   -0.296158  -0.009684
     2  O   -0.193146   0.002769
     3  C   -0.884560  -0.115114
     4  C   -0.678702   0.272565
     5  C    1.582090  -0.050775
     6  C   -1.532956  -0.055875
     7  C   -0.006775   0.144601
     8  C    0.207758   0.210708
     9  C    0.164943   0.093308
    10  O   -0.321993   0.056767
    11  O   -0.204332   0.003530
    12  N    0.077517   0.107364
    13  C   -0.051646   0.090473
    14  C   -0.241414   0.059568
    15  C    0.254877   0.198686
    16  O   -0.183598   0.000349
    17  C   -0.259664  -0.027337
    18  H    0.140652   0.002183
    19  H    0.138721   0.007909
    20  H    0.138762   0.004701
    21  H    0.153788  -0.013099
    22  H    0.252123   0.003565
    23  H    0.135711  -0.009283
    24  H    0.119397  -0.000901
    25  H    0.140767  -0.014907
    26  H    0.108528   0.009870
    27  H    0.148625   0.004546
    28  H    0.090685   0.023513
 Sum of Mulliken charges =  -1.00000   1.00000

 Dipole moment (field-independent basis, Debye):
    X=              6.0334    Y=             -2.4350    Z=              0.3782  Tot=              6.5172
 Quadrupole moment (field-independent basis, Debye-Ang):
   XX=           -132.2652   YY=           -110.4719   ZZ=           -108.7435
   XY=             -2.6673   XZ=              6.9964   YZ=              2.3114

 Summary of Natural Population Analysis:

                                       Natural Population
                Natural  -----------------------------------------------
    Atom  No    Charge         Core      Valence    Rydberg      Total
 -----------------------------------------------------------------------
      C    1   -0.09862      0.99961     2.09069    0.00832     3.09862
      O    2   -0.28335      0.99986     3.27347    0.01002     4.28335
      C    3    0.09773      0.99940     1.88677    0.01610     2.90227
      C    4    0.26221      0.99932     1.72759    0.01087     2.73779
      C    5   -0.09402      0.99951     2.08004    0.01447     3.09402
      C    6    0.08772      0.99947     1.89937    0.01344     2.91228
      C    7   -0.06691      0.99946     2.04756    0.01989     3.06691
      C    8   -0.06690      0.99952     2.05938    0.00800     3.06690
      C    9    0.48128      0.99970     1.49057    0.02845     2.51872
      O   10   -0.30457      0.99988     3.29127    0.01342     4.30457
      O   11   -0.37355      0.99989     3.35818    0.01548     4.37355
      N   12   -0.19693      0.99968     2.68538    0.01187     3.69693
      C   13    0.04755      0.99962     1.93730    0.01554     2.95245
      C   14   -0.13475      0.99956     2.12609    0.00909     3.13475
      C   15   -0.03116      0.99954     2.02220    0.00942     3.03116
      O   16   -0.29454      0.99987     3.28034    0.01434     4.29454
      C   17   -0.09530      0.99960     2.08626    0.00944     3.09530
      H   18    0.08465      0.00000     0.41447    0.00088     0.41535
      H   19    0.08386      0.00000     0.41461    0.00154     0.41614
      H   20    0.08113      0.00000     0.41730    0.00157     0.41887
      H   21    0.10066      0.00000     0.39781    0.00154     0.39934
      H   22    0.22762      0.00000     0.26682    0.00556     0.27238
      H   23    0.07564      0.00000     0.42298    0.00138     0.42436
      H   24    0.09031      0.00000     0.40841    0.00128     0.40969
      H   25    0.09649      0.00000     0.40185    0.00166     0.40351
      H   26    0.07749      0.00000     0.41963    0.00288     0.42251
      H   27    0.08593      0.00000     0.41147    0.00260     0.41407
      H   28    0.08026      0.00000     0.41841    0.00133     0.41974
 =======================================================================
   * Total *    0.01991     16.99349    43.73622    0.25038    60.98009

 Normal termination of Gaussian 16 at Fri Dec 11 12:34:08 2020.
