 Gaussian 16, Revision A.03,

 -----------------------------------------------------------
 # opt freq B3LYP/6-31G(d) empiricaldispersion=gd3bj scf=xqc
 -----------------------------------------------------------

 -------------------------------
 CID_113433483_JID_9703_neutraal
 -------------------------------
 Symbolic Z-matrix:
 Charge =  0 Multiplicity = 1

 SCF Done:  E(RB3LYP) =  -1649.17973953     A.U. after   15 cycles
 SCF Done:  E(RB3LYP) =  -1649.19333271     A.U. after   13 cycles
 SCF Done:  E(RB3LYP) =  -1649.19573600     A.U. after   12 cycles
 SCF Done:  E(RB3LYP) =  -1649.19703821     A.U. after   13 cycles
 SCF Done:  E(RB3LYP) =  -1649.19875106     A.U. after   13 cycles
 SCF Done:  E(RB3LYP) =  -1649.20048681     A.U. after   13 cycles
 SCF Done:  E(RB3LYP) =  -1649.20157678     A.U. after   13 cycles
 SCF Done:  E(RB3LYP) =  -1649.20230788     A.U. after   12 cycles
 SCF Done:  E(RB3LYP) =  -1649.20314520     A.U. after   13 cycles
 SCF Done:  E(RB3LYP) =  -1649.19917216     A.U. after   15 cycles
 SCF Done:  E(RB3LYP) =  -1649.20640916     A.U. after   11 cycles
 SCF Done:  E(RB3LYP) =  -1649.20642735     A.U. after   11 cycles
 SCF Done:  E(RB3LYP) =  -1649.20642796     A.U. after   10 cycles
 SCF Done:  E(RB3LYP) =  -1649.20643029     A.U. after    9 cycles
 SCF Done:  E(RB3LYP) =  -1649.20643033     A.U. after    7 cycles
 SCF Done:  E(RB3LYP) =  -1649.20643034     A.U. after    7 cycles
 Optimization completed.
    -- Stationary point found.
 Normal termination of Gaussian 16 at Sat Dec 12 10:31:13 2020.

 --------------------------------------------------------------------
 #N Geom=AllCheck Guess=TCheck SCRF=Check GenChk RB3LYP/6-31G(d) Freq
 --------------------------------------------------------------------

 Structure from the checkpoint file:  "JID_9703.chk"
 -------------------------------
 CID_113433483_JID_9703_neutraal
 -------------------------------
 Charge =  0 Multiplicity = 1

 SCF Done:  E(RB3LYP) =  -1649.20643034     A.U. after    1 cycles

  Exact polarizability: 174.595 -12.603 180.955  18.683  17.740 123.535
 Approx polarizability: 294.447 -29.871 295.006  51.667  45.566 217.339

                      1                      2                      3
                      A                      A                      A
 Frequencies --     20.0373                27.4297                50.6967
 Red. masses --      6.7446                 6.2079                 5.2380
 Frc consts  --      0.0016                 0.0028                 0.0079
 IR Inten    --      0.0356                 0.1315                 0.8028

                      4                      5                      6
                      A                      A                      A
 Frequencies --     68.1814                78.8014                89.8030
 Red. masses --      5.1719                 1.2267                 1.3666
 Frc consts  --      0.0142                 0.0045                 0.0065
 IR Inten    --      2.0839                 0.3698                 0.7466

                      7                      8                      9
                      A                      A                      A
 Frequencies --     90.2543               104.1764               113.9050
 Red. masses --      2.5378                 4.4849                 7.1856
 Frc consts  --      0.0122                 0.0287                 0.0549
 IR Inten    --      2.0864                 1.2777                 3.8415

                     10                     11                     12
                      A                      A                      A
 Frequencies --    128.7656               197.2534               205.8009
 Red. masses --      5.0239                 6.1482                 5.1146
 Frc consts  --      0.0491                 0.1409                 0.1276
 IR Inten    --      1.5258                 1.5417                 1.5462

                     13                     14                     15
                      A                      A                      A
 Frequencies --    226.3182               257.2335               271.0721
 Red. masses --      3.8187                 4.5856                 8.4421
 Frc consts  --      0.1152                 0.1788                 0.3655
 IR Inten    --      2.8323                 1.3756                 0.4930

                     16                     17                     18
                      A                      A                      A
 Frequencies --    277.7338               306.5267               337.2473
 Red. masses --      4.7337                 6.1792                 5.4513
 Frc consts  --      0.2151                 0.3421                 0.3653
 IR Inten    --      0.5290                 2.0913                 0.1480

                     19                     20                     21
                      A                      A                      A
 Frequencies --    360.6580               365.4594               401.8166
 Red. masses --      6.5349                 6.1362                 9.0299
 Frc consts  --      0.5008                 0.4829                 0.8590
 IR Inten    --      4.4793                 3.6742                 1.6488

                     22                     23                     24
                      A                      A                      A
 Frequencies --    447.2490               477.6854               486.2380
 Red. masses --      2.9911                 3.8552                 4.1276
 Frc consts  --      0.3525                 0.5183                 0.5750
 IR Inten    --     33.7419                20.8220                 6.4611

                     25                     26                     27
                      A                      A                      A
 Frequencies --    492.8941               525.2013               539.6182
 Red. masses --      2.9086                 1.9418                 4.7510
 Frc consts  --      0.4163                 0.3156                 0.8151
 IR Inten    --      9.8317                34.1839                40.4521

                     28                     29                     30
                      A                      A                      A
 Frequencies --    590.9332               603.2808               632.5645
 Red. masses --      1.4357                 4.0024                 4.6451
 Frc consts  --      0.2954                 0.8582                 1.0951
 IR Inten    --     65.4327               278.4602                19.9862

                     31                     32                     33
                      A                      A                      A
 Frequencies --    641.7004               657.9302               689.3798
 Red. masses --      3.7691                 5.1868                 3.4546
 Frc consts  --      0.9144                 1.3229                 0.9673
 IR Inten    --     29.1336                74.8760                29.1019

                     34                     35                     36
                      A                      A                      A
 Frequencies --    697.5334               706.3378               744.8211
 Red. masses --      4.2280                 4.2297                 6.3302
 Frc consts  --      1.2120                 1.2433                 2.0691
 IR Inten    --     22.6639                19.5737                 9.5399

                     37                     38                     39
                      A                      A                      A
 Frequencies --    758.6635               806.0267               825.5184
 Red. masses --      6.5981                 6.0880                 3.4356
 Frc consts  --      2.2375                 2.3303                 1.3795
 IR Inten    --     47.0294                13.6755                32.7041

                     40                     41                     42
                      A                      A                      A
 Frequencies --    851.5383               866.3696               898.3705
 Red. masses --      4.0813                 1.2725                 1.4298
 Frc consts  --      1.7436                 0.5628                 0.6799
 IR Inten    --     35.5883                14.1835                 1.8957

                     43                     44                     45
                      A                      A                      A
 Frequencies --    961.9413              1014.6143              1037.3760
 Red. masses --      4.0465                 1.5268                 2.4727
 Frc consts  --      2.2061                 0.9260                 1.5678
 IR Inten    --     39.8395                 8.8216                41.1543

                     46                     47                     48
                      A                      A                      A
 Frequencies --   1054.7058              1075.3559              1085.1481
 Red. masses --      1.4142                 1.4418                 4.7528
 Frc consts  --      0.9269                 0.9823                 3.2975
 IR Inten    --      1.4950                 1.1902                55.6152

                     49                     50                     51
                      A                      A                      A
 Frequencies --   1132.3907              1147.9827              1184.1061
 Red. masses --      8.9465                 2.6379                 1.6687
 Frc consts  --      6.7592                 2.0482                 1.3785
 IR Inten    --    219.3913                20.8866               153.3265

                     52                     53                     54
                      A                      A                      A
 Frequencies --   1194.9074              1202.7996              1235.0102
 Red. masses --      3.5979                 3.3336                 1.9586
 Frc consts  --      3.0267                 2.8415                 1.7601
 IR Inten    --     71.0101                10.1873                91.6372

                     55                     56                     57
                      A                      A                      A
 Frequencies --   1253.0071              1295.4394              1344.5283
 Red. masses --      1.7313                 2.8788                 4.9048
 Frc consts  --      1.6016                 2.8464                 5.2241
 IR Inten    --      2.3334                30.5518                57.2244

                     58                     59                     60
                      A                      A                      A
 Frequencies --   1363.6915              1391.1373              1400.1938
 Red. masses --      3.4542                 3.7082                 2.0849
 Frc consts  --      3.7847                 4.2282                 2.4083
 IR Inten    --     39.1533                27.9844                73.7482

                     61                     62                     63
                      A                      A                      A
 Frequencies --   1410.0334              1446.7207              1451.3623
 Red. masses --      3.2343                 1.2152                 1.3980
 Frc consts  --      3.7887                 1.4985                 1.7350
 IR Inten    --     59.2307                 1.3316                 2.2677

                     64                     65                     66
                      A                      A                      A
 Frequencies --   1455.6454              1502.1495              1503.7135
 Red. masses --      2.7224                 1.0432                 3.2463
 Frc consts  --      3.3987                 1.3868                 4.3248
 IR Inten    --     15.9836                 8.8520                83.9516

                     67                     68                     69
                      A                      A                      A
 Frequencies --   1511.5750              1513.0522              1526.9996
 Red. masses --      1.0601                 1.3632                 1.1582
 Frc consts  --      1.4271                 1.8388                 1.5911
 IR Inten    --     16.1707                28.3562                 7.5529

                     70                     71                     72
                      A                      A                      A
 Frequencies --   1539.2204              1585.6655              1642.8958
 Red. masses --      3.0150                 6.3987                 5.1128
 Frc consts  --      4.2086                 9.4791                 8.1308
 IR Inten    --     21.5278                29.3863                22.8193

                     73                     74                     75
                      A                      A                      A
 Frequencies --   1814.2918              3046.6466              3068.4703
 Red. masses --     10.0502                 1.0357                 1.0376
 Frc consts  --     19.4912                 5.6643                 5.7558
 IR Inten    --    354.4702                23.9514                 7.5253

                     76                     77                     78
                      A                      A                      A
 Frequencies --   3104.1727              3111.7316              3131.5092
 Red. masses --      1.1018                 1.1013                 1.0988
 Frc consts  --      6.2552                 6.2826                 6.3485
 IR Inten    --     15.8667                22.3231                 7.2805

                     79                     80                     81
                      A                      A                      A
 Frequencies --   3156.4633              3253.8845              3266.9299
 Red. masses --      1.1038                 1.0962                 1.0945
 Frc consts  --      6.4793                 6.8379                 6.8824
 IR Inten    --      5.1380                 6.5525                 3.9953

                     82                     83                     84
                      A                      A                      A
 Frequencies --   3547.1014              3655.5795              3701.1389
 Red. masses --      1.0756                 1.0819                 1.0643
 Frc consts  --      7.9737                 8.5181                 8.5895
 IR Inten    --     23.8757               100.4593                96.1812

 - Thermochemistry -
 -------------------
 Temperature   298.150 Kelvin.  Pressure   1.00000 Atm.
 Atom     1 has atomic number  6 and mass  12.00000

 Molecular mass:   301.01910 amu.
 Principal axes and moments of inertia in atomic units:
                           1         2         3
     Eigenvalues --  4489.344355810.361678140.43659
           X            0.99998  -0.00195  -0.00556
           Y            0.00202   0.99993   0.01200
           Z            0.00554  -0.01201   0.99991
 This molecule is an asymmetric top.
 Rotational symmetry number  1.
 Warning -- assumption of classical behavior for rotation
           may cause significant error
 Rotational temperatures (Kelvin)      0.01929     0.01491     0.01064
 Rotational constants (GHZ):           0.40201     0.31061     0.22170
 Zero-point vibrational energy     569663.6 (Joules/Mol)
                                  136.15286 (Kcal/Mol)
 Warning -- explicit consideration of  29 degrees of freedom as
           vibrations may cause significant error
 Vibrational temperatures:     28.83    39.47    72.94    98.10   113.38
          (Kelvin)            129.21   129.86   149.89   163.88   185.27
                              283.80   296.10   325.62   370.10   390.01
                              399.60   441.02   485.22   518.91   525.81
                              578.12   643.49   687.28   699.59   709.16
                              755.65   776.39   850.22   867.99   910.12
                              923.26   946.61   991.86  1003.59  1016.26
                             1071.63  1091.55  1159.69  1187.74  1225.17
                             1246.51  1292.55  1384.02  1459.80  1492.55
                             1517.49  1547.20  1561.29  1629.26  1651.69
                             1703.66  1719.21  1730.56  1776.90  1802.80
                             1863.85  1934.48  1962.05  2001.54  2014.57
                             2028.72  2081.51  2088.19  2094.35  2161.26
                             2163.51  2174.82  2176.94  2197.01  2214.59
                             2281.42  2363.76  2610.36  4383.44  4414.84
                             4466.21  4477.09  4505.54  4541.45  4681.61
                             4700.38  5103.49  5259.56  5325.11

 Zero-point correction=                           0.216973 (Hartree/Particle)
 Thermal correction to Energy=                    0.235814
 Thermal correction to Enthalpy=                  0.236758
 Thermal correction to Gibbs Free Energy=         0.167716
 Sum of electronic and zero-point Energies=          -1648.989457
 Sum of electronic and thermal Energies=             -1648.970617
 Sum of electronic and thermal Enthalpies=           -1648.969673
 Sum of electronic and thermal Free Energies=        -1649.038714

                     E (Thermal)             CV                S
                      KCal/Mol        Cal/Mol-Kelvin    Cal/Mol-Kelvin
 Total                  147.975             68.404            145.311
 Electronic               0.000              0.000              0.000
 Translational            0.889              2.981             43.003
 Rotational               0.889              2.981             33.717
 Vibrational            146.198             62.443             68.590
 Vibration     1          0.593              1.986              6.630
 Vibration     2          0.593              1.984              6.007
 Vibration     3          0.595              1.977              4.790
 Vibration     4          0.598              1.969              4.205
 Vibration     5          0.600              1.963              3.921
 Vibration     6          0.602              1.956              3.664
 Vibration     7          0.602              1.956              3.655
 Vibration     8          0.605              1.946              3.375
 Vibration     9          0.607              1.938              3.201
 Vibration    10          0.611              1.924              2.964
 Vibration    11          0.637              1.844              2.159
 Vibration    12          0.640              1.832              2.081
 Vibration    13          0.650              1.801              1.908
 Vibration    14          0.667              1.751              1.680
 Vibration    15          0.675              1.727              1.589
 Vibration    16          0.679              1.715              1.548
 Vibration    17          0.697              1.661              1.381
 Vibration    18          0.718              1.601              1.225
 Vibration    19          0.735              1.553              1.119
 Vibration    20          0.739              1.543              1.099
 Vibration    21          0.767              1.466              0.956
 Vibration    22          0.806              1.367              0.804
 Vibration    23          0.834              1.300              0.716
 Vibration    24          0.842              1.281              0.693
 Vibration    25          0.849              1.266              0.676
 Vibration    26          0.880              1.194              0.598
 Vibration    27          0.895              1.162              0.566
 Vibration    28          0.948              1.051              0.466
 Vibration    29          0.962              1.025              0.444

 Optimization completed.
    -- Stationary point found.
 Normal termination of Gaussian 16 at Sat Dec 12 10:46:57 2020.

 ----------------------------------------------------------------------
 # B3LYP/6-311++G(d,p) empiricaldispersion=gd3bj scf=xqc pop=npa geom=c
 heck
 ----------------------------------------------------------------------

 ---------------------------------------
 CID_113433483_JID_9703_Energie_neutraal
 ---------------------------------------
 Structure from the checkpoint file:  "JID_9703.chk"
 Charge =  0 Multiplicity = 1

 SCF Done:  E(RB3LYP) =  -1649.51095052     A.U. after   17 cycles
 Normal termination of Gaussian 16 at Sat Dec 12 10:54:17 2020.

 ----------------------------------------------------------------------
 # B3LYP/6-311++G(d,p) empiricaldispersion=gd3bj scf=xqc pop=npa geom=c
 heck
 ----------------------------------------------------------------------

 -------------------------------------
 CID_113433483_JID_9703_Energie_kation
 -------------------------------------
 Structure from the checkpoint file:  "JID_9703.chk"
 Charge =  1 Multiplicity = 2

 SCF Done:  E(UB3LYP) =  -1649.19505863     A.U. after   30 cycles
 Normal termination of Gaussian 16 at Sat Dec 12 11:12:40 2020.
 Gaussian 16:  ES64L-G16RevA.03 25-Dec-2016

 ----------------------------------------------------------------------
 # B3LYP/6-311++G(d,p) empiricaldispersion=gd3bj scf=xqc pop=npa geom=c
 heck
 ----------------------------------------------------------------------

 ------------------------------------
 CID_113433483_JID_9703_Energie_anion
 ------------------------------------
 Structure from the checkpoint file:  "JID_9703.chk"
 Charge = -1 Multiplicity = 2

                         Standard orientation:
 ---------------------------------------------------------------------
 Center     Atomic      Atomic             Coordinates (Angstroms)
 Number     Number       Type             X           Y           Z
 ---------------------------------------------------------------------
      1          6           0        0.270830    1.108138   -2.422696
      2          6           0        1.095254    1.700463   -1.322913
      3          6           0        2.021003    1.048707   -0.517161
      4          7           0        2.486411    1.966258    0.375478
      5          7           0        1.919408    3.176348    0.220824
      6          6           0        1.094463    3.024139   -0.818002
      7          7           0        2.451391   -0.287102   -0.454375
      8         16           0        1.694882   -1.280604    0.725508
      9          8           0        2.123315   -2.641679    0.408058
     10          8           0        1.969411   -0.637437    2.008075
     11          6           0       -0.042347   -1.110505    0.408801
     12          6           0       -0.787145   -1.972508   -0.377324
     13         16           0       -2.398959   -1.364773   -0.561991
     14          6           0       -2.047282    0.045127    0.403982
     15          6           0       -0.752505    0.040009    0.855336
     16          6           0       -3.102788    1.037713    0.619272
     17          8           0       -4.226063    0.956859    0.161747
     18          8           0       -2.682159    2.069703    1.387641
     19          6           0       -0.391357   -3.263407   -1.028612
     20          1           0        0.507225    0.048163   -2.567451
     21          1           0       -0.799081    1.168363   -2.191120
     22          1           0        0.432016    1.617189   -3.379694
     23          1           0        3.106054    1.781771    1.151739
     24          1           0        0.513625    3.868414   -1.166385
     25          1           0        2.487745   -0.772087   -1.347424
     26          1           0       -0.325472    0.816683    1.475494
     27          1           0       -3.444709    2.671211    1.473460
     28          1           0       -1.240534   -3.715780   -1.547008
     29          1           0        0.412799   -3.106582   -1.755187
     30          1           0       -0.009712   -3.966675   -0.284441
 ---------------------------------------------------------------------

 SCF Done:  E(UB3LYP) =  -1649.54171924     A.U. after   25 cycles

 The electronic state is 2-A.
 Alpha  occ. eigenvalues --  -88.95624 -88.72976 -19.03276 -19.01519 -19.01185
 Alpha  occ. eigenvalues --  -18.95910 -14.29019 -14.25679 -14.23868 -10.14796
 Alpha  occ. eigenvalues --  -10.14727 -10.09509 -10.08243 -10.07698 -10.06931
 Alpha  occ. eigenvalues --  -10.06344 -10.05943 -10.05176 -10.04520  -8.01784
 Alpha  occ. eigenvalues --   -7.81642  -5.98101  -5.98039  -5.97827  -5.77940
 Alpha  occ. eigenvalues --   -5.77577  -5.77262  -1.01655  -0.96896  -0.95826
 Alpha  occ. eigenvalues --   -0.90919  -0.87545  -0.84120  -0.75578  -0.72359
 Alpha  occ. eigenvalues --   -0.69606  -0.64778  -0.63384  -0.61136  -0.57541
 Alpha  occ. eigenvalues --   -0.55213  -0.51796  -0.50447  -0.49540  -0.46618
 Alpha  occ. eigenvalues --   -0.44323  -0.42701  -0.40468  -0.38794  -0.37963
 Alpha  occ. eigenvalues --   -0.35460  -0.35059  -0.34558  -0.33803  -0.33693
 Alpha  occ. eigenvalues --   -0.32150  -0.31903  -0.31422  -0.31191  -0.30909
 Alpha  occ. eigenvalues --   -0.29088  -0.27367  -0.26535  -0.24998  -0.24619
 Alpha  occ. eigenvalues --   -0.24285  -0.23064  -0.22371  -0.22126  -0.20751
 Alpha  occ. eigenvalues --   -0.19798  -0.19694  -0.19140  -0.16376  -0.14498
 Alpha  occ. eigenvalues --   -0.14033  -0.13032  -0.11449   0.02870
 Alpha virt. eigenvalues --    0.07107   0.08465   0.08842   0.09172   0.09346
 Alpha virt. eigenvalues --    0.09963   0.10933   0.11118   0.11978   0.12492
 Alpha virt. eigenvalues --    0.12924   0.13348   0.14064   0.14342   0.14542

  Beta  occ. eigenvalues --  -88.95617 -88.72892 -19.03211 -19.01516 -19.01173
  Beta  occ. eigenvalues --  -18.95664 -14.29020 -14.25673 -14.23868 -10.14725
  Beta  occ. eigenvalues --  -10.14563 -10.09506 -10.08244 -10.07697 -10.07041
  Beta  occ. eigenvalues --  -10.05992 -10.05675 -10.04994 -10.04356  -8.01777
  Beta  occ. eigenvalues --   -7.81566  -5.98083  -5.98034  -5.97820  -5.77907
  Beta  occ. eigenvalues --   -5.77544  -5.76975  -1.01635  -0.96629  -0.95824
  Beta  occ. eigenvalues --   -0.90905  -0.87167  -0.84103  -0.75080  -0.72355
  Beta  occ. eigenvalues --   -0.69600  -0.64223  -0.63149  -0.61120  -0.57188
  Beta  occ. eigenvalues --   -0.54947  -0.51766  -0.50178  -0.49428  -0.46412
  Beta  occ. eigenvalues --   -0.44229  -0.42321  -0.40383  -0.38783  -0.37623
  Beta  occ. eigenvalues --   -0.35314  -0.35008  -0.34327  -0.33781  -0.33568
  Beta  occ. eigenvalues --   -0.31886  -0.31581  -0.31237  -0.30602  -0.30212
  Beta  occ. eigenvalues --   -0.29080  -0.27126  -0.26342  -0.24904  -0.24386
  Beta  occ. eigenvalues --   -0.23747  -0.22908  -0.22227  -0.21819  -0.20705
  Beta  occ. eigenvalues --   -0.19717  -0.19444  -0.18104  -0.16339  -0.14327
  Beta  occ. eigenvalues --   -0.13851  -0.12044  -0.09268
  Beta virt. eigenvalues --    0.07012   0.08433   0.08979   0.09053   0.09304
  Beta virt. eigenvalues --    0.09491   0.09989   0.11014   0.11909   0.12052
  Beta virt. eigenvalues --    0.12514   0.13052   0.13346   0.14087   0.14341

 Mulliken charges and spin densities:
               1          2
     1  C   -0.768836  -0.095971
     2  C    1.266328   0.002466
     3  C   -1.121077   0.104850
     4  N    0.053029  -0.011717
     5  N   -0.146170   0.000801
     6  C   -0.377448  -0.005434
     7  N   -0.303823  -0.027848
     8  S    0.406145   0.034351
     9  O   -0.124971  -0.008002
    10  O   -0.217675   0.017078
    11  C   -0.909575  -0.028496
    12  C    0.164810   0.284512
    13  S   -0.319577   0.220917
    14  C   -0.382689  -0.033542
    15  C   -0.140136   0.148024
    16  C    0.720697   0.211811
    17  O   -0.375222   0.086850
    18  O   -0.208780   0.014005
    19  C   -0.367412  -0.012815
    20  H    0.129226   0.016708
    21  H    0.188999   0.009788
    22  H    0.144485   0.005526
    23  H    0.304895   0.000218
    24  H    0.150821   0.000553
    25  H    0.314634   0.015846
    26  H    0.205673  -0.004287
    27  H    0.270287  -0.000507
    28  H    0.122934   0.000098
    29  H    0.139433   0.030264
    30  H    0.180996   0.023952
 Sum of Mulliken charges =  -1.00000   1.00000

 Dipole moment (field-independent basis, Debye):
    X=              4.4728    Y=              1.3386    Z=             -3.3689  Tot=              5.7573
 Quadrupole moment (field-independent basis, Debye-Ang):
   XX=           -174.9639   YY=           -151.9367   ZZ=           -135.3122
   XY=              0.5001   XZ=             -6.9624   YZ=              2.4528

 Summary of Natural Population Analysis:

                                       Natural Population
                Natural  -----------------------------------------------
    Atom  No    Charge         Core      Valence    Rydberg      Total
 -----------------------------------------------------------------------
      C    1   -0.29483      0.99964     2.29040    0.00479     3.29483
      C    2   -0.06833      0.99946     2.06038    0.00849     3.06833
      C    3    0.14596      0.99945     1.83496    0.01962     2.85404
      N    4   -0.16787      0.99964     2.65702    0.01121     3.66787
      N    5   -0.15088      0.99974     2.63830    0.01284     3.65088
      C    6   -0.00938      0.99959     1.99599    0.01380     3.00938
      N    7   -0.43469      0.99969     2.91980    0.01521     3.93469
      S    8    1.11354      4.99914     1.78841    0.09891     6.88646
      O    9   -0.46512      0.99991     3.45978    0.00543     4.46512
      O   10   -0.46517      0.99990     3.45856    0.00671     4.46517
      C   11   -0.22606      0.99925     2.20844    0.01837     3.22606
      C   12    0.03703      0.99946     1.94958    0.01393     2.96297
      S   13    0.25607      4.99939     2.72370    0.02085     7.74393
      C   14   -0.13899      0.99943     2.12328    0.01628     3.13899
      C   15   -0.07076      0.99945     2.05847    0.01284     3.07076
      C   16    0.41096      0.99960     1.56590    0.02355     2.58904
      O   17   -0.30636      0.99987     3.29984    0.00665     4.30636
      O   18   -0.34638      0.99988     3.34075    0.00575     4.34638
      C   19   -0.30379      0.99963     2.29904    0.00513     3.30379
      H   20    0.10288      0.00000     0.39582    0.00130     0.39712
      H   21    0.11781      0.00000     0.38106    0.00113     0.38219
      H   22    0.09777      0.00000     0.40134    0.00089     0.40223
      H   23    0.20426      0.00000     0.29395    0.00178     0.29574
      H   24    0.09562      0.00000     0.40345    0.00093     0.40438
      H   25    0.19964      0.00000     0.29823    0.00213     0.30036
      H   26    0.11605      0.00000     0.38270    0.00125     0.38395
      H   27    0.23135      0.00000     0.26583    0.00282     0.26865
      H   28    0.09893      0.00000     0.40030    0.00077     0.40107
      H   29    0.10508      0.00000     0.39380    0.00111     0.39492
      H   30    0.11567      0.00000     0.38335    0.00099     0.38433
 =======================================================================
   * Total *   -0.00000     26.99212    50.67244    0.33544    78.00000

 Normal termination of Gaussian 16 at Sat Dec 12 11:27:33 2020.
