 Gaussian 16, Revision A.03,

 -----------------------------------------------------------
 # opt freq B3LYP/6-31G(d) empiricaldispersion=gd3bj scf=xqc
 -----------------------------------------------------------

 ------------------------------
 CID_13414663_JID_8549_neutraal
 ------------------------------
 Symbolic Z-matrix:
 Charge =  0 Multiplicity = 1

 SCF Done:  E(RB3LYP) =  -1221.35447781     A.U. after   15 cycles
 SCF Done:  E(RB3LYP) =  -1221.35439061     A.U. after   13 cycles
 SCF Done:  E(RB3LYP) =  -1221.36257072     A.U. after   12 cycles
 SCF Done:  E(RB3LYP) =  -1221.36348037     A.U. after   15 cycles
 SCF Done:  E(RB3LYP) =  -1221.36402766     A.U. after   13 cycles
 SCF Done:  E(RB3LYP) =  -1221.36567688     A.U. after   12 cycles
 SCF Done:  E(RB3LYP) =  -1221.36589437     A.U. after   13 cycles
 SCF Done:  E(RB3LYP) =  -1221.36661079     A.U. after   12 cycles
 SCF Done:  E(RB3LYP) =  -1221.36669198     A.U. after   10 cycles
 SCF Done:  E(RB3LYP) =  -1221.36666762     A.U. after   12 cycles
 SCF Done:  E(RB3LYP) =  -1221.36673501     A.U. after    8 cycles
 SCF Done:  E(RB3LYP) =  -1221.36673520     A.U. after    8 cycles
 SCF Done:  E(RB3LYP) =  -1221.36673539     A.U. after    8 cycles
 SCF Done:  E(RB3LYP) =  -1221.36673547     A.U. after    7 cycles
 Optimization completed.
    -- Stationary point found.
 Normal termination of Gaussian 16 at Fri Dec 11 21:17:34 2020.

 --------------------------------------------------------------------
 #N Geom=AllCheck Guess=TCheck SCRF=Check GenChk RB3LYP/6-31G(d) Freq
 --------------------------------------------------------------------

 Structure from the checkpoint file:  "JID_8549.chk"
 ------------------------------
 CID_13414663_JID_8549_neutraal
 ------------------------------
 Charge =  0 Multiplicity = 1

 SCF Done:  E(RB3LYP) =  -1221.36673547     A.U. after    1 cycles

  Exact polarizability: 182.342  12.180 129.704  -5.318   3.840 140.914
 Approx polarizability: 266.886  26.819 195.646  -2.563   4.969 244.190

                      1                      2                      3
                      A                      A                      A
 Frequencies --     13.7865                42.2491                56.7832
 Red. masses --      4.0410                 3.7224                 4.3525
 Frc consts  --      0.0005                 0.0039                 0.0083
 IR Inten    --      0.3627                 0.7393                 1.2933

                      4                      5                      6
                      A                      A                      A
 Frequencies --     71.9407                81.8413                83.2305
 Red. masses --      6.0716                 4.9309                 6.4247
 Frc consts  --      0.0185                 0.0195                 0.0262
 IR Inten    --      0.7960                 0.6841                 1.0524

                      7                      8                      9
                      A                      A                      A
 Frequencies --    110.6802               137.9657               151.8152
 Red. masses --      3.3227                 2.2965                 4.7847
 Frc consts  --      0.0240                 0.0258                 0.0650
 IR Inten    --      0.9679                 0.8132                 1.8027

                     10                     11                     12
                      A                      A                      A
 Frequencies --    170.1107               202.0236               210.8416
 Red. masses --      3.5074                 1.1949                 1.4327
 Frc consts  --      0.0598                 0.0287                 0.0375
 IR Inten    --      2.3894                 0.9260                 1.1014

                     13                     14                     15
                      A                      A                      A
 Frequencies --    221.4481               238.8715               273.7370
 Red. masses --      4.3421                 4.8360                 3.6246
 Frc consts  --      0.1255                 0.1626                 0.1600
 IR Inten    --      2.6855                 1.1733                 3.4647

                     16                     17                     18
                      A                      A                      A
 Frequencies --    290.6847               324.8612               328.3474
 Red. masses --      4.1707                 2.7698                 3.1505
 Frc consts  --      0.2076                 0.1722                 0.2001
 IR Inten    --      5.8761                 8.6130                 2.8608

                     19                     20                     21
                      A                      A                      A
 Frequencies --    358.1169               384.8454               414.2596
 Red. masses --      1.9234                 5.2056                 2.9424
 Frc consts  --      0.1453                 0.4543                 0.2975
 IR Inten    --      0.3476                 6.0393                 0.1103

                     22                     23                     24
                      A                      A                      A
 Frequencies --    430.7477               454.4244               466.0238
 Red. masses --      4.5133                 4.8025                 4.6418
 Frc consts  --      0.4934                 0.5843                 0.5940
 IR Inten    --      2.6020                 9.2833                12.3827

                     25                     26                     27
                      A                      A                      A
 Frequencies --    516.9692               539.5094               587.5312
 Red. masses --      5.3602                 5.6442                 4.2641
 Frc consts  --      0.8440                 0.9680                 0.8672
 IR Inten    --     15.3723                54.6780                 5.6373

                     28                     29                     30
                      A                      A                      A
 Frequencies --    611.3250               637.5147               667.3249
 Red. masses --      5.1697                 6.2463                 4.6549
 Frc consts  --      1.1383                 1.4957                 1.2213
 IR Inten    --     14.2988                 0.0626                27.7237

                     31                     32                     33
                      A                      A                      A
 Frequencies --    696.0242               707.5105               743.0743
 Red. masses --      3.6013                 1.7921                 3.2864
 Frc consts  --      1.0279                 0.5285                 1.0692
 IR Inten    --      8.5913                34.7126                35.5804

                     34                     35                     36
                      A                      A                      A
 Frequencies --    795.9635               806.1568               844.6014
 Red. masses --      2.1709                 1.4648                 4.0777
 Frc consts  --      0.8104                 0.5609                 1.7138
 IR Inten    --     32.7555                53.5975                 0.1266

                     37                     38                     39
                      A                      A                      A
 Frequencies --    852.9026               869.6310               907.2703
 Red. masses --      1.2673                 2.6843                 1.8613
 Frc consts  --      0.5432                 1.1961                 0.9027
 IR Inten    --      0.3080                14.9197                15.6416

                     40                     41                     42
                      A                      A                      A
 Frequencies --    925.3286               937.5419               963.3454
 Red. masses --      1.4417                 2.5408                 1.3585
 Frc consts  --      0.7273                 1.3158                 0.7428
 IR Inten    --      1.6033                13.9546                 0.0273

                     43                     44                     45
                      A                      A                      A
 Frequencies --    992.9599               994.8785              1002.0444
 Red. masses --      2.7196                 1.2607                 2.5761
 Frc consts  --      1.5799                 0.7352                 1.5240
 IR Inten    --     37.2362                 0.0371                28.0656

                     46                     47                     48
                      A                      A                      A
 Frequencies --   1024.0190              1060.7240              1063.7051
 Red. masses --      6.2110                 2.3017                 3.9993
 Frc consts  --      3.8373                 1.5258                 2.6661
 IR Inten    --      0.6412                 1.5530                49.3317

                     49                     50                     51
                      A                      A                      A
 Frequencies --   1107.6753              1119.8722              1137.1800
 Red. masses --      2.3757                 2.8644                 1.9536
 Frc consts  --      1.7173                 2.1165                 1.4885
 IR Inten    --     45.5099                94.7019                37.3760

                     52                     53                     54
                      A                      A                      A
 Frequencies --   1142.8453              1165.5725              1187.8531
 Red. masses --      1.8751                 1.7017                 1.2256
 Frc consts  --      1.4429                 1.3621                 1.0188
 IR Inten    --     18.8906                30.1280                17.4997

                     55                     56                     57
                      A                      A                      A
 Frequencies --   1195.2356              1212.8806              1217.6919
 Red. masses --      1.0952                 1.7196                 1.1409
 Frc consts  --      0.9218                 1.4904                 0.9968
 IR Inten    --      0.2301                 6.2722                 0.2246

                     58                     59                     60
                      A                      A                      A
 Frequencies --   1237.0365              1242.6466              1289.9778
 Red. masses --      2.1841                 2.4400                 1.7794
 Frc consts  --      1.9692                 2.2199                 1.7446
 IR Inten    --      5.1528                 7.1750                86.5490

                     61                     62                     63
                      A                      A                      A
 Frequencies --   1297.0464              1324.0666              1334.9143
 Red. masses --      1.9560                 1.8636                 3.3571
 Frc consts  --      1.9387                 1.9250                 3.5247
 IR Inten    --    117.4689               194.9999                98.0048

                     64                     65                     66
                      A                      A                      A
 Frequencies --   1346.9695              1365.7817              1371.5044
 Red. masses --      1.1821                 5.2500                 1.3155
 Frc consts  --      1.2636                 5.7700                 1.4579
 IR Inten    --     26.5708                 0.5148                 1.2548

                     67                     68                     69
                      A                      A                      A
 Frequencies --   1399.9758              1424.0144              1448.6955
 Red. masses --      1.4566                 1.3434                 1.3389
 Frc consts  --      1.6820                 1.6050                 1.6556
 IR Inten    --     21.1263                16.1091                10.0095

                     70                     71                     72
                      A                      A                      A
 Frequencies --   1478.8433              1487.2881              1505.2795
 Red. masses --      1.1378                 1.1154                 2.0773
 Frc consts  --      1.4661                 1.4537                 2.7732
 IR Inten    --      4.2606                 3.7938                10.2809

                     73                     74                     75
                      A                      A                      A
 Frequencies --   1508.0259              1515.1565              1516.2060
 Red. masses --      1.1347                 1.0446                 1.0434
 Frc consts  --      1.5204                 1.4130                 1.4133
 IR Inten    --      5.9126                 8.3504                 6.5175

                     76                     77                     78
                      A                      A                      A
 Frequencies --   1518.8741              1532.9941              1535.9354
 Red. masses --      1.0891                 1.0493                 1.0637
 Frc consts  --      1.4803                 1.4529                 1.4784
 IR Inten    --      6.6877                10.2456                 8.5770

                     79                     80                     81
                      A                      A                      A
 Frequencies --   1550.0247              1649.3357              1668.9817
 Red. masses --      2.2573                 5.5987                 5.5895
 Frc consts  --      3.1953                 8.9734                 9.1733
 IR Inten    --      8.7409                 0.4045                 0.6085

                     82                     83                     84
                      A                      A                      A
 Frequencies --   1826.5881              3047.8917              3062.3455
 Red. masses --     11.0990                 1.0387                 1.0585
 Frc consts  --     21.8180                 5.6851                 5.8487
 IR Inten    --    230.7480                37.6189                21.7632

                     85                     86                     87
                      A                      A                      A
 Frequencies --   3067.0248              3093.0993              3094.9977
 Red. masses --      1.0427                 1.0594                 1.0610
 Frc consts  --      5.7789                 5.9719                 5.9880
 IR Inten    --     18.8311                 7.3781                26.6982

                     88                     89                     90
                      A                      A                      A
 Frequencies --   3103.1401              3122.1764              3143.8298
 Red. masses --      1.1047                 1.0995                 1.0954
 Frc consts  --      6.2676                 6.3150                 6.3790
 IR Inten    --      5.4845                15.6679                15.5164

                     91                     92                     93
                      A                      A                      A
 Frequencies --   3146.2085              3152.9678              3154.6132
 Red. masses --      1.1061                 1.1028                 1.1022
 Frc consts  --      6.4510                 6.4592                 6.4623
 IR Inten    --      3.5099                17.0618                11.1069

                     94                     95                     96
                      A                      A                      A
 Frequencies --   3179.0852              3185.1078              3191.7912
 Red. masses --      1.1052                 1.0851                 1.0880
 Frc consts  --      6.5808                 6.4858                 6.5304
 IR Inten    --     13.6850                 0.8314                 0.7951

                     97                     98                     99
                      A                      A                      A
 Frequencies --   3200.1397              3208.7996              3215.4880
 Red. masses --      1.0914                 1.0944                 1.0978
 Frc consts  --      6.5850                 6.6391                 6.6878
 IR Inten    --     18.5417                29.1649                 8.3963

 - Thermochemistry -
 -------------------
 Temperature   298.150 Kelvin.  Pressure   1.00000 Atm.
 Atom     1 has atomic number  6 and mass  12.00000

 Molecular mass:   271.08783 amu.
 Principal axes and moments of inertia in atomic units:
                           1         2         3
     Eigenvalues --  3581.945504747.822036388.93466
           X            0.99871   0.04140  -0.02957
           Y           -0.04197   0.99894  -0.01875
           Z            0.02876   0.01997   0.99939
 This molecule is an asymmetric top.
 Rotational symmetry number  1.
 Warning -- assumption of classical behavior for rotation
           may cause significant error
 Rotational temperatures (Kelvin)      0.02418     0.01824     0.01356
 Rotational constants (GHZ):           0.50384     0.38012     0.28248
 Zero-point vibrational energy     750651.7 (Joules/Mol)
                                  179.41007 (Kcal/Mol)
 Warning -- explicit consideration of  28 degrees of freedom as
           vibrations may cause significant error
 Vibrational temperatures:     19.84    60.79    81.70   103.51   117.75
          (Kelvin)            119.75   159.24   198.50   218.43   244.75
                              290.67   303.35   318.61   343.68   393.85
                              418.23   467.40   472.42   515.25   553.71
                              596.03   619.75   653.82   670.50   743.80
                              776.23   845.33   879.56   917.24   960.13
                             1001.42  1017.95  1069.12  1145.21  1159.88
                             1215.19  1227.14  1251.21  1305.36  1331.34
                             1348.91  1386.04  1428.65  1431.41  1441.72
                             1473.34  1526.15  1530.43  1593.70  1611.25
                             1636.15  1644.30  1677.00  1709.06  1719.68
                             1745.06  1751.99  1779.82  1787.89  1855.99
                             1866.16  1905.04  1920.64  1937.99  1965.06
                             1973.29  2014.25  2048.84  2084.35  2127.73
                             2139.88  2165.76  2169.71  2179.97  2181.48
                             2185.32  2205.64  2209.87  2230.14  2373.03
                             2401.29  2628.05  4385.24  4406.03  4412.76
                             4450.28  4453.01  4464.73  4492.12  4523.27
                             4526.69  4536.42  4538.78  4573.99  4582.66
                             4592.28  4604.29  4616.75  4626.37

 Zero-point correction=                           0.285908 (Hartree/Particle)
 Thermal correction to Energy=                    0.304242
 Thermal correction to Enthalpy=                  0.305186
 Thermal correction to Gibbs Free Energy=         0.238110
 Sum of electronic and zero-point Energies=          -1221.080827
 Sum of electronic and thermal Energies=             -1221.062493
 Sum of electronic and thermal Enthalpies=           -1221.061549
 Sum of electronic and thermal Free Energies=        -1221.128625

                     E (Thermal)             CV                S
                      KCal/Mol        Cal/Mol-Kelvin    Cal/Mol-Kelvin
 Total                  190.915             68.024            141.174
 Electronic               0.000              0.000              0.000
 Translational            0.889              2.981             42.691
 Rotational               0.889              2.981             33.052
 Vibrational            189.137             62.062             65.431
 Vibration     1          0.593              1.986              7.373
 Vibration     2          0.595              1.980              5.151
 Vibration     3          0.596              1.975              4.566
 Vibration     4          0.598              1.967              4.100
 Vibration     5          0.600              1.962              3.846
 Vibration     6          0.600              1.961              3.813
 Vibration     7          0.607              1.941              3.257
 Vibration     8          0.614              1.915              2.832
 Vibration     9          0.619              1.901              2.649
 Vibration    10          0.625              1.879              2.434
 Vibration    11          0.639              1.837              2.115
 Vibration    12          0.643              1.824              2.036
 Vibration    13          0.648              1.808              1.947
 Vibration    14          0.657              1.781              1.811
 Vibration    15          0.676              1.722              1.572
 Vibration    16          0.687              1.691              1.470
 Vibration    17          0.709              1.626              1.286
 Vibration    18          0.712              1.619              1.268
 Vibration    19          0.733              1.559              1.130
 Vibration    20          0.754              1.503              1.020
 Vibration    21          0.778              1.439              0.912
 Vibration    22          0.792              1.403              0.856
 Vibration    23          0.813              1.351              0.783
 Vibration    24          0.823              1.325              0.749
 Vibration    25          0.872              1.212              0.617
 Vibration    26          0.895              1.163              0.566
 Vibration    27          0.945              1.058              0.472
 Vibration    28          0.970              1.008              0.431

 Optimization completed.
    -- Stationary point found.
 Normal termination of Gaussian 16 at Fri Dec 11 21:37:41 2020.

 ----------------------------------------------------------------------
 # B3LYP/6-311++G(d,p) empiricaldispersion=gd3bj scf=xqc pop=npa geom=c
 heck
 ----------------------------------------------------------------------

 --------------------------------------
 CID_13414663_JID_8549_Energie_neutraal
 --------------------------------------
 Structure from the checkpoint file:  "JID_8549.chk"
 Charge =  0 Multiplicity = 1

 SCF Done:  E(RB3LYP) =  -1221.62811257     A.U. after   16 cycles
 Normal termination of Gaussian 16 at Fri Dec 11 21:46:35 2020.

 ----------------------------------------------------------------------
 # B3LYP/6-311++G(d,p) empiricaldispersion=gd3bj scf=xqc pop=npa geom=c
 heck
 ----------------------------------------------------------------------

 ------------------------------------
 CID_13414663_JID_8549_Energie_kation
 ------------------------------------
 Structure from the checkpoint file:  "JID_8549.chk"
 Charge =  1 Multiplicity = 2

 SCF Done:  E(UB3LYP) =  -1221.30406723     A.U. after   33 cycles
 SCF Done:  E(UB3LYP) =  -1221.30408346     a.u. after    3 cycles
 Normal termination of Gaussian 16 at Fri Dec 11 23:07:30 2020.
 Gaussian 16:  ES64L-G16RevA.03 25-Dec-2016

 ----------------------------------------------------------------------
 # B3LYP/6-311++G(d,p) empiricaldispersion=gd3bj scf=xqc pop=npa geom=c
 heck
 ----------------------------------------------------------------------

 -----------------------------------
 CID_13414663_JID_8549_Energie_anion
 -----------------------------------
 Structure from the checkpoint file:  "JID_8549.chk"
 Charge = -1 Multiplicity = 2

                         Standard orientation:
 ---------------------------------------------------------------------
 Center     Atomic      Atomic             Coordinates (Angstroms)
 Number     Number       Type             X           Y           Z
 ---------------------------------------------------------------------
      1          6           0        1.728736    2.276028   -1.285096
      2          6           0        1.465322    2.395467    0.206510
      3          8           0        0.299454    1.630574    0.602223
      4          6           0       -0.884753    2.162036    0.283879
      5          8           0       -1.056898    3.262425   -0.193266
      6          6           0       -2.060287    1.282120    0.686597
      7          7           0       -1.788433   -0.156041    0.802654
      8          6           0       -2.733133   -0.859434    1.681276
      9         16           0       -1.575429   -0.928076   -0.706103
     10          8           0       -2.796432   -1.654973   -1.082921
     11          8           0       -0.995647    0.068334   -1.610281
     12          6           0       -0.326270   -2.201506   -0.305174
     13          6           0        1.035374   -1.667484    0.015919
     14          6           0        1.366923   -1.296505    1.322991
     15          6           0        2.640634   -0.815951    1.617753
     16          6           0        3.594645   -0.693913    0.605154
     17          6           0        3.267087   -1.051724   -0.703485
     18          6           0        1.992377   -1.535023   -0.995532
     19          1           0        1.801189    1.225515   -1.573500
     20          1           0        2.673073    2.776123   -1.530210
     21          1           0        0.925623    2.745213   -1.857268
     22          1           0        2.272880    1.954067    0.791878
     23          1           0        1.316115    3.436574    0.505331
     24          1           0       -2.366738    1.613370    1.685164
     25          1           0       -2.885541    1.517069    0.004324
     26          1           0       -3.772718   -0.784138    1.338712
     27          1           0       -2.469637   -1.917602    1.741579
     28          1           0       -2.642246   -0.429519    2.682631
     29          1           0       -0.756906   -2.784731    0.512958
     30          1           0       -0.328077   -2.828834   -1.201275
     31          1           0        0.619384   -1.374160    2.106227
     32          1           0        2.888847   -0.535179    2.637275
     33          1           0        4.589528   -0.323482    0.835634
     34          1           0        4.003023   -0.955768   -1.496364
     35          1           0        1.734354   -1.808553   -2.014828
 ---------------------------------------------------------------------

 SCF Done:  E(UB3LYP) =  -1221.62234515     A.U. after   33 cycles
 SCF Done:  E(UB3LYP) =  -1221.62234515     a.u. after    1 cycles

 The electronic state is 2-A.
 Alpha  occ. eigenvalues --  -88.95949 -19.06986 -19.02376 -19.02056 -19.01649
 Alpha  occ. eigenvalues --  -14.25624 -10.21017 -10.13167 -10.12935 -10.11542
 Alpha  occ. eigenvalues --  -10.10984 -10.08107 -10.07628 -10.07417 -10.07239
 Alpha  occ. eigenvalues --  -10.06995 -10.06907 -10.06440  -8.02274  -5.98547
 Alpha  occ. eigenvalues --   -5.98515  -5.98318  -1.02316  -1.01293  -0.92767
 Alpha  occ. eigenvalues --   -0.91329  -0.84855  -0.76289  -0.70109  -0.68506
 Alpha  occ. eigenvalues --   -0.64877  -0.64657  -0.62901  -0.59551  -0.56043
 Alpha  occ. eigenvalues --   -0.51233  -0.50927  -0.48675  -0.45906  -0.44481
 Alpha  occ. eigenvalues --   -0.42055  -0.41629  -0.40097  -0.39005  -0.38536
 Alpha  occ. eigenvalues --   -0.37270  -0.37192  -0.36041  -0.35431  -0.34448
 Alpha  occ. eigenvalues --   -0.33923  -0.32770  -0.32355  -0.32281  -0.31370
 Alpha  occ. eigenvalues --   -0.30799  -0.29859  -0.28468  -0.27385  -0.26840
 Alpha  occ. eigenvalues --   -0.25612  -0.25272  -0.24580  -0.24439  -0.22977
 Alpha  occ. eigenvalues --   -0.22081  -0.21423  -0.20608  -0.19146  -0.16788
 Alpha  occ. eigenvalues --   -0.15537  -0.15174   0.04062
 Alpha virt. eigenvalues --    0.06178   0.06678   0.07485   0.07938   0.08282
 Alpha virt. eigenvalues --    0.08479   0.08814   0.09251   0.09507   0.10523
 Alpha virt. eigenvalues --    0.10711   0.11006   0.11999   0.12294   0.12548

  Beta  occ. eigenvalues --  -88.95932 -19.06985 -19.02377 -19.02042 -19.01648
  Beta  occ. eigenvalues --  -14.25618 -10.21016 -10.13147 -10.12926 -10.11526
  Beta  occ. eigenvalues --  -10.10931 -10.07985 -10.07623 -10.07393 -10.07247
  Beta  occ. eigenvalues --  -10.06873 -10.06842 -10.06438  -8.02255  -5.98531
  Beta  occ. eigenvalues --   -5.98501  -5.98287  -1.02293  -1.01287  -0.92764
  Beta  occ. eigenvalues --   -0.91315  -0.84829  -0.76125  -0.69968  -0.68473
  Beta  occ. eigenvalues --   -0.64812  -0.64561  -0.62759  -0.59457  -0.56023
  Beta  occ. eigenvalues --   -0.51073  -0.50870  -0.48542  -0.45880  -0.44441
  Beta  occ. eigenvalues --   -0.42004  -0.41560  -0.40053  -0.38951  -0.38492
  Beta  occ. eigenvalues --   -0.37194  -0.37129  -0.35951  -0.35394  -0.34406
  Beta  occ. eigenvalues --   -0.33891  -0.32728  -0.32282  -0.32222  -0.31309
  Beta  occ. eigenvalues --   -0.30749  -0.29835  -0.28443  -0.27343  -0.26598
  Beta  occ. eigenvalues --   -0.25510  -0.25233  -0.24553  -0.24372  -0.22958
  Beta  occ. eigenvalues --   -0.22035  -0.21338  -0.20599  -0.19135  -0.16756
  Beta  occ. eigenvalues --   -0.15295  -0.14572
  Beta virt. eigenvalues --    0.06427   0.07089   0.07500   0.07829   0.08272
  Beta virt. eigenvalues --    0.08442   0.08810   0.09007   0.09682   0.09821
  Beta virt. eigenvalues --    0.10690   0.10861   0.11404   0.11993   0.12500

 Mulliken charges and spin densities:
               1          2
     1  C   -0.480710  -0.062053
     2  C   -0.011802  -0.102864
     3  O    0.083188   0.016408
     4  C   -0.528464   0.391865
     5  O   -0.248780   0.006669
     6  C    0.311453  -0.655035
     7  N   -0.296276   0.276493
     8  C    1.062468  -1.376367
     9  S    0.496159  -0.387166
    10  O   -0.046923   0.030497
    11  O   -0.195839   0.003765
    12  C    0.105161  -1.533437
    13  C    0.642301   0.546800
    14  C   -0.848154   0.533498
    15  C   -0.180850  -0.190925
    16  C    0.561188  -0.751600
    17  C   -0.202415  -0.025081
    18  C   -0.246582   0.131690
    19  H    0.244605  -0.045709
    20  H    0.046218   0.075186
    21  H    0.181407   0.003689
    22  H    0.018985   0.149142
    23  H    0.094893   0.073959
    24  H   -0.105214   0.320318
    25  H    0.249499  -0.010671
    26  H    0.004842   0.184420
    27  H   -0.208229   0.393860
    28  H   -0.587240   0.768805
    29  H   -0.092528   0.361590
    30  H    0.103212   0.113607
    31  H   -0.449028   0.633380
    32  H   -0.392653   0.572262
    33  H   -0.100882   0.245662
    34  H   -0.037198   0.192158
    35  H    0.054185   0.115185
 Sum of Mulliken charges =  -1.00000   1.00000

 Dipole moment (field-independent basis, Debye):
    X=              1.7351    Y=              1.5386    Z=             -4.0754  Tot=              4.6890
 Quadrupole moment (field-independent basis, Debye-Ang):
   XX=           -167.5086   YY=           -157.7028   ZZ=           -161.3465
   XY=             -0.0048   XZ=             -1.7495   YZ=              7.5469

 Summary of Natural Population Analysis:

                                       Natural Population
                Natural  -----------------------------------------------
    Atom  No    Charge         Core      Valence    Rydberg      Total
 -----------------------------------------------------------------------
      C    1   -0.30164      0.99965     2.29688    0.00511     3.30164
      C    2   -0.01764      0.99957     2.00719    0.01087     3.01764
      O    3   -0.27195      0.99985     3.26113    0.01097     4.27195
      C    4    0.41193      0.99969     1.56216    0.02622     2.58807
      O    5   -0.31277      0.99987     3.30763    0.00526     4.31277
      C    6   -0.13208      0.99955     2.11992    0.01260     3.13208
      N    7   -0.36584      0.99975     2.85068    0.01541     3.86584
      C    8   -0.17887      0.99963     2.16996    0.00928     3.17887
      S    9    1.09697      4.99926     1.80622    0.09755     6.90303
      O   10   -0.46566      0.99991     3.46026    0.00549     4.46566
      O   11   -0.45942      0.99990     3.45378    0.00574     4.45942
      C   12   -0.28419      0.99953     2.27056    0.01410     3.28419
      C   13   -0.02815      0.99951     2.01612    0.01252     3.02815
      C   14   -0.07328      0.99951     2.06182    0.01195     3.07328
      C   15   -0.10637      0.99956     2.09608    0.01073     3.10637
      C   16   -0.08524      0.99956     2.07537    0.01031     3.08524
      C   17   -0.11083      0.99958     2.09882    0.01243     3.11083
      C   18   -0.07888      0.99951     2.07294    0.00643     3.07888
      H   19    0.11109      0.00000     0.38767    0.00124     0.38891
      H   20    0.09676      0.00000     0.40257    0.00066     0.40324
      H   21    0.10580      0.00000     0.39336    0.00083     0.39420
      H   22    0.09765      0.00000     0.40088    0.00147     0.40235
      H   23    0.08924      0.00000     0.40972    0.00104     0.41076
      H   24    0.11670      0.00000     0.38210    0.00120     0.38330
      H   25    0.10626      0.00000     0.39275    0.00099     0.39374
      H   26    0.09417      0.00000     0.40467    0.00116     0.40583
      H   27    0.10456      0.00000     0.39365    0.00179     0.39544
      H   28    0.10418      0.00000     0.39321    0.00261     0.39582
      H   29    0.12161      0.00000     0.37678    0.00162     0.37839
      H   30    0.11729      0.00000     0.38167    0.00105     0.38271
      H   31    0.10469      0.00000     0.39278    0.00253     0.39531
      H   32    0.10128      0.00000     0.39757    0.00115     0.39872
      H   33    0.09780      0.00000     0.40127    0.00093     0.40220
      H   34    0.09781      0.00000     0.40128    0.00091     0.40219
      H   35    0.09706      0.00000     0.40176    0.00118     0.40294
 =======================================================================
   * Total *    0.00005     21.99338    49.70124    0.30533    71.99995

 Normal termination of Gaussian 16 at Fri Dec 11 23:34:31 2020.
