 Gaussian 16, Revision A.03,

 -----------------------------------------------------------
 # opt freq B3LYP/6-31G(d) empiricaldispersion=gd3bj scf=xqc
 -----------------------------------------------------------

 ----------------------------
 CID_592724_JID_1187_neutraal
 ----------------------------
 Symbolic Z-matrix:
 Charge =  0 Multiplicity = 1

 SCF Done:  E(RB3LYP) =  -516.723600660     A.U. after   15 cycles
 SCF Done:  E(RB3LYP) =  -516.725340218     A.U. after   12 cycles
 SCF Done:  E(RB3LYP) =  -516.725456463     A.U. after   10 cycles
 SCF Done:  E(RB3LYP) =  -516.725463122     A.U. after    8 cycles
 SCF Done:  E(RB3LYP) =  -516.725463299     A.U. after    8 cycles
 SCF Done:  E(RB3LYP) =  -516.725464226     A.U. after    8 cycles
 Optimization completed.
    -- Stationary point found.
 Normal termination of Gaussian 16 at Sun Dec 13 15:54:05 2020.

 --------------------------------------------------------------------
 #N Geom=AllCheck Guess=TCheck SCRF=Check GenChk RB3LYP/6-31G(d) Freq
 --------------------------------------------------------------------

 Structure from the checkpoint file:  "JID_1187.chk"
 ----------------------------
 CID_592724_JID_1187_neutraal
 ----------------------------
 Charge =  0 Multiplicity = 1

 SCF Done:  E(RB3LYP) =  -516.725464226     A.U. after    1 cycles

  Exact polarizability: 137.334  -3.205 101.108  -0.004   0.004  52.528
 Approx polarizability: 183.624 -11.162 168.545  -0.006   0.007  77.732

 ******    1 imaginary frequencies (negative Signs) ******

                      1                      2                      3
                      A                      A                      A
 Frequencies --    -67.4512                71.3474                94.4631
 Red. masses --      1.0170                 3.8288                 2.4392
 Frc consts  --      0.0027                 0.0115                 0.0128
 IR Inten    --      0.0566                 1.7689                 0.1088

                      4                      5                      6
                      A                      A                      A
 Frequencies --    114.9256               129.5087               130.8751
 Red. masses --      1.0452                 1.4061                 3.7990
 Frc consts  --      0.0081                 0.0139                 0.0383
 IR Inten    --      0.0026                 0.2918                 0.2536

                      7                      8                      9
                      A                      A                      A
 Frequencies --    164.1146               255.5416               269.4990
 Red. masses --      3.1698                 2.6011                 3.7872
 Frc consts  --      0.0503                 0.1001                 0.1621
 IR Inten    --      2.9604                 0.9228                 0.3984

                     10                     11                     12
                      A                      A                      A
 Frequencies --    288.5260               294.5322               353.2606
 Red. masses --      4.1431                 4.1406                 3.8813
 Frc consts  --      0.2032                 0.2116                 0.2854
 IR Inten    --      8.0732                 2.3611                 9.5749

                     13                     14                     15
                      A                      A                      A
 Frequencies --    422.0911               497.9963               529.6236
 Red. masses --      5.7756                 1.3942                 3.8186
 Frc consts  --      0.6063                 0.2037                 0.6311
 IR Inten    --      1.9621                99.7366                 9.2624

                     16                     17                     18
                      A                      A                      A
 Frequencies --    642.8367               650.6961               664.8723
 Red. masses --      2.8357                 4.5665                 3.0537
 Frc consts  --      0.6904                 1.1392                 0.7953
 IR Inten    --      2.0239                 1.3600                 1.9742

                     19                     20                     21
                      A                      A                      A
 Frequencies --    733.7970               749.6102               774.5258
 Red. masses --      4.2716                 4.4301                 1.6156
 Frc consts  --      1.3552                 1.4667                 0.5710
 IR Inten    --      2.0316                 4.4644                24.0968

                     22                     23                     24
                      A                      A                      A
 Frequencies --    810.2314               939.3809               998.8726
 Red. masses --      5.3494                 3.2325                 2.6164
 Frc consts  --      2.0691                 1.6806                 1.5381
 IR Inten    --      5.4132                50.5343                12.8044

                     25                     26                     27
                      A                      A                      A
 Frequencies --   1015.7937              1064.3935              1086.7769
 Red. masses --      1.5562                 1.3931                 1.5203
 Frc consts  --      0.9461                 0.9299                 1.0579
 IR Inten    --      7.8599                 2.0192                 0.0030

                     28                     29                     30
                      A                      A                      A
 Frequencies --   1110.1354              1131.9790              1186.5322
 Red. masses --      2.5630                 1.7226                 1.2700
 Frc consts  --      1.8610                 1.3005                 1.0534
 IR Inten    --     96.5122                71.5220                 0.7750

                     31                     32                     33
                      A                      A                      A
 Frequencies --   1190.7765              1216.6451              1239.8432
 Red. masses --      2.7781                 1.6322                 2.6232
 Frc consts  --      2.3209                 1.4235                 2.3758
 IR Inten    --    137.9626                76.1567                21.2727

                     34                     35                     36
                      A                      A                      A
 Frequencies --   1302.1558              1374.5037              1436.6534
 Red. masses --      2.7976                 4.0978                 2.8013
 Frc consts  --      2.7949                 4.5613                 3.4065
 IR Inten    --    249.4542                93.2186                98.8423

                     37                     38                     39
                      A                      A                      A
 Frequencies --   1446.5525              1452.2715              1492.6265
 Red. masses --      1.4174                 1.2395                 1.3257
 Frc consts  --      1.7475                 1.5403                 1.7402
 IR Inten    --     23.8805                 2.9455                13.5975

                     40                     41                     42
                      A                      A                      A
 Frequencies --   1500.6469              1507.8648              1511.1285
 Red. masses --      2.7511                 1.0431                 1.0484
 Frc consts  --      3.6502                 1.3974                 1.4105
 IR Inten    --     16.2517                 9.1488                 5.5459

                     43                     44                     45
                      A                      A                      A
 Frequencies --   1518.0388              1519.5051              1527.9795
 Red. masses --      1.1772                 1.0436                 1.0571
 Frc consts  --      1.5984                 1.4196                 1.4542
 IR Inten    --      6.0144                 0.3077                19.8856

                     46                     47                     48
                      A                      A                      A
 Frequencies --   1531.9523              1562.3592              1630.1818
 Red. masses --      1.1401                 5.2482                 5.1405
 Frc consts  --      1.5764                 7.5478                 8.0487
 IR Inten    --     29.2010                63.2619                39.1150

                     49                     50                     51
                      A                      A                      A
 Frequencies --   1794.7194              3039.8333              3057.6930
 Red. masses --     11.5206                 1.0373                 1.0357
 Frc consts  --     21.8633                 5.6474                 5.7053
 IR Inten    --    307.1327                41.0003                22.5764

                     52                     53                     54
                      A                      A                      A
 Frequencies --   3072.1270              3088.5930              3112.1241
 Red. masses --      1.0294                 1.1013                 1.1004
 Frc consts  --      5.7243                 6.1899                 6.2795
 IR Inten    --     43.7849                23.9476                11.3053

                     55                     56                     57
                      A                      A                      A
 Frequencies --   3117.4527              3132.7195              3144.8447
 Red. masses --      1.1004                 1.1029                 1.1073
 Frc consts  --      6.3007                 6.3771                 6.4523
 IR Inten    --     22.6997                22.0948                23.6213

                     58                     59                     60
                      A                      A                      A
 Frequencies --   3175.5318              3268.0005              3676.5191
 Red. masses --      1.1070                 1.0967                 1.0805
 Frc consts  --      6.5770                 6.9007                 8.6052
 IR Inten    --     20.8681                 2.7946                87.8438

 - Thermochemistry -
 -------------------
 Temperature   298.150 Kelvin.  Pressure   1.00000 Atm.
 Atom     1 has atomic number  6 and mass  12.00000

 Molecular mass:   153.07898 amu.
 Principal axes and moments of inertia in atomic units:
                           1         2         3
     Eigenvalues --   732.454362590.799823289.63773
           X            0.99988   0.01563   0.00000
           Y           -0.01563   0.99988  -0.00001
           Z           -0.00000   0.00001   1.00000
 This molecule is an asymmetric top.
 Rotational symmetry number  1.
 Warning -- assumption of classical behavior for rotation
           may cause significant error
 Rotational temperatures (Kelvin)      0.11825     0.03343     0.02633
 Rotational constants (GHZ):           2.46396     0.69660     0.54861
    1 imaginary frequencies ignored.
 Zero-point vibrational energy     477421.1 (Joules/Mol)
                                  114.10639 (Kcal/Mol)
 Warning -- explicit consideration of  14 degrees of freedom as
           vibrations may cause significant error
 Vibrational temperatures:    102.65   135.91   165.35   186.33   188.30
          (Kelvin)            236.12   367.67   387.75   415.12   423.77
                              508.26   607.29   716.51   762.01   924.90
                              936.21   956.60  1055.77  1078.52  1114.37
                             1165.74  1351.56  1437.15  1461.50  1531.42
                             1563.63  1597.24  1628.67  1707.16  1713.26
                             1750.48  1783.86  1873.51  1977.60  2067.02
                             2081.27  2089.49  2147.56  2159.10  2169.48
                             2174.18  2184.12  2186.23  2198.42  2204.14
                             2247.89  2345.47  2582.20  4373.64  4399.34
                             4420.11  4443.80  4477.65  4485.32  4507.28
                             4524.73  4568.88  4701.92  5289.69

 Zero-point correction=                           0.181840 (Hartree/Particle)
 Thermal correction to Energy=                    0.192889
 Thermal correction to Enthalpy=                  0.193833
 Thermal correction to Gibbs Free Energy=         0.144928
 Sum of electronic and zero-point Energies=           -516.543624
 Sum of electronic and thermal Energies=              -516.532575
 Sum of electronic and thermal Enthalpies=            -516.531631
 Sum of electronic and thermal Free Energies=         -516.580536

                     E (Thermal)             CV                S
                      KCal/Mol        Cal/Mol-Kelvin    Cal/Mol-Kelvin
 Total                  121.040             39.797            102.929
 Electronic               0.000              0.000              0.000
 Translational            0.889              2.981             40.987
 Rotational               0.889              2.981             30.213
 Vibrational            119.262             33.835             31.728
 Vibration     1          0.598              1.968              4.116
 Vibration     2          0.603              1.953              3.565
 Vibration     3          0.608              1.937              3.184
 Vibration     4          0.612              1.924              2.953
 Vibration     5          0.612              1.922              2.933
 Vibration     6          0.623              1.887              2.502
 Vibration     7          0.666              1.753              1.692
 Vibration     8          0.674              1.729              1.599
 Vibration     9          0.685              1.695              1.483
 Vibration    10          0.689              1.684              1.448
 Vibration    11          0.729              1.569              1.152
 Vibration    12          0.784              1.422              0.885
 Vibration    13          0.853              1.254              0.663
 Vibration    14          0.885              1.184              0.588

                           ! Non-Optimized Parameters !
 Normal termination of Gaussian 16 at Sun Dec 13 15:57:57 2020.

 ----------------------------------------------------------------------
 # B3LYP/6-311++G(d,p) empiricaldispersion=gd3bj scf=xqc pop=npa geom=c
 heck
 ----------------------------------------------------------------------

 ------------------------------------
 CID_592724_JID_1187_Energie_neutraal
 ------------------------------------
 Structure from the checkpoint file:  "JID_1187.chk"
 Charge =  0 Multiplicity = 1

 SCF Done:  E(RB3LYP) =  -516.874776559     A.U. after   15 cycles
 Normal termination of Gaussian 16 at Sun Dec 13 15:59:20 2020.

 ----------------------------------------------------------------------
 # B3LYP/6-311++G(d,p) empiricaldispersion=gd3bj scf=xqc pop=npa geom=c
 heck
 ----------------------------------------------------------------------

 ----------------------------------
 CID_592724_JID_1187_Energie_kation
 ----------------------------------
 Structure from the checkpoint file:  "JID_1187.chk"
 Charge =  1 Multiplicity = 2

 SCF Done:  E(UB3LYP) =  -516.578401695     A.U. after   22 cycles
 Normal termination of Gaussian 16 at Sun Dec 13 16:02:02 2020.
 Gaussian 16:  ES64L-G16RevA.03 25-Dec-2016

 ----------------------------------------------------------------------
 # B3LYP/6-311++G(d,p) empiricaldispersion=gd3bj scf=xqc pop=npa geom=c
 heck
 ----------------------------------------------------------------------

 ---------------------------------
 CID_592724_JID_1187_Energie_anion
 ---------------------------------
 Structure from the checkpoint file:  "JID_1187.chk"
 Charge = -1 Multiplicity = 2

                         Standard orientation:
 ---------------------------------------------------------------------
 Center     Atomic      Atomic             Coordinates (Angstroms)
 Number     Number       Type             X           Y           Z
 ---------------------------------------------------------------------
      1          6           0        3.631393   -0.061422    0.000161
      2          6           0        2.162339   -0.365114    0.000135
      3          6           0        1.588659   -1.629948   -0.000063
      4          7           0        0.233517   -1.493922   -0.000127
      5          6           0       -0.092471   -0.151007    0.000024
      6          6           0        1.096260    0.578729   -0.000151
      7          6           0        1.216075    2.072292   -0.000250
      8          6           0       -1.462800    0.319985    0.000109
      9          8           0       -1.814026    1.486412    0.000224
     10          8           0       -2.346796   -0.724773   -0.000043
     11          6           0       -3.727621   -0.343189   -0.000019
     12          1           0        3.928561    0.516796   -0.883609
     13          1           0        3.927299    0.522395    0.880632
     14          1           0        4.221672   -0.983555    0.003495
     15          1           0        2.057553   -2.604016   -0.000018
     16          1           0       -0.453419   -2.231711   -0.000093
     17          1           0        0.724302    2.511965   -0.874588
     18          1           0        0.729565    2.511687    0.877223
     19          1           0        2.266083    2.379511   -0.003232
     20          1           0       -3.964693    0.248044    0.888706
     21          1           0       -3.964684    0.248178   -0.888658
     22          1           0       -4.291281   -1.276900   -0.000095
 ---------------------------------------------------------------------

 SCF Done:  E(UB3LYP) =  -516.859760300     A.U. after   33 cycles
 SCF Done:  E(UB3LYP) =  -516.859760300     a.u. after    1 cycles

 The electronic state is 2-A.
 Alpha  occ. eigenvalues --  -19.06462 -19.00511 -14.25883 -10.19928 -10.12158
 Alpha  occ. eigenvalues --  -10.09855 -10.09855 -10.07648 -10.06897 -10.06870
 Alpha  occ. eigenvalues --  -10.06817  -1.00179  -0.91505  -0.88311  -0.70797
 Alpha  occ. eigenvalues --   -0.67262  -0.63339  -0.59730  -0.58933  -0.51082
 Alpha  occ. eigenvalues --   -0.46538  -0.45265  -0.43680  -0.38357  -0.37872
 Alpha  occ. eigenvalues --   -0.37027  -0.34303  -0.34009  -0.32396  -0.30956
 Alpha  occ. eigenvalues --   -0.30711  -0.30119  -0.29642  -0.28068  -0.27478
 Alpha  occ. eigenvalues --   -0.26305  -0.25364  -0.20716  -0.18215  -0.13974
 Alpha  occ. eigenvalues --   -0.12188   0.04518
 Alpha virt. eigenvalues --    0.06297   0.06575   0.07135   0.08614   0.09439
 Alpha virt. eigenvalues --    0.09788   0.10679   0.10950   0.11337   0.12601
 Alpha virt. eigenvalues --    0.12861   0.14152   0.14624   0.15405   0.16385

  Beta  occ. eigenvalues --  -19.06454 -19.00506 -14.25860 -10.19929 -10.12116
  Beta  occ. eigenvalues --  -10.09856 -10.09827 -10.07643 -10.06888 -10.06848
  Beta  occ. eigenvalues --  -10.06807  -1.00166  -0.91493  -0.88280  -0.70773
  Beta  occ. eigenvalues --   -0.67239  -0.63299  -0.59688  -0.58875  -0.51029
  Beta  occ. eigenvalues --   -0.46482  -0.45221  -0.43655  -0.38335  -0.37833
  Beta  occ. eigenvalues --   -0.36991  -0.34253  -0.33989  -0.32353  -0.30929
  Beta  occ. eigenvalues --   -0.30675  -0.30105  -0.29613  -0.28046  -0.27452
  Beta  occ. eigenvalues --   -0.26267  -0.25336  -0.20701  -0.18203  -0.13961
  Beta  occ. eigenvalues --   -0.12176
  Beta virt. eigenvalues --    0.06586   0.06760   0.07361   0.08374   0.09219
  Beta virt. eigenvalues --    0.09942   0.10354   0.10945   0.11508   0.11953
  Beta virt. eigenvalues --    0.12786   0.12892   0.14471   0.14633   0.15873

 Mulliken charges and spin densities:
               1          2
     1  C    2.202762  -2.706546
     2  C   -0.697206   0.882085
     3  C    0.800746  -1.209171
     4  N   -0.184039   0.026559
     5  C   -0.090854   0.238652
     6  C    0.034807   0.743685
     7  C    0.197350  -1.098635
     8  C   -0.745299   0.254297
     9  O   -0.288919   0.001979
    10  O   -0.195923   0.072381
    11  C    1.018144  -1.236887
    12  H   -0.112312   0.261564
    13  H   -0.113504   0.262575
    14  H   -0.264527   0.426835
    15  H   -1.622333   1.814535
    16  H   -0.137569   0.488120
    17  H    0.092287   0.068858
    18  H    0.092288   0.068758
    19  H   -0.010451   0.155796
    20  H   -0.148919   0.321088
    21  H   -0.149580   0.321784
    22  H   -0.676946   0.841685
 Sum of Mulliken charges =  -1.00000   1.00000

 Dipole moment (field-independent basis, Debye):
    X=              0.1622    Y=              5.8894    Z=              0.0053  Tot=              5.8916
 Quadrupole moment (field-independent basis, Debye-Ang):
   XX=           -140.2516   YY=           -117.8046   ZZ=            -88.3573
   XY=              4.5410   XZ=             -0.0032   YZ=             -0.0112

 Summary of Natural Population Analysis:

                                       Natural Population
                Natural  -----------------------------------------------
    Atom  No    Charge         Core      Valence    Rydberg      Total
 -----------------------------------------------------------------------
      C    1   -0.29339      0.99964     2.28792    0.00583     3.29339
      C    2   -0.05930      0.99949     2.04893    0.01088     3.05930
      C    3    0.00799      0.99951     1.97921    0.01328     2.99201
      N    4   -0.24907      0.99966     2.73957    0.00983     3.74907
      C    5    0.00048      0.99942     1.98587    0.01423     2.99952
      C    6   -0.01440      0.99946     2.00598    0.00896     3.01440
      C    7   -0.29416      0.99963     2.28971    0.00482     3.29416
      C    8    0.38533      0.99959     1.59150    0.02358     2.61467
      O    9   -0.31357      0.99988     3.30830    0.00540     4.31357
      O   10   -0.28628      0.99987     3.27638    0.01003     4.28628
      C   11   -0.10211      0.99959     2.09340    0.00912     3.10211
      H   12    0.10141      0.00000     0.39750    0.00109     0.39859
      H   13    0.10141      0.00000     0.39751    0.00109     0.39859
      H   14    0.10690      0.00000     0.39188    0.00121     0.39310
      H   15    0.10513      0.00000     0.38923    0.00564     0.39487
      H   16    0.21316      0.00000     0.28085    0.00599     0.28684
      H   17    0.10854      0.00000     0.39025    0.00121     0.39146
      H   18    0.10846      0.00000     0.39033    0.00121     0.39154
      H   19    0.09925      0.00000     0.39991    0.00084     0.40075
      H   20    0.08965      0.00000     0.40917    0.00118     0.41035
      H   21    0.08966      0.00000     0.40916    0.00118     0.41034
      H   22    0.09491      0.00000     0.40253    0.00256     0.40509
 =======================================================================
   * Total *   -0.00000     10.99575    29.86509    0.13916    41.00000

 Normal termination of Gaussian 16 at Sun Dec 13 16:06:03 2020.
