 Gaussian 16, Revision A.03,

 -----------------------------------------------------------
 # opt freq B3LYP/6-31G(d) empiricaldispersion=gd3bj scf=xqc
 -----------------------------------------------------------

 --------------------------------
 CID_105998520_JID_10315_neutraal
 --------------------------------
 Symbolic Z-matrix:
 Charge =  0 Multiplicity = 1

 SCF Done:  E(RB3LYP) =  -933.528305843     A.U. after   13 cycles
 SCF Done:  E(RB3LYP) =  -933.542864390     A.U. after   12 cycles
 SCF Done:  E(RB3LYP) =  -933.550443949     A.U. after   14 cycles
 SCF Done:  E(RB3LYP) =  -933.553858630     A.U. after   12 cycles
 SCF Done:  E(RB3LYP) =  -933.555460255     A.U. after   12 cycles
 SCF Done:  E(RB3LYP) =  -933.556727092     A.U. after   12 cycles
 SCF Done:  E(RB3LYP) =  -933.557095861     A.U. after   12 cycles
 SCF Done:  E(RB3LYP) =  -933.557535179     A.U. after   11 cycles
 SCF Done:  E(RB3LYP) =  -933.558056682     A.U. after   12 cycles
 SCF Done:  E(RB3LYP) =  -933.558509566     A.U. after   12 cycles
 SCF Done:  E(RB3LYP) =  -933.559944652     A.U. after   10 cycles
 SCF Done:  E(RB3LYP) =  -933.559951268     A.U. after   10 cycles
 SCF Done:  E(RB3LYP) =  -933.559951237     A.U. after    9 cycles
 SCF Done:  E(RB3LYP) =  -933.559951703     A.U. after    8 cycles
 SCF Done:  E(RB3LYP) =  -933.559951703     A.U. after    7 cycles
 SCF Done:  E(RB3LYP) =  -933.559951710     A.U. after    6 cycles
 Optimization completed.
    -- Stationary point found.
 Normal termination of Gaussian 16 at Sun Dec 13 13:01:11 2020.

 --------------------------------------------------------------------
 #N Geom=AllCheck Guess=TCheck SCRF=Check GenChk RB3LYP/6-31G(d) Freq
 --------------------------------------------------------------------

 Structure from the checkpoint file:  "JID_10315.chk"
 --------------------------------
 CID_105998520_JID_10315_neutraal
 --------------------------------
 Charge =  0 Multiplicity = 1

 SCF Done:  E(RB3LYP) =  -933.559951710     A.U. after    1 cycles

  Exact polarizability: 222.307  -6.675 176.526 -19.559  -8.430 135.194
 Approx polarizability: 276.996  -6.646 267.960 -35.622 -20.617 197.603

                      1                      2                      3
                      A                      A                      A
 Frequencies --     18.4779                23.9835                34.4982
 Red. masses --      4.6655                 4.1275                 3.5161
 Frc consts  --      0.0009                 0.0014                 0.0025
 IR Inten    --      0.4621                 0.0892                 0.5824

                      4                      5                      6
                      A                      A                      A
 Frequencies --     59.7387                60.9768                78.7868
 Red. masses --      2.9715                 1.9109                 2.2924
 Frc consts  --      0.0062                 0.0042                 0.0084
 IR Inten    --      3.8460                 1.8928                 0.8619

                      7                      8                      9
                      A                      A                      A
 Frequencies --     88.2519               105.1351               124.2094
 Red. masses --      2.4717                 2.7207                 4.0528
 Frc consts  --      0.0113                 0.0177                 0.0368
 IR Inten    --      0.0023                 5.5697                 0.5988

                     10                     11                     12
                      A                      A                      A
 Frequencies --    149.0036               174.3894               198.5937
 Red. masses --      4.6041                 2.1905                 3.2896
 Frc consts  --      0.0602                 0.0393                 0.0764
 IR Inten    --      2.8971                 0.8671                 0.3662

                     13                     14                     15
                      A                      A                      A
 Frequencies --    201.1521               205.2340               218.3487
 Red. masses --      3.3911                 3.3520                 3.3343
 Frc consts  --      0.0808                 0.0832                 0.0937
 IR Inten    --      0.7656                 6.5694                 4.2617

                     16                     17                     18
                      A                      A                      A
 Frequencies --    241.4282               264.4485               306.6179
 Red. masses --      1.9969                 2.3960                 2.3868
 Frc consts  --      0.0686                 0.0987                 0.1322
 IR Inten    --      0.3287                 2.8576                 3.1170

                     19                     20                     21
                      A                      A                      A
 Frequencies --    316.4101               349.1771               367.7735
 Red. masses --      2.2779                 2.6455                 2.2738
 Frc consts  --      0.1344                 0.1900                 0.1812
 IR Inten    --      2.3265                 3.2963                 2.7159

                     22                     23                     24
                      A                      A                      A
 Frequencies --    415.9802               437.7161               446.1976
 Red. masses --      2.9112                 2.3614                 1.4162
 Frc consts  --      0.2968                 0.2666                 0.1661
 IR Inten    --      5.1485                38.0276                55.2731

                     25                     26                     27
                      A                      A                      A
 Frequencies --    467.9576               481.1025               518.8900
 Red. masses --      3.0316                 3.4420                 2.2189
 Frc consts  --      0.3911                 0.4694                 0.3520
 IR Inten    --      2.6221                17.9772                 3.6934

                     28                     29                     30
                      A                      A                      A
 Frequencies --    551.4737               579.6770               600.0303
 Red. masses --      6.1767                 1.9896                 2.1705
 Frc consts  --      1.1068                 0.3939                 0.4604
 IR Inten    --      9.1259                31.1365                56.7814

                     31                     32                     33
                      A                      A                      A
 Frequencies --    612.7541               637.5333               680.8421
 Red. masses --      4.0866                 2.1228                 2.0691
 Frc consts  --      0.9040                 0.5083                 0.5651
 IR Inten    --     13.9169                 4.5717                35.2532

                     34                     35                     36
                      A                      A                      A
 Frequencies --    720.5574               738.9177               741.1348
 Red. masses --      4.1039                 8.5341                10.4225
 Frc consts  --      1.2554                 2.7454                 3.3730
 IR Inten    --      6.8937                 1.7288                 1.5592

                     37                     38                     39
                      A                      A                      A
 Frequencies --    759.6406               816.7871               824.1226
 Red. masses --      2.6060                 1.2194                 9.2214
 Frc consts  --      0.8860                 0.4793                 3.6900
 IR Inten    --      2.9496                 5.0591                46.0091

                     40                     41                     42
                      A                      A                      A
 Frequencies --    835.1047               848.4658               877.1675
 Red. masses --      1.6837                 2.3178                 2.2907
 Frc consts  --      0.6918                 0.9831                 1.0384
 IR Inten    --      1.9232                 3.2157                 9.0225

                     43                     44                     45
                      A                      A                      A
 Frequencies --    893.1850               903.9212               923.9389
 Red. masses --      2.6101                 2.3680                 2.1570
 Frc consts  --      1.2269                 1.1400                 1.0849
 IR Inten    --      8.6573                 8.4673                14.3578

                     46                     47                     48
                      A                      A                      A
 Frequencies --    944.4512               990.9418               994.8619
 Red. masses --      1.8498                12.2903                 1.9894
 Frc consts  --      0.9722                 7.1107                 1.1601
 IR Inten    --      4.3602                 2.7202                20.4933

                     49                     50                     51
                      A                      A                      A
 Frequencies --   1012.5980              1036.8027              1040.2813
 Red. masses --      3.3798                 1.9407                 2.0634
 Frc consts  --      2.0418                 1.2291                 1.3156
 IR Inten    --      2.9071                 4.4787                 5.9922

                     52                     53                     54
                      A                      A                      A
 Frequencies --   1053.0166              1073.7353              1093.6913
 Red. masses --      2.0409                 1.7551                 2.2408
 Frc consts  --      1.3333                 1.1922                 1.5792
 IR Inten    --     24.4340                55.2966                13.0054

                     55                     56                     57
                      A                      A                      A
 Frequencies --   1101.0842              1123.9515              1137.8639
 Red. masses --      4.1201                 2.5950                 2.2992
 Frc consts  --      2.9430                 1.9315                 1.7539
 IR Inten    --     11.2345                69.4433               105.2982

                     58                     59                     60
                      A                      A                      A
 Frequencies --   1161.4235              1165.7882              1174.0655
 Red. masses --      2.0004                 1.3160                 2.3982
 Frc consts  --      1.5898                 1.0538                 1.9477
 IR Inten    --      5.7677                 9.1752                50.4763

                     61                     62                     63
                      A                      A                      A
 Frequencies --   1187.6597              1211.2129              1220.4382
 Red. masses --      2.6707                 2.1117                 1.7467
 Frc consts  --      2.2195                 1.8252                 1.5329
 IR Inten    --     10.3781                 3.9085                38.7138

                     64                     65                     66
                      A                      A                      A
 Frequencies --   1223.8801              1236.2652              1258.0295
 Red. masses --      1.8073                 1.6299                 1.4497
 Frc consts  --      1.5950                 1.4677                 1.3518
 IR Inten    --     47.6663                18.9619                37.4736

                     67                     68                     69
                      A                      A                      A
 Frequencies --   1291.4807              1306.7054              1313.7213
 Red. masses --      1.6008                 1.2789                 2.9436
 Frc consts  --      1.5731                 1.2866                 2.9932
 IR Inten    --     40.7035                20.6296                25.0974

                     70                     71                     72
                      A                      A                      A
 Frequencies --   1326.1861              1342.1824              1355.4720
 Red. masses --      1.1736                 1.1391                 1.2541
 Frc consts  --      1.2161                 1.2090                 1.3575
 IR Inten    --      2.7801                 0.4221                 5.0304

                     73                     74                     75
                      A                      A                      A
 Frequencies --   1376.9456              1383.8303              1391.0895
 Red. masses --      1.3461                 1.7176                 1.5318
 Frc consts  --      1.5037                 1.9380                 1.7465
 IR Inten    --      8.2821               383.8109                21.3390

                     76                     77                     78
                      A                      A                      A
 Frequencies --   1401.2355              1403.0771              1412.9320
 Red. masses --      1.5047                 1.4585                 1.4870
 Frc consts  --      1.7407                 1.6916                 1.7491
 IR Inten    --      5.5158                34.2200                12.9647

                     79                     80                     81
                      A                      A                      A
 Frequencies --   1415.5021              1425.9712              1431.3196
 Red. masses --      1.4309                 1.4923                 1.3769
 Frc consts  --      1.6892                 1.7878                 1.6619
 IR Inten    --      5.9576                19.5611               101.9423

                     82                     83                     84
                      A                      A                      A
 Frequencies --   1439.9440              1446.0163              1465.3082
 Red. masses --      1.3358                 1.5194                 1.5454
 Frc consts  --      1.6319                 1.8719                 1.9550
 IR Inten    --     27.5081                 7.7980               147.0735

                     85                     86                     87
                      A                      A                      A
 Frequencies --   1487.0134              1501.9942              1504.1687
 Red. masses --      1.4907                 1.1485                 1.0952
 Frc consts  --      1.9421                 1.5265                 1.4599
 IR Inten    --    204.2164                56.6946                 1.6777

                     88                     89                     90
                      A                      A                      A
 Frequencies --   1507.7118              1512.2866              1514.9915
 Red. masses --      1.0675                 1.1006                 1.0821
 Frc consts  --      1.4298                 1.4830                 1.4633
 IR Inten    --     28.4343                10.7670                12.2568

                     91                     92                     93
                      A                      A                      A
 Frequencies --   1515.4026              1525.1234              1526.8774
 Red. masses --      1.0580                 1.1940                 1.1134
 Frc consts  --      1.4315                 1.6362                 1.5293
 IR Inten    --      4.3735               110.8931                11.5319

                     94                     95                     96
                      A                      A                      A
 Frequencies --   1540.3747              1540.9387              1543.7031
 Red. masses --      1.0968                 1.0939                 1.0775
 Frc consts  --      1.5333                 1.5304                 1.5128
 IR Inten    --      8.9330                12.5960                14.6993

                     97                     98                     99
                      A                      A                      A
 Frequencies --   1588.1455              1601.1460              1632.9711
 Red. masses --      3.1512                 4.5948                 7.0642
 Frc consts  --      4.6828                 6.9402                11.0986
 IR Inten    --    761.9692               332.8082               738.2178

                    100                    101                    102
                      A                      A                      A
 Frequencies --   1663.3781              2990.5127              3037.6860
 Red. masses --      4.7371                 1.0714                 1.0664
 Frc consts  --      7.7223                 5.6456                 5.7977
 IR Inten    --    422.0633                46.0040                10.6524

                    103                    104                    105
                      A                      A                      A
 Frequencies --   3038.5885              3043.0785              3044.0971
 Red. masses --      1.0468                 1.0602                 1.0613
 Frc consts  --      5.6948                 5.7844                 5.7945
 IR Inten    --     56.3947                29.0793                18.2166

                    106                    107                    108
                      A                      A                      A
 Frequencies --   3057.2930              3058.4753              3079.9687
 Red. masses --      1.0623                 1.0370                 1.0942
 Frc consts  --      5.8501                 5.7153                 6.1155
 IR Inten    --     26.9378                22.5481                28.0698

                    109                    110                    111
                      A                      A                      A
 Frequencies --   3080.7595              3085.9203              3089.5576
 Red. masses --      1.0916                 1.1008                 1.0590
 Frc consts  --      6.1040                 6.1765                 5.9558
 IR Inten    --     52.7678                12.3266                39.3675

                    112                    113                    114
                      A                      A                      A
 Frequencies --   3091.6496              3093.4694              3103.4040
 Red. masses --      1.0835                 1.0888                 1.0913
 Frc consts  --      6.1016                 6.1391                 6.1924
 IR Inten    --     44.1868                25.4244                81.8603

                    115                    116                    117
                      A                      A                      A
 Frequencies --   3106.9523              3113.8291              3123.9523
 Red. masses --      1.0931                 1.0882                 1.1018
 Frc consts  --      6.2169                 6.2164                 6.3350
 IR Inten    --     55.0907                31.6547                28.6468

                    118                    119                    120
                      A                      A                      A
 Frequencies --   3136.6849              3143.5467              3154.3650
 Red. masses --      1.1038                 1.1064                 1.1052
 Frc consts  --      6.3983                 6.4418                 6.4792
 IR Inten    --     11.1026                19.8817                18.4095

                    121                    122                    123
                      A                      A                      A
 Frequencies --   3156.3298              3623.1792              3651.7270
 Red. masses --      1.1060                 1.0765                 1.0771
 Frc consts  --      6.4920                 8.3264                 8.4626
 IR Inten    --     37.6476                59.1014                46.8876

 - Thermochemistry -
 -------------------
 Temperature   298.150 Kelvin.  Pressure   1.00000 Atm.
 Atom     1 has atomic number  6 and mass  12.00000

 Molecular mass:   281.18518 amu.
 Principal axes and moments of inertia in atomic units:
                           1         2         3
     Eigenvalues --  3192.58786********************
           X            0.99998  -0.00318  -0.00523
           Y            0.00325   0.99990   0.01344
           Z            0.00518  -0.01346   0.99990
 This molecule is an asymmetric top.
 Rotational symmetry number  1.
 Warning -- assumption of classical behavior for rotation
           may cause significant error
 Rotational temperatures (Kelvin)      0.02713     0.00751     0.00674
 Rotational constants (GHZ):           0.56529     0.15642     0.14034
 Zero-point vibrational energy     987409.3 (Joules/Mol)
                                  235.99649 (Kcal/Mol)
 Warning -- explicit consideration of  31 degrees of freedom as
           vibrations may cause significant error
 Vibrational temperatures:     26.59    34.51    49.64    85.95    87.73
          (Kelvin)            113.36   126.97   151.27   178.71   214.38
                              250.91   285.73   289.41   295.29   314.16
                              347.36   380.48   441.15   455.24   502.39
                              529.14   598.50   629.78   641.98   673.29
                              692.20   746.57   793.45   834.03   863.31
                              881.62   917.27   979.58  1036.72  1063.14
                             1066.33  1092.95  1175.17  1185.73  1201.53
                             1220.75  1262.05  1285.09  1300.54  1329.34
                             1358.85  1425.74  1431.38  1456.90  1491.73
                             1496.73  1515.06  1544.87  1573.58  1584.21
                             1617.12  1637.13  1671.03  1677.31  1689.22
                             1708.78  1742.67  1755.94  1760.89  1778.71
                             1810.02  1858.15  1880.06  1890.15  1908.09
                             1931.10  1950.22  1981.12  1991.02  2001.47
                             2016.07  2018.71  2032.89  2036.59  2051.65
                             2059.35  2071.76  2080.49  2108.25  2139.48
                             2161.03  2164.16  2169.26  2175.84  2179.73
                             2180.33  2194.31  2196.84  2216.26  2217.07
                             2221.04  2284.99  2303.69  2349.48  2393.23
                             4302.68  4370.55  4371.85  4378.31  4379.78
                             4398.76  4400.46  4431.39  4432.53  4439.95
                             4445.18  4448.19  4450.81  4465.11  4470.21
                             4480.11  4494.67  4512.99  4522.86  4538.43
                             4541.25  5212.95  5254.02

 Zero-point correction=                           0.376084 (Hartree/Particle)
 Thermal correction to Energy=                    0.396176
 Thermal correction to Enthalpy=                  0.397120
 Thermal correction to Gibbs Free Energy=         0.324889
 Sum of electronic and zero-point Energies=           -933.183867
 Sum of electronic and thermal Energies=              -933.163775
 Sum of electronic and thermal Enthalpies=            -933.162831
 Sum of electronic and thermal Free Energies=         -933.235062

                     E (Thermal)             CV                S
                      KCal/Mol        Cal/Mol-Kelvin    Cal/Mol-Kelvin
 Total                  248.604             75.054            152.023
 Electronic               0.000              0.000              0.000
 Translational            0.889              2.981             42.800
 Rotational               0.889              2.981             34.515
 Vibrational            246.827             69.092             74.709
 Vibration     1          0.593              1.986              6.791
 Vibration     2          0.593              1.985              6.274
 Vibration     3          0.594              1.983              5.552
 Vibration     4          0.597              1.973              4.466
 Vibration     5          0.597              1.973              4.425
 Vibration     6          0.600              1.963              3.921
 Vibration     7          0.601              1.957              3.698
 Vibration     8          0.605              1.945              3.357
 Vibration     9          0.610              1.929              3.034
 Vibration    10          0.618              1.904              2.685
 Vibration    11          0.627              1.874              2.388
 Vibration    12          0.637              1.842              2.146
 Vibration    13          0.638              1.838              2.123
 Vibration    14          0.640              1.832              2.086
 Vibration    15          0.646              1.813              1.973
 Vibration    16          0.658              1.777              1.792
 Vibration    17          0.671              1.738              1.632
 Vibration    18          0.697              1.661              1.381
 Vibration    19          0.703              1.642              1.329
 Vibration    20          0.726              1.577              1.170
 Vibration    21          0.740              1.539              1.089
 Vibration    22          0.779              1.436              0.906
 Vibration    23          0.798              1.388              0.834
 Vibration    24          0.805              1.369              0.807
 Vibration    25          0.825              1.321              0.743
 Vibration    26          0.837              1.292              0.707
 Vibration    27          0.874              1.208              0.613
 Vibration    28          0.907              1.136              0.541
 Vibration    29          0.936              1.075              0.486
 Vibration    30          0.958              1.032              0.450
 Vibration    31          0.972              1.005              0.428

 Optimization completed.
    -- Stationary point found.
 Normal termination of Gaussian 16 at Sun Dec 13 13:21:43 2020.

 ----------------------------------------------------------------------
 # B3LYP/6-311++G(d,p) empiricaldispersion=gd3bj scf=xqc pop=npa geom=c
 heck
 ----------------------------------------------------------------------

 ----------------------------------------
 CID_105998520_JID_10315_Energie_neutraal
 ----------------------------------------
 Structure from the checkpoint file:  "JID_10315.chk"
 Charge =  0 Multiplicity = 1

 SCF Done:  E(RB3LYP) =  -933.821620205     A.U. after   14 cycles
 Normal termination of Gaussian 16 at Sun Dec 13 13:30:06 2020.

 ----------------------------------------------------------------------
 # B3LYP/6-311++G(d,p) empiricaldispersion=gd3bj scf=xqc pop=npa geom=c
 heck
 ----------------------------------------------------------------------

 --------------------------------------
 CID_105998520_JID_10315_Energie_kation
 --------------------------------------
 Structure from the checkpoint file:  "JID_10315.chk"
 Charge =  1 Multiplicity = 2

 SCF Done:  E(UB3LYP) =  -933.531388544     A.U. after   25 cycles
 Normal termination of Gaussian 16 at Sun Dec 13 13:50:05 2020.
 Gaussian 16:  ES64L-G16RevA.03 25-Dec-2016

 ----------------------------------------------------------------------
 # B3LYP/6-311++G(d,p) empiricaldispersion=gd3bj scf=xqc pop=npa geom=c
 heck
 ----------------------------------------------------------------------

 -------------------------------------
 CID_105998520_JID_10315_Energie_anion
 -------------------------------------
 Structure from the checkpoint file:  "JID_10315.chk"
 Charge = -1 Multiplicity = 2

                         Standard orientation:
 ---------------------------------------------------------------------
 Center     Atomic      Atomic             Coordinates (Angstroms)
 Number     Number       Type             X           Y           Z
 ---------------------------------------------------------------------
      1          6           0        4.753935   -1.977296   -1.649728
      2          6           0        4.791446   -1.864339   -0.133433
      3          8           0        3.472714   -1.958746    0.437908
      4          6           0        2.705345   -0.859012    0.452500
      5          7           0        3.197511    0.281345   -0.036398
      6          6           0        2.332082    1.317987    0.035525
      7          7           0        1.085782    1.271674    0.523881
      8          6           0        0.730512    0.057718    0.992052
      9          7           0        1.495760   -1.051628    0.977236
     10          7           0       -0.503292   -0.070626    1.537903
     11          6           0       -1.542004    0.938081    1.414818
     12          6           0       -2.182268    0.991078    0.019506
     13          6           0       -2.573692   -0.401765   -0.497344
     14          6           0       -3.436062   -0.367633   -1.767217
     15          6           0       -4.882462    0.049831   -1.466865
     16          6           0       -5.449778   -0.824170   -0.341585
     17          6           0       -4.515066   -0.790659    0.866359
     18          8           0       -3.194278   -1.200296    0.524908
     19          7           0        2.784388    2.505982   -0.433547
     20          6           0        1.955760    3.688846   -0.540299
     21          1           0        4.243863   -2.896843   -1.954413
     22          1           0        5.774612   -1.998779   -2.049332
     23          1           0        4.229507   -1.120842   -2.081224
     24          1           0        5.330705   -2.704358    0.312025
     25          1           0        5.257743   -0.927767    0.181306
     26          1           0       -0.793937   -1.023168    1.713468
     27          1           0       -2.298508    0.705776    2.168471
     28          1           0       -1.106307    1.909480    1.658479
     29          1           0       -3.044957    1.667772    0.055743
     30          1           0       -1.466333    1.426042   -0.686960
     31          1           0       -1.648850   -0.945587   -0.712863
     32          1           0       -3.440647   -1.373729   -2.205185
     33          1           0       -2.977083    0.304026   -2.503230
     34          1           0       -4.917244    1.104675   -1.162351
     35          1           0       -5.495980   -0.033861   -2.371423
     36          1           0       -6.451296   -0.488515   -0.044445
     37          1           0       -5.538999   -1.861697   -0.688914
     38          1           0       -4.507075    0.221610    1.303437
     39          1           0       -4.843143   -1.484978    1.645751
     40          1           0        3.688097    2.475651   -0.880485
     41          1           0        2.593837    4.540410   -0.788604
     42          1           0        1.181825    3.585646   -1.312755
     43          1           0        1.455161    3.882137    0.411716
 ---------------------------------------------------------------------

 SCF Done:  E(UB3LYP) =  -933.811066285     A.U. after   30 cycles

 The electronic state is 2-A.
 Alpha  occ. eigenvalues --  -19.07337 -19.03675 -14.24503 -14.24313 -14.20899
 Alpha  occ. eigenvalues --  -14.20536 -14.20471 -10.20687 -10.18769 -10.18717
 Alpha  occ. eigenvalues --  -10.14444 -10.13246 -10.12983 -10.11582 -10.10665
 Alpha  occ. eigenvalues --  -10.08398 -10.08206 -10.08170 -10.08103 -10.07807
 Alpha  occ. eigenvalues --   -1.00568  -0.94924  -0.93042  -0.87568  -0.83513
 Alpha  occ. eigenvalues --   -0.78295  -0.77933  -0.71681  -0.70120  -0.68681
 Alpha  occ. eigenvalues --   -0.65402  -0.62537  -0.59474  -0.57248  -0.55620
 Alpha  occ. eigenvalues --   -0.55449  -0.52941  -0.50914  -0.47888  -0.47465
 Alpha  occ. eigenvalues --   -0.45478  -0.43218  -0.42119  -0.39801  -0.39094
 Alpha  occ. eigenvalues --   -0.39064  -0.37636  -0.37280  -0.36879  -0.36413
 Alpha  occ. eigenvalues --   -0.36152  -0.35504  -0.34305  -0.33738  -0.32681
 Alpha  occ. eigenvalues --   -0.31536  -0.31385  -0.30464  -0.29810  -0.29668
 Alpha  occ. eigenvalues --   -0.29465  -0.28621  -0.27588  -0.27183  -0.26504
 Alpha  occ. eigenvalues --   -0.25665  -0.25361  -0.24782  -0.23944  -0.21036
 Alpha  occ. eigenvalues --   -0.18821  -0.18132  -0.17760  -0.17279  -0.15549
 Alpha  occ. eigenvalues --   -0.14506   0.03736
 Alpha virt. eigenvalues --    0.05020   0.05975   0.06631   0.07006   0.07565
 Alpha virt. eigenvalues --    0.08012   0.08346   0.08433   0.08757   0.09040
 Alpha virt. eigenvalues --    0.09319   0.09540   0.09944   0.10365   0.10593

  Beta  occ. eigenvalues --  -19.07337 -19.03672 -14.24482 -14.24312 -14.20894
  Beta  occ. eigenvalues --  -14.20525 -14.20469 -10.20686 -10.18769 -10.18716
  Beta  occ. eigenvalues --  -10.14439 -10.13245 -10.12969 -10.11576 -10.10621
  Beta  occ. eigenvalues --  -10.08386 -10.08185 -10.08150 -10.08093 -10.07793
  Beta  occ. eigenvalues --   -1.00566  -0.94915  -0.93032  -0.87551  -0.83498
  Beta  occ. eigenvalues --   -0.78279  -0.77922  -0.71653  -0.70098  -0.68669
  Beta  occ. eigenvalues --   -0.65382  -0.62482  -0.59454  -0.57222  -0.55586
  Beta  occ. eigenvalues --   -0.55413  -0.52904  -0.50887  -0.47865  -0.47443
  Beta  occ. eigenvalues --   -0.45438  -0.43200  -0.42088  -0.39783  -0.39074
  Beta  occ. eigenvalues --   -0.39046  -0.37611  -0.37257  -0.36842  -0.36370
  Beta  occ. eigenvalues --   -0.36128  -0.35483  -0.34287  -0.33715  -0.32655
  Beta  occ. eigenvalues --   -0.31516  -0.31368  -0.30418  -0.29792  -0.29634
  Beta  occ. eigenvalues --   -0.29441  -0.28603  -0.27569  -0.27165  -0.26485
  Beta  occ. eigenvalues --   -0.25654  -0.25341  -0.24756  -0.23915  -0.21018
  Beta  occ. eigenvalues --   -0.18813  -0.18119  -0.17748  -0.17260  -0.15534
  Beta  occ. eigenvalues --   -0.14489
  Beta virt. eigenvalues --    0.05669   0.05856   0.06694   0.06961   0.07507
  Beta virt. eigenvalues --    0.07924   0.08066   0.08519   0.08680   0.08804
  Beta virt. eigenvalues --    0.09219   0.09511   0.09782   0.10194   0.10545

 Mulliken charges and spin densities:
               1          2
     1  C   -0.032502  -0.331182
     2  C   -0.209882   0.046885
     3  O   -0.043920   0.011475
     4  C   -0.033007   0.105084
     5  N   -0.177951   0.040676
     6  C    0.134145  -0.057884
     7  N   -0.158373  -0.045360
     8  C   -0.054290  -0.380246
     9  N   -0.341585   0.026499
    10  N   -0.006791  -0.013370
    11  C   -0.031906  -0.342418
    12  C    0.043269  -0.222312
    13  C   -0.179263  -0.048174
    14  C   -0.260360   0.005391
    15  C   -0.125900  -0.194506
    16  C    0.534791  -0.925500
    17  C   -0.139920  -0.071266
    18  O   -0.118046   0.019783
    19  N   -0.452300   0.226271
    20  C    1.063227  -1.400897
    21  H    0.114938   0.020757
    22  H   -0.052732   0.180082
    23  H    0.017159   0.155084
    24  H    0.112844   0.045059
    25  H    0.105664   0.071585
    26  H    0.334050   0.001206
    27  H    0.115779   0.047167
    28  H    0.117623   0.118912
    29  H   -0.141227   0.296703
    30  H    0.619470  -0.455653
    31  H    0.217052   0.061645
    32  H   -0.004121   0.151709
    33  H   -0.149691   0.308610
    34  H   -0.079547   0.220677
    35  H   -0.286380   0.465850
    36  H   -0.393465   0.549780
    37  H    0.124819   0.018313
    38  H    0.073975   0.039559
    39  H   -0.074442   0.248481
    40  H   -0.154848   0.477205
    41  H   -0.616019   0.767876
    42  H   -0.429254   0.605232
    43  H    0.018917   0.155212
 Sum of Mulliken charges =  -1.00000   1.00000

 Dipole moment (field-independent basis, Debye):
    X=              1.5779    Y=             -4.6793    Z=              2.9929  Tot=              5.7744
 Quadrupole moment (field-independent basis, Debye-Ang):
   XX=           -230.3258   YY=           -181.3525   ZZ=           -157.2613
   XY=            -15.5115   XZ=             -0.6177   YZ=             12.0459

 Summary of Natural Population Analysis:

                                       Natural Population
                Natural  -----------------------------------------------
    Atom  No    Charge         Core      Valence    Rydberg      Total
 -----------------------------------------------------------------------
      C    1   -0.30011      0.99966     2.29622    0.00423     3.30011
      C    2   -0.01485      0.99958     2.00467    0.01061     3.01485
      O    3   -0.26802      0.99985     3.25937    0.00881     4.26802
      C    4    0.37729      0.99955     1.60052    0.02263     2.62271
      N    5   -0.32930      0.99963     2.82034    0.00933     3.82930
      C    6    0.31839      0.99961     1.66383    0.01817     2.68161
      N    7   -0.31883      0.99964     2.81118    0.00802     3.81883
      C    8    0.31580      0.99962     1.66631    0.01827     2.68420
      N    9   -0.30580      0.99963     2.79747    0.00870     3.80580
      N   10   -0.30007      0.99965     2.79130    0.00911     3.80007
      C   11   -0.08951      0.99962     2.07760    0.01229     3.08951
      C   12   -0.21279      0.99960     2.20549    0.00770     3.21279
      C   13    0.06412      0.99954     1.92169    0.01466     2.93588
      C   14   -0.20101      0.99961     2.19227    0.00913     3.20101
      C   15   -0.19250      0.99963     2.18431    0.00857     3.19250
      C   16   -0.20413      0.99963     2.19580    0.00870     3.20413
      C   17   -0.01159      0.99957     1.99865    0.01337     3.01159
      O   18   -0.31076      0.99989     3.30190    0.00897     4.31076
      N   19   -0.29602      0.99966     2.78573    0.01062     3.79602
      C   20   -0.17805      0.99965     2.16993    0.00847     3.17805
      H   21    0.09842      0.00000     0.40043    0.00115     0.40158
      H   22    0.09871      0.00000     0.40012    0.00116     0.40129
      H   23    0.10934      0.00000     0.38921    0.00145     0.39066
      H   24    0.08617      0.00000     0.41258    0.00125     0.41383
      H   25    0.09644      0.00000     0.40200    0.00156     0.40356
      H   26    0.20026      0.00000     0.29691    0.00283     0.29974
      H   27    0.09690      0.00000     0.40204    0.00107     0.40310
      H   28    0.10722      0.00000     0.39161    0.00117     0.39278
      H   29    0.09919      0.00000     0.39944    0.00137     0.40081
      H   30    0.11062      0.00000     0.38785    0.00154     0.38938
      H   31    0.09493      0.00000     0.40342    0.00166     0.40507
      H   32    0.09818      0.00000     0.40074    0.00108     0.40182
      H   33    0.10437      0.00000     0.39468    0.00095     0.39563
      H   34    0.09557      0.00000     0.40295    0.00148     0.40443
      H   35    0.10155      0.00000     0.39722    0.00123     0.39845
      H   36    0.10230      0.00000     0.39624    0.00146     0.39770
      H   37    0.09508      0.00000     0.40372    0.00120     0.40492
      H   38    0.07620      0.00000     0.42237    0.00144     0.42380
      H   39    0.09063      0.00000     0.40834    0.00103     0.40937
      H   40    0.19935      0.00000     0.29653    0.00412     0.30065
      H   41    0.10012      0.00000     0.39754    0.00234     0.39988
      H   42    0.09519      0.00000     0.40299    0.00182     0.40481
      H   43    0.10099      0.00000     0.39761    0.00140     0.39901
 =======================================================================
   * Total *   -0.00000     19.99281    55.75107    0.25612    76.00000

 Normal termination of Gaussian 16 at Sun Dec 13 14:13:31 2020.
