 Gaussian 16, Revision A.03,

 -----------------------------------------------------------
 # opt freq B3LYP/6-31G(d) empiricaldispersion=gd3bj scf=xqc
 -----------------------------------------------------------

 -------------------------------
 CID_104483902_JID_7745_neutraal
 -------------------------------
 Symbolic Z-matrix:
 Charge =  0 Multiplicity = 1

 SCF Done:  E(RB3LYP) =  -749.977655399     A.U. after   14 cycles
 SCF Done:  E(RB3LYP) =  -749.983438322     A.U. after   12 cycles
 SCF Done:  E(RB3LYP) =  -749.984263327     A.U. after   12 cycles
 SCF Done:  E(RB3LYP) =  -749.984361605     A.U. after   11 cycles
 SCF Done:  E(RB3LYP) =  -749.984492561     A.U. after   10 cycles
 SCF Done:  E(RB3LYP) =  -749.984540295     A.U. after   10 cycles
 SCF Done:  E(RB3LYP) =  -749.984550208     A.U. after   10 cycles
 SCF Done:  E(RB3LYP) =  -749.984571089     A.U. after   10 cycles
 SCF Done:  E(RB3LYP) =  -749.984588371     A.U. after    9 cycles
 SCF Done:  E(RB3LYP) =  -749.984603297     A.U. after   10 cycles
 SCF Done:  E(RB3LYP) =  -749.984627644     A.U. after    9 cycles
 SCF Done:  E(RB3LYP) =  -749.984628990     A.U. after    9 cycles
 SCF Done:  E(RB3LYP) =  -749.984629210     A.U. after    8 cycles
 SCF Done:  E(RB3LYP) =  -749.984629553     A.U. after    7 cycles
 SCF Done:  E(RB3LYP) =  -749.984629666     A.U. after    7 cycles
 Optimization completed.
    -- Stationary point found.
 Normal termination of Gaussian 16 at Fri Dec 11 13:14:13 2020.

 --------------------------------------------------------------------
 #N Geom=AllCheck Guess=TCheck SCRF=Check GenChk RB3LYP/6-31G(d) Freq
 --------------------------------------------------------------------

 Structure from the checkpoint file:  "JID_7745.chk"
 -------------------------------
 CID_104483902_JID_7745_neutraal
 -------------------------------
 Charge =  0 Multiplicity = 1

 SCF Done:  E(RB3LYP) =  -749.984629667     A.U. after    1 cycles

  Exact polarizability: 187.522   2.191 144.809  -3.219  -0.518 130.655
 Approx polarizability: 227.366   8.666 218.082  -9.983  -5.275 197.848

                      1                      2                      3
                      A                      A                      A
 Frequencies --     25.8617                34.2297                45.2752
 Red. masses --      4.2535                 3.4665                 3.1506
 Frc consts  --      0.0017                 0.0024                 0.0038
 IR Inten    --      0.1797                 0.9167                 0.1065

                      4                      5                      6
                      A                      A                      A
 Frequencies --     60.1437               100.6821               109.1076
 Red. masses --      3.9998                 3.1092                 2.4640
 Frc consts  --      0.0085                 0.0186                 0.0173
 IR Inten    --      0.2775                 0.1577                 0.4980

                      7                      8                      9
                      A                      A                      A
 Frequencies --    125.9716               151.3903               182.2596
 Red. masses --      3.7244                 2.7491                 2.2986
 Frc consts  --      0.0348                 0.0371                 0.0450
 IR Inten    --      1.4282                 3.5326                 1.4449

                     10                     11                     12
                      A                      A                      A
 Frequencies --    206.6316               237.6387               252.6228
 Red. masses --      2.0256                 2.3962                 1.3568
 Frc consts  --      0.0510                 0.0797                 0.0510
 IR Inten    --      2.5161                 0.6194                 1.4392

                     13                     14                     15
                      A                      A                      A
 Frequencies --    269.8254               293.3994               332.6365
 Red. masses --      2.5507                 4.2359                 1.9246
 Frc consts  --      0.1094                 0.2148                 0.1255
 IR Inten    --      0.2334                 4.5610                 4.1199

                     16                     17                     18
                      A                      A                      A
 Frequencies --    349.8388               356.2998               391.5855
 Red. masses --      2.1632                 3.6016                 3.0779
 Frc consts  --      0.1560                 0.2694                 0.2781
 IR Inten    --     19.1385                 1.7646                 1.2042

                     19                     20                     21
                      A                      A                      A
 Frequencies --    398.0959               424.6055               450.8822
 Red. masses --      2.3267                 2.4608                 2.1843
 Frc consts  --      0.2172                 0.2614                 0.2616
 IR Inten    --      2.4786                12.4135                 3.5077

                     22                     23                     24
                      A                      A                      A
 Frequencies --    472.9188               535.9421               548.9341
 Red. masses --      2.9190                 3.0861                 1.7914
 Frc consts  --      0.3846                 0.5223                 0.3180
 IR Inten    --      5.2822                 5.4442                15.5029

                     25                     26                     27
                      A                      A                      A
 Frequencies --    590.4726               616.9173               676.0839
 Red. masses --      2.8991                 3.2553                 2.5749
 Frc consts  --      0.5955                 0.7299                 0.6934
 IR Inten    --      4.3313                 4.2229                16.1101

                     28                     29                     30
                      A                      A                      A
 Frequencies --    704.7441               754.3638               763.6632
 Red. masses --      2.2382                 2.2428                 1.3588
 Frc consts  --      0.6550                 0.7520                 0.4669
 IR Inten    --    131.3788                 2.2605                13.3928

                     31                     32                     33
                      A                      A                      A
 Frequencies --    769.0606               796.0305               811.8539
 Red. masses --      3.4734                 1.5671                 2.5400
 Frc consts  --      1.2104                 0.5851                 0.9864
 IR Inten    --      1.1857                 5.3219                 5.3053

                     34                     35                     36
                      A                      A                      A
 Frequencies --    843.8755               844.6334               869.6816
 Red. masses --      2.3674                 2.2300                 2.7155
 Frc consts  --      0.9933                 0.9373                 1.2101
 IR Inten    --     18.3544                 0.2274                 2.3028

                     37                     38                     39
                      A                      A                      A
 Frequencies --    886.4070               928.5331               931.4342
 Red. masses --      2.3834                 2.2180                 2.1957
 Frc consts  --      1.1034                 1.1267                 1.1224
 IR Inten    --      2.3034                 3.1185                11.9394

                     40                     41                     42
                      A                      A                      A
 Frequencies --    947.5555               956.1630               978.6407
 Red. masses --      1.9825                 2.1057                 2.0066
 Frc consts  --      1.0487                 1.1343                 1.1323
 IR Inten    --      4.5272                15.7502                 9.6920

                     43                     44                     45
                      A                      A                      A
 Frequencies --   1000.4597              1014.6177              1031.0458
 Red. masses --      2.1173                 1.9596                 1.5530
 Frc consts  --      1.2487                 1.1885                 0.9727
 IR Inten    --      7.9071                 0.6366                 1.0335

                     46                     47                     48
                      A                      A                      A
 Frequencies --   1033.6815              1056.1724              1064.0424
 Red. masses --      2.7418                 2.1167                 2.4596
 Frc consts  --      1.7260                 1.3911                 1.6407
 IR Inten    --      0.7565                 5.0204                 6.9314

                     49                     50                     51
                      A                      A                      A
 Frequencies --   1081.6051              1092.6633              1147.7905
 Red. masses --      1.8755                 1.5367                 1.8616
 Frc consts  --      1.2927                 1.0810                 1.4450
 IR Inten    --     18.7320                 5.3011                 6.8174

                     52                     53                     54
                      A                      A                      A
 Frequencies --   1150.1113              1158.1128              1177.7797
 Red. masses --      1.8257                 1.6287                 2.9480
 Frc consts  --      1.4228                 1.2871                 2.4094
 IR Inten    --      7.2275                 1.0679                62.8895

                     55                     56                     57
                      A                      A                      A
 Frequencies --   1179.6901              1208.0088              1211.8657
 Red. masses --      2.1474                 1.7587                 1.3759
 Frc consts  --      1.7608                 1.5121                 1.1905
 IR Inten    --     12.2026                71.0123                 2.8009

                     58                     59                     60
                      A                      A                      A
 Frequencies --   1225.4085              1241.1954              1265.3414
 Red. masses --      1.4746                 1.7118                 1.2168
 Frc consts  --      1.3046                 1.5538                 1.1479
 IR Inten    --     29.5444                43.2945                 4.5473

                     61                     62                     63
                      A                      A                      A
 Frequencies --   1273.1326              1276.4598              1290.1178
 Red. masses --      1.5699                 1.8309                 1.2600
 Frc consts  --      1.4992                 1.7576                 1.2356
 IR Inten    --     67.8725                 2.1003                 0.1636

                     64                     65                     66
                      A                      A                      A
 Frequencies --   1305.5420              1322.2672              1333.7128
 Red. masses --      1.3792                 1.3479                 1.4333
 Frc consts  --      1.3850                 1.3885                 1.5022
 IR Inten    --     38.6152                 7.4473                41.5478

                     67                     68                     69
                      A                      A                      A
 Frequencies --   1343.3163              1343.9080              1357.6567
 Red. masses --      1.3126                 1.2842                 1.3485
 Frc consts  --      1.3955                 1.3666                 1.4645
 IR Inten    --      1.1268                 2.4382                 0.8480

                     70                     71                     72
                      A                      A                      A
 Frequencies --   1370.8277              1381.9705              1390.4299
 Red. masses --      1.4292                 1.6508                 1.3003
 Frc consts  --      1.5823                 1.8576                 1.4812
 IR Inten    --     42.5325                 3.5534                10.0396

                     73                     74                     75
                      A                      A                      A
 Frequencies --   1392.4980              1402.3455              1405.4447
 Red. masses --      1.3812                 1.3052                 1.2305
 Frc consts  --      1.5779                 1.5123                 1.4321
 IR Inten    --      4.8247                11.7511                 9.9267

                     76                     77                     78
                      A                      A                      A
 Frequencies --   1419.8070              1421.3878              1424.5289
 Red. masses --      1.4579                 1.3384                 1.4405
 Frc consts  --      1.7316                 1.5932                 1.7223
 IR Inten    --     17.3664                10.1025                 1.2868

                     79                     80                     81
                      A                      A                      A
 Frequencies --   1431.6715              1449.5331              1467.4762
 Red. masses --      1.3228                 1.2826                 1.7105
 Frc consts  --      1.5975                 1.5878                 2.1702
 IR Inten    --     11.9204                 9.0077                64.7220

                     82                     83                     84
                      A                      A                      A
 Frequencies --   1489.5617              1500.2923              1506.8032
 Red. masses --      1.1141                 1.1864                 1.0934
 Frc consts  --      1.4565                 1.5733                 1.4627
 IR Inten    --     15.9746                24.7872                 4.1429

                     85                     86                     87
                      A                      A                      A
 Frequencies --   1511.1882              1512.5827              1519.9278
 Red. masses --      1.1744                 1.0811                 1.0820
 Frc consts  --      1.5801                 1.4573                 1.4728
 IR Inten    --     18.7427                 1.2254                 2.3448

                     88                     89                     90
                      A                      A                      A
 Frequencies --   1520.6165              1526.3538              1526.9814
 Red. masses --      1.1499                 1.1090                 1.0443
 Frc consts  --      1.5666                 1.5222                 1.4347
 IR Inten    --      3.3696                 6.4774                 7.8987

                     91                     92                     93
                      A                      A                      A
 Frequencies --   1537.0119              1539.5440              1549.7955
 Red. masses --      1.0791                 1.1301                 1.0778
 Frc consts  --      1.5020                 1.5781                 1.5253
 IR Inten    --      9.8062                18.8344                 1.7929

                     94                     95                     96
                      A                      A                      A
 Frequencies --   1560.1690              1744.0047              3010.6667
 Red. masses --      1.0944                 9.4363                 1.0567
 Frc consts  --      1.5695                16.9101                 5.6431
 IR Inten    --      5.5444               267.2949                76.2863

                     97                     98                     99
                      A                      A                      A
 Frequencies --   3016.6675              3020.7000              3028.6344
 Red. masses --      1.0651                 1.0616                 1.0634
 Frc consts  --      5.7107                 5.7073                 5.7469
 IR Inten    --     30.4529                36.4660                12.0203

                    100                    101                    102
                      A                      A                      A
 Frequencies --   3030.4454              3040.1585              3041.4034
 Red. masses --      1.0629                 1.0624                 1.1055
 Frc consts  --      5.7511                 5.7852                 6.0249
 IR Inten    --     42.7760                77.0199                39.5541

                    103                    104                    105
                      A                      A                      A
 Frequencies --   3045.3393              3048.4630              3051.8851
 Red. masses --      1.0689                 1.0636                 1.0687
 Frc consts  --      5.8405                 5.8238                 5.8649
 IR Inten    --     28.2591                45.1331                30.9333

                    106                    107                    108
                      A                      A                      A
 Frequencies --   3053.8810              3057.7689              3060.4469
 Red. masses --      1.0702                 1.0820                 1.0932
 Frc consts  --      5.8807                 5.9607                 6.0328
 IR Inten    --     43.7061                28.1150                28.0483

                    109                    110                    111
                      A                      A                      A
 Frequencies --   3062.1159              3071.4408              3073.9425
 Red. masses --      1.0967                 1.0972                 1.0707
 Frc consts  --      6.0589                 6.0986                 5.9608
 IR Inten    --     20.9332                38.0234                46.6884

                    112                    113                    114
                      A                      A                      A
 Frequencies --   3076.2537              3089.3916              3100.2209
 Red. masses --      1.0708                 1.0988                 1.1008
 Frc consts  --      5.9706                 6.1791                 6.2338
 IR Inten    --     36.9282                44.3219                47.4355

                    115                    116                    117
                      A                      A                      A
 Frequencies --   3110.8292              3116.0160              3118.6554
 Red. masses --      1.1017                 1.1053                 1.1027
 Frc consts  --      6.2816                 6.3234                 6.3189
 IR Inten    --     65.2904                24.9636                34.1851

                    118                    119                    120
                      A                      A                      A
 Frequencies --   3136.1290              3136.8775              3498.8567
 Red. masses --      1.1013                 1.0969                 1.0737
 Frc consts  --      6.3820                 6.3595                 7.7445
 IR Inten    --     29.9202                 9.5010                 1.4309

 - Thermochemistry -
 -------------------
 Temperature   298.150 Kelvin.  Pressure   1.00000 Atm.
 Atom     1 has atomic number  6 and mass  12.00000

 Molecular mass:   239.19976 amu.
 Principal axes and moments of inertia in atomic units:
                           1         2         3
     Eigenvalues --  1607.686218239.872548574.10443
           X            1.00000  -0.00070  -0.00250
           Y            0.00068   0.99998  -0.00582
           Z            0.00250   0.00582   0.99998
 This molecule is an asymmetric top.
 Rotational symmetry number  1.
 Warning -- assumption of classical behavior for rotation
           may cause significant error
 Rotational temperatures (Kelvin)      0.05387     0.01051     0.01010
 Rotational constants (GHZ):           1.12257     0.21903     0.21049
 Zero-point vibrational energy    1009723.2 (Joules/Mol)
                                  241.32964 (Kcal/Mol)
 Warning -- explicit consideration of  26 degrees of freedom as
           vibrations may cause significant error
 Vibrational temperatures:     37.21    49.25    65.14    86.53   144.86
          (Kelvin)            156.98   181.25   217.82   262.23   297.30
                              341.91   363.47   388.22   422.14   478.59
                              503.34   512.64   563.40   572.77   610.91
                              648.72   680.42   771.10   789.79   849.56
                              887.61   972.73  1013.97  1085.36  1098.74
                             1106.51  1145.31  1168.08  1214.15  1215.24
                             1251.28  1275.34  1335.95  1340.13  1363.32
                             1375.71  1408.05  1439.44  1459.81  1483.44
                             1487.24  1519.60  1530.92  1556.19  1572.10
                             1651.41  1654.75  1666.27  1694.56  1697.31
                             1738.06  1743.60  1763.09  1785.80  1820.54
                             1831.75  1836.54  1856.19  1878.38  1902.45
                             1918.92  1932.73  1933.58  1953.37  1972.32
                             1988.35  2000.52  2003.49  2017.66  2022.12
                             2042.79  2045.06  2049.58  2059.86  2085.55
                             2111.37  2143.15  2158.59  2167.95  2174.26
                             2176.27  2186.84  2187.83  2196.08  2196.99
                             2211.42  2215.06  2229.81  2244.74  2509.23
                             4331.68  4340.31  4346.11  4357.53  4360.14
                             4374.11  4375.90  4381.56  4386.06  4390.98
                             4393.85  4399.45  4403.30  4405.70  4419.12
                             4422.72  4426.04  4444.95  4460.53  4475.79
                             4483.25  4487.05  4512.19  4513.27  5034.07

 Zero-point correction=                           0.384583 (Hartree/Particle)
 Thermal correction to Energy=                    0.401639
 Thermal correction to Enthalpy=                  0.402583
 Thermal correction to Gibbs Free Energy=         0.338693
 Sum of electronic and zero-point Energies=           -749.600046
 Sum of electronic and thermal Energies=              -749.582991
 Sum of electronic and thermal Enthalpies=            -749.582047
 Sum of electronic and thermal Free Energies=         -749.645937

                     E (Thermal)             CV                S
                      KCal/Mol        Cal/Mol-Kelvin    Cal/Mol-Kelvin
 Total                  252.032             66.093            134.469
 Electronic               0.000              0.000              0.000
 Translational            0.889              2.981             42.318
 Rotational               0.889              2.981             33.096
 Vibrational            250.255             60.131             59.055
 Vibration     1          0.593              1.985              6.124
 Vibration     2          0.594              1.983              5.568
 Vibration     3          0.595              1.979              5.014
 Vibration     4          0.597              1.973              4.452
 Vibration     5          0.604              1.949              3.441
 Vibration     6          0.606              1.942              3.285
 Vibration     7          0.611              1.927              3.007
 Vibration     8          0.619              1.901              2.655
 Vibration     9          0.630              1.864              2.305
 Vibration    10          0.641              1.830              2.073
 Vibration    11          0.656              1.783              1.820
 Vibration    12          0.664              1.758              1.712
 Vibration    13          0.674              1.729              1.597
 Vibration    14          0.688              1.686              1.454
 Vibration    15          0.715              1.610              1.247
 Vibration    16          0.727              1.576              1.167
 Vibration    17          0.732              1.562              1.138
 Vibration    18          0.759              1.488              0.994
 Vibration    19          0.764              1.474              0.970
 Vibration    20          0.787              1.417              0.876
 Vibration    21          0.810              1.359              0.793
 Vibration    22          0.830              1.310              0.729
 Vibration    23          0.891              1.171              0.574
 Vibration    24          0.904              1.142              0.546
 Vibration    25          0.948              1.052              0.466
 Vibration    26          0.977              0.996              0.421

                           ! Non-Optimized Parameters !
 Normal termination of Gaussian 16 at Fri Dec 11 13:33:37 2020.

 ----------------------------------------------------------------------
 # B3LYP/6-311++G(d,p) empiricaldispersion=gd3bj scf=xqc pop=npa geom=c
 heck
 ----------------------------------------------------------------------

 ---------------------------------------
 CID_104483902_JID_7745_Energie_neutraal
 ---------------------------------------
 Structure from the checkpoint file:  "JID_7745.chk"
 Charge =  0 Multiplicity = 1

 SCF Done:  E(RB3LYP) =  -750.193647418     A.U. after   14 cycles
 Normal termination of Gaussian 16 at Fri Dec 11 13:41:47 2020.

 ----------------------------------------------------------------------
 # B3LYP/6-311++G(d,p) empiricaldispersion=gd3bj scf=xqc pop=npa geom=c
 heck
 ----------------------------------------------------------------------

 -------------------------------------
 CID_104483902_JID_7745_Energie_kation
 -------------------------------------
 Structure from the checkpoint file:  "JID_7745.chk"
 Charge =  1 Multiplicity = 2

 SCF Done:  E(UB3LYP) =  -749.927483358     A.U. after   25 cycles
 Normal termination of Gaussian 16 at Fri Dec 11 14:01:21 2020.
 Gaussian 16:  ES64L-G16RevA.03 25-Dec-2016

 ----------------------------------------------------------------------
 # B3LYP/6-311++G(d,p) empiricaldispersion=gd3bj scf=xqc pop=npa geom=c
 heck
 ----------------------------------------------------------------------

 ------------------------------------
 CID_104483902_JID_7745_Energie_anion
 ------------------------------------
 Structure from the checkpoint file:  "JID_7745.chk"
 Charge = -1 Multiplicity = 2

                         Standard orientation:
 ---------------------------------------------------------------------
 Center     Atomic      Atomic             Coordinates (Angstroms)
 Number     Number       Type             X           Y           Z
 ---------------------------------------------------------------------
      1          6           0       -4.639488    1.452367    0.219542
      2          6           0       -4.833724   -0.012455   -0.185464
      3          6           0       -3.580776   -0.905334   -0.121186
      4          6           0       -2.896149   -0.953582    1.263578
      5          6           0       -1.826518    0.153819    1.230711
      6          7           0       -1.652675    0.481122   -0.194377
      7          6           0       -2.431291   -0.439861   -1.028887
      8          6           0       -0.313248    0.756274   -0.628475
      9          6           0        0.658775   -0.444397   -0.524061
     10          8           0        0.282586   -1.538184   -0.106682
     11          7           0        1.950051   -0.236949   -0.936407
     12          6           0        2.510192    1.078942   -1.231832
     13          6           0        2.956712    1.892945    0.004947
     14          6           0        3.363223    1.044207    1.227514
     15          7           0        4.242373   -0.099730    1.002888
     16          6           0        3.587312   -1.336559    0.591271
     17          6           0        2.907358   -1.334432   -0.786152
     18          1           0       -4.368912    1.540866    1.277527
     19          1           0       -5.565125    2.019662    0.068700
     20          1           0       -3.842299    1.924201   -0.362203
     21          1           0       -5.607417   -0.462272    0.452757
     22          1           0       -5.226550   -0.051878   -1.211206
     23          1           0       -3.890583   -1.914534   -0.417281
     24          1           0       -2.401789   -1.921768    1.385779
     25          1           0       -3.606609   -0.830300    2.088248
     26          1           0       -2.146855    1.051241    1.778611
     27          1           0       -0.892527   -0.199453    1.683294
     28          1           0       -1.835234   -1.304209   -1.354497
     29          1           0       -2.795604    0.082820   -1.924984
     30          1           0       -0.338525    1.099455   -1.671890
     31          1           0        0.091049    1.592967   -0.043927
     32          1           0        1.798467    1.659053   -1.825214
     33          1           0        3.372465    0.901953   -1.882111
     34          1           0        3.795160    2.534362   -0.298070
     35          1           0        2.156611    2.574489    0.322340
     36          1           0        3.836693    1.715806    1.956489
     37          1           0        2.460444    0.654565    1.711997
     38          1           0        5.012034    0.139344    0.381346
     39          1           0        2.827459   -1.574229    1.344355
     40          1           0        4.328414   -2.145981    0.617670
     41          1           0        2.369513   -2.273106   -0.936764
     42          1           0        3.656521   -1.230297   -1.581258
 ---------------------------------------------------------------------

 SCF Done:  E(UB3LYP) =  -750.182907695     A.U. after   33 cycles
 SCF Done:  E(UB3LYP) =  -750.182907695     a.u. after    1 cycles

 The electronic state is 2-A.
 Alpha  occ. eigenvalues --  -18.99046 -14.24401 -14.20469 -14.19976 -10.17097
 Alpha  occ. eigenvalues --  -10.10951 -10.10915 -10.10176 -10.09834 -10.09801
 Alpha  occ. eigenvalues --  -10.09415 -10.09221 -10.08401 -10.07956 -10.07481
 Alpha  occ. eigenvalues --  -10.07207 -10.06703  -0.94324  -0.84662  -0.83560
 Alpha  occ. eigenvalues --   -0.80231  -0.71843  -0.68963  -0.66222  -0.63563
 Alpha  occ. eigenvalues --   -0.62767  -0.59913  -0.59196  -0.54425  -0.53198
 Alpha  occ. eigenvalues --   -0.49891  -0.48431  -0.46213  -0.43906  -0.41890
 Alpha  occ. eigenvalues --   -0.40635  -0.39969  -0.38639  -0.37752  -0.37123
 Alpha  occ. eigenvalues --   -0.36486  -0.35450  -0.34437  -0.33684  -0.32939
 Alpha  occ. eigenvalues --   -0.32145  -0.31392  -0.30751  -0.29924  -0.29358
 Alpha  occ. eigenvalues --   -0.28087  -0.27936  -0.27674  -0.26997  -0.26737
 Alpha  occ. eigenvalues --   -0.25845  -0.25718  -0.25167  -0.24203  -0.23519
 Alpha  occ. eigenvalues --   -0.22974  -0.22165  -0.17035  -0.15394  -0.12334
 Alpha  occ. eigenvalues --   -0.11119   0.04075
 Alpha virt. eigenvalues --    0.05460   0.06837   0.07249   0.07513   0.07764
 Alpha virt. eigenvalues --    0.08062   0.09252   0.09693   0.09803   0.09998
 Alpha virt. eigenvalues --    0.10131   0.10650   0.11087   0.11414   0.11719

  Beta  occ. eigenvalues --  -18.99032 -14.24406 -14.20470 -14.19948 -10.17087
  Beta  occ. eigenvalues --  -10.10918 -10.10895 -10.10158 -10.09827 -10.09791
  Beta  occ. eigenvalues --  -10.09407 -10.09212 -10.08400 -10.07947 -10.07476
  Beta  occ. eigenvalues --  -10.07175 -10.06689  -0.94301  -0.84646  -0.83553
  Beta  occ. eigenvalues --   -0.80187  -0.71829  -0.68918  -0.66198  -0.63529
  Beta  occ. eigenvalues --   -0.62747  -0.59879  -0.59146  -0.54389  -0.53163
  Beta  occ. eigenvalues --   -0.49821  -0.48406  -0.46194  -0.43862  -0.41858
  Beta  occ. eigenvalues --   -0.40603  -0.39936  -0.38611  -0.37710  -0.37091
  Beta  occ. eigenvalues --   -0.36465  -0.35421  -0.34402  -0.33646  -0.32916
  Beta  occ. eigenvalues --   -0.32105  -0.31365  -0.30725  -0.29899  -0.29333
  Beta  occ. eigenvalues --   -0.28061  -0.27915  -0.27657  -0.26961  -0.26713
  Beta  occ. eigenvalues --   -0.25815  -0.25684  -0.25122  -0.24162  -0.23500
  Beta  occ. eigenvalues --   -0.22962  -0.22152  -0.17021  -0.15358  -0.12290
  Beta  occ. eigenvalues --   -0.11110
  Beta virt. eigenvalues --    0.05672   0.06747   0.07209   0.07586   0.07841
  Beta virt. eigenvalues --    0.08208   0.08447   0.09602   0.09884   0.09989
  Beta virt. eigenvalues --    0.10127   0.10304   0.10910   0.11324   0.11540

 Mulliken charges and spin densities:
               1          2
     1  C   -0.198101  -0.288917
     2  C   -0.064287  -0.422937
     3  C   -0.373443   0.756994
     4  C   -0.187488  -0.386347
     5  C   -0.004033  -0.299191
     6  N    0.406592   0.031629
     7  C    0.272603  -0.808345
     8  C   -0.299202  -0.396496
     9  C   -0.270413  -0.055320
    10  O   -0.304875   0.007507
    11  N    0.135949   0.065327
    12  C    0.084576  -0.416423
    13  C    0.508857  -0.663203
    14  C    0.628887  -1.014672
    15  N   -0.205781   0.082767
    16  C   -0.224520  -0.135097
    17  C    0.376255  -0.493180
    18  H    0.079959   0.050904
    19  H   -0.117926   0.262484
    20  H    0.070090   0.102511
    21  H   -0.068471   0.197319
    22  H    0.089308   0.033136
    23  H    0.039951   0.158028
    24  H    0.135299   0.029708
    25  H    0.081299   0.077002
    26  H   -0.037138   0.183525
    27  H    0.206433  -0.087049
    28  H    0.163257  -0.013061
    29  H   -0.094909   0.238720
    30  H   -0.072267   0.291084
    31  H    0.186062   0.019763
    32  H   -0.337778   0.486486
    33  H   -0.767139   0.977882
    34  H   -0.632410   0.820374
    35  H   -0.131794   0.257492
    36  H   -0.130511   0.333605
    37  H    0.078880   0.065836
    38  H    0.039751   0.188152
    39  H    0.179962   0.012414
    40  H   -0.108299   0.269502
    41  H    0.189327  -0.014239
    42  H   -0.322517   0.494324
 Sum of Mulliken charges =  -1.00000   1.00000

 Dipole moment (field-independent basis, Debye):
    X=             -6.3179    Y=             -3.5040    Z=              2.4453  Tot=              7.6271
 Quadrupole moment (field-independent basis, Debye-Ang):
   XX=           -216.9508   YY=           -149.1435   ZZ=           -144.2687
   XY=             -7.6480   XZ=              7.2344   YZ=              4.1514

 Summary of Natural Population Analysis:

                                       Natural Population
                Natural  -----------------------------------------------
    Atom  No    Charge         Core      Valence    Rydberg      Total
 -----------------------------------------------------------------------
      C    1   -0.29153      0.99966     2.28718    0.00469     3.29153
      C    2   -0.18434      0.99962     2.17711    0.00760     3.18434
      C    3   -0.11228      0.99959     2.10245    0.01024     3.11228
      C    4   -0.19594      0.99962     2.18886    0.00746     3.19594
      C    5   -0.08021      0.99963     2.07174    0.00884     3.08021
      N    6   -0.28644      0.99972     2.77400    0.01271     3.78644
      C    7   -0.08441      0.99960     2.07306    0.01175     3.08441
      C    8   -0.12385      0.99957     2.11342    0.01085     3.12385
      C    9    0.34302      0.99964     1.63403    0.02331     2.65698
      O   10   -0.33362      0.99988     3.32870    0.00504     4.33362
      N   11   -0.26055      0.99965     2.74808    0.01283     3.76055
      C   12   -0.08887      0.99960     2.07669    0.01258     3.08887
      C   13   -0.20529      0.99962     2.19664    0.00903     3.20529
      C   14   -0.08857      0.99962     2.07699    0.01196     3.08857
      N   15   -0.34148      0.99975     2.82967    0.01207     3.84148
      C   16   -0.09172      0.99961     2.08053    0.01157     3.09172
      C   17   -0.09365      0.99960     2.08249    0.01156     3.09365
      H   18    0.09490      0.00000     0.40381    0.00129     0.40510
      H   19    0.09514      0.00000     0.40376    0.00110     0.40486
      H   20    0.10612      0.00000     0.39238    0.00150     0.39388
      H   21    0.09205      0.00000     0.40671    0.00124     0.40795
      H   22    0.09331      0.00000     0.40550    0.00119     0.40669
      H   23    0.09927      0.00000     0.39989    0.00084     0.40073
      H   24    0.10465      0.00000     0.39415    0.00120     0.39535
      H   25    0.09651      0.00000     0.40235    0.00113     0.40349
      H   26    0.08553      0.00000     0.41298    0.00148     0.41447
      H   27    0.09477      0.00000     0.40371    0.00152     0.40523
      H   28    0.09596      0.00000     0.40266    0.00138     0.40404
      H   29    0.09056      0.00000     0.40825    0.00119     0.40944
      H   30    0.10735      0.00000     0.39134    0.00131     0.39265
      H   31    0.10599      0.00000     0.39233    0.00168     0.39401
      H   32    0.10362      0.00000     0.39472    0.00165     0.39638
      H   33    0.10307      0.00000     0.39368    0.00325     0.39693
      H   34    0.10260      0.00000     0.39419    0.00320     0.39740
      H   35    0.09665      0.00000     0.40198    0.00138     0.40335
      H   36    0.09432      0.00000     0.40458    0.00110     0.40568
      H   37    0.08983      0.00000     0.40861    0.00156     0.41017
      H   38    0.17479      0.00000     0.32155    0.00366     0.32521
      H   39    0.09466      0.00000     0.40411    0.00123     0.40534
      H   40    0.09386      0.00000     0.40531    0.00083     0.40614
      H   41    0.10979      0.00000     0.38909    0.00112     0.39021
      H   42    0.09444      0.00000     0.40377    0.00179     0.40556
 =======================================================================
   * Total *    0.00000     16.99399    48.78308    0.22292    66.00000

 Normal termination of Gaussian 16 at Fri Dec 11 14:27:12 2020.
