 Gaussian 16, Revision A.03,

 -----------------------------------------------------------
 # opt freq B3LYP/6-31G(d) empiricaldispersion=gd3bj scf=xqc
 -----------------------------------------------------------

 ------------------------------
 CID_66223432_JID_4824_neutraal
 ------------------------------
 Symbolic Z-matrix:
 Charge =  0 Multiplicity = 1

 SCF Done:  E(RB3LYP) =  -674.087296998     A.U. after   13 cycles
 SCF Done:  E(RB3LYP) =  -674.095003782     A.U. after   11 cycles
 SCF Done:  E(RB3LYP) =  -674.094009587     A.U. after   11 cycles
 SCF Done:  E(RB3LYP) =  -674.095713282     A.U. after   11 cycles
 SCF Done:  E(RB3LYP) =  -674.096463037     A.U. after   11 cycles
 SCF Done:  E(RB3LYP) =  -674.097056962     A.U. after   11 cycles
 SCF Done:  E(RB3LYP) =  -674.097189036     A.U. after   10 cycles
 SCF Done:  E(RB3LYP) =  -674.097216430     A.U. after    9 cycles
 SCF Done:  E(RB3LYP) =  -674.097224624     A.U. after    9 cycles
 SCF Done:  E(RB3LYP) =  -674.097227629     A.U. after    7 cycles
 SCF Done:  E(RB3LYP) =  -674.097228250     A.U. after    7 cycles
 SCF Done:  E(RB3LYP) =  -674.097228578     A.U. after    6 cycles
 SCF Done:  E(RB3LYP) =  -674.097228708     A.U. after    6 cycles
 Optimization completed.
    -- Stationary point found.
 Normal termination of Gaussian 16 at Thu Dec 10 10:40:07 2020.

 --------------------------------------------------------------------
 #N Geom=AllCheck Guess=TCheck SCRF=Check GenChk RB3LYP/6-31G(d) Freq
 --------------------------------------------------------------------

 Structure from the checkpoint file:  "JID_4824.chk"
 ------------------------------
 CID_66223432_JID_4824_neutraal
 ------------------------------
 Charge =  0 Multiplicity = 1

 SCF Done:  E(RB3LYP) =  -674.097228708     A.U. after    1 cycles

  Exact polarizability: 136.679  -0.467 117.391  -2.969  -2.330 106.122
 Approx polarizability: 168.332  -1.302 162.675  -1.775  -3.638 159.728

                      1                      2                      3
                      A                      A                      A
 Frequencies --     36.5120                52.5984                81.8885
 Red. masses --      4.6611                 3.9191                 3.6101
 Frc consts  --      0.0037                 0.0064                 0.0143
 IR Inten    --      0.7355                 0.5142                 0.8956

                      4                      5                      6
                      A                      A                      A
 Frequencies --     91.5537               100.5320               122.6806
 Red. masses --      3.0301                 3.0873                 2.8749
 Frc consts  --      0.0150                 0.0184                 0.0255
 IR Inten    --      2.0082                 1.3265                 1.6765

                      7                      8                      9
                      A                      A                      A
 Frequencies --    169.9165               181.5093               199.2547
 Red. masses --      1.9409                 2.4031                 1.3810
 Frc consts  --      0.0330                 0.0466                 0.0323
 IR Inten    --      8.1030                 0.0748                 4.0606

                     10                     11                     12
                      A                      A                      A
 Frequencies --    206.5881               220.5344               229.0614
 Red. masses --      2.9725                 1.8149                 1.1064
 Frc consts  --      0.0747                 0.0520                 0.0342
 IR Inten    --      2.5710                 1.1220                 0.2649

                     13                     14                     15
                      A                      A                      A
 Frequencies --    250.6369               285.2348               295.7621
 Red. masses --      1.6651                 1.3542                 2.1839
 Frc consts  --      0.0616                 0.0649                 0.1126
 IR Inten    --      4.0872                73.5742                27.2875

                     16                     17                     18
                      A                      A                      A
 Frequencies --    312.5512               342.0921               383.0200
 Red. masses --      3.3432                 3.0837                 2.8208
 Frc consts  --      0.1924                 0.2126                 0.2438
 IR Inten    --     12.5345                 3.7563                 2.3552

                     19                     20                     21
                      A                      A                      A
 Frequencies --    400.2164               408.6146               449.2936
 Red. masses --      2.4396                 2.7182                 2.3010
 Frc consts  --      0.2302                 0.2674                 0.2737
 IR Inten    --      0.8118                13.4473                 5.0060

                     22                     23                     24
                      A                      A                      A
 Frequencies --    470.3299               546.4494               556.6649
 Red. masses --      2.1351                 3.3790                 2.7197
 Frc consts  --      0.2783                 0.5945                 0.4965
 IR Inten    --     10.0559                11.8064                 0.4748

                     25                     26                     27
                      A                      A                      A
 Frequencies --    646.1383               684.7280               781.2098
 Red. masses --      3.3038                 3.2839                 2.9604
 Frc consts  --      0.8127                 0.9071                 1.0645
 IR Inten    --      6.2804                 2.7037                 1.0758

                     28                     29                     30
                      A                      A                      A
 Frequencies --    825.0579               841.6705               881.6629
 Red. masses --      1.3141                 2.8480                 2.4763
 Frc consts  --      0.5271                 1.1887                 1.1341
 IR Inten    --      1.5291                16.8514                 7.2039

                     31                     32                     33
                      A                      A                      A
 Frequencies --    898.7334               933.9814               954.0023
 Red. masses --      3.0632                 3.6243                 4.2742
 Frc consts  --      1.4578                 1.8627                 2.2919
 IR Inten    --     20.0596                 2.9621                50.8716

                     34                     35                     36
                      A                      A                      A
 Frequencies --    965.1719              1006.9602              1019.3481
 Red. masses --      1.6139                 2.7171                 2.0850
 Frc consts  --      0.8858                 1.6233                 1.2764
 IR Inten    --      9.1423                10.2268                13.2003

                     37                     38                     39
                      A                      A                      A
 Frequencies --   1035.8856              1055.6016              1078.6462
 Red. masses --      2.5639                 1.9627                 2.5171
 Frc consts  --      1.6210                 1.2886                 1.7255
 IR Inten    --     26.4739                39.0554                64.0803

                     40                     41                     42
                      A                      A                      A
 Frequencies --   1102.8217              1113.4701              1142.7136
 Red. masses --      1.5107                 4.5368                 2.2766
 Frc consts  --      1.0826                 3.3140                 1.7515
 IR Inten    --      2.2312               262.7092                53.7800

                     43                     44                     45
                      A                      A                      A
 Frequencies --   1143.5334              1160.5123              1175.7557
 Red. masses --      2.0078                 2.0558                 1.4938
 Frc consts  --      1.5470                 1.6313                 1.2167
 IR Inten    --     32.4301                65.9178                11.5896

                     46                     47                     48
                      A                      A                      A
 Frequencies --   1183.7448              1187.3215              1204.1151
 Red. masses --      1.4052                 1.3562                 1.4784
 Frc consts  --      1.1601                 1.1264                 1.2629
 IR Inten    --      5.2981                11.2784                22.3307

                     49                     50                     51
                      A                      A                      A
 Frequencies --   1206.4097              1227.5947              1230.6404
 Red. masses --      1.5050                 1.5641                 1.6257
 Frc consts  --      1.2906                 1.3888                 1.4506
 IR Inten    --     17.4423                29.4743                14.9455

                     52                     53                     54
                      A                      A                      A
 Frequencies --   1242.2699              1260.6402              1273.3996
 Red. masses --      1.6457                 1.7671                 1.2489
 Frc consts  --      1.4963                 1.6546                 1.1932
 IR Inten    --     22.0023                11.4294                53.2981

                     55                     56                     57
                      A                      A                      A
 Frequencies --   1284.9875              1297.4549              1319.3122
 Red. masses --      1.5902                 1.5037                 1.3599
 Frc consts  --      1.5471                 1.4914                 1.3946
 IR Inten    --      4.6885                 2.8795                23.6134

                     58                     59                     60
                      A                      A                      A
 Frequencies --   1345.1022              1368.6692              1379.4325
 Red. masses --      1.4394                 1.3747                 1.4507
 Frc consts  --      1.5344                 1.5172                 1.6264
 IR Inten    --     44.4900                 8.3120                 3.8611

                     61                     62                     63
                      A                      A                      A
 Frequencies --   1387.5144              1423.6649              1430.1646
 Red. masses --      1.4691                 1.2279                 1.2067
 Frc consts  --      1.6664                 1.4663                 1.4542
 IR Inten    --      7.7617                 6.0525                16.9273

                     64                     65                     66
                      A                      A                      A
 Frequencies --   1438.2175              1446.8642              1481.8347
 Red. masses --      1.4364                 1.3715                 1.1644
 Frc consts  --      1.7505                 1.6917                 1.5065
 IR Inten    --      6.3190                 2.2106                 4.1510

                     67                     68                     69
                      A                      A                      A
 Frequencies --   1493.8294              1498.4271              1500.8157
 Red. masses --      1.1480                 1.1567                 1.0999
 Frc consts  --      1.5094                 1.5302                 1.4597
 IR Inten    --      2.0354                 0.6663                 1.6109

                     70                     71                     72
                      A                      A                      A
 Frequencies --   1517.3285              1520.2319              1523.2839
 Red. masses --      1.0566                 1.0684                 1.0724
 Frc consts  --      1.4333                 1.4548                 1.4661
 IR Inten    --      4.9026                 6.3703                 3.3077

                     73                     74                     75
                      A                      A                      A
 Frequencies --   1527.2039              1530.0843              1531.6058
 Red. masses --      1.0806                 1.0791                 1.0948
 Frc consts  --      1.4849                 1.4885                 1.5131
 IR Inten    --      5.3227                 1.9433                 8.9197

                     76                     77                     78
                      A                      A                      A
 Frequencies --   1537.8329              1545.1356              1555.0723
 Red. masses --      1.0734                 1.0613                 1.0515
 Frc consts  --      1.4957                 1.4928                 1.4982
 IR Inten    --      2.8535                15.5382                 4.7750

                     79                     80                     81
                      A                      A                      A
 Frequencies --   2949.0407              2970.2021              2977.2709
 Red. masses --      1.0617                 1.0724                 1.0728
 Frc consts  --      5.4404                 5.5740                 5.6026
 IR Inten    --     71.3517                28.3676               117.1784

                     82                     83                     84
                      A                      A                      A
 Frequencies --   3011.7083              3039.1232              3041.8503
 Red. masses --      1.0430                 1.0394                 1.0834
 Frc consts  --      5.5741                 5.6561                 5.9060
 IR Inten    --     33.0934                35.7164                69.0935

                     85                     86                     87
                      A                      A                      A
 Frequencies --   3056.8345              3075.3162              3076.7889
 Red. masses --      1.0849                 1.0588                 1.0869
 Frc consts  --      5.9726                 5.8996                 6.0621
 IR Inten    --     28.2600                39.0886                29.9969

                     88                     89                     90
                      A                      A                      A
 Frequencies --   3081.2261              3083.0924              3085.3044
 Red. masses --      1.0928                 1.0677                 1.0775
 Frc consts  --      6.1130                 5.9797                 6.0432
 IR Inten    --     50.9351                38.6661                12.9879

                     91                     92                     93
                      A                      A                      A
 Frequencies --   3092.1772              3106.2805              3112.5739
 Red. masses --      1.0843                 1.0882                 1.0966
 Frc consts  --      6.1086                 6.1865                 6.2593
 IR Inten    --      0.2861                64.3761                48.5015

                     94                     95                     96
                      A                      A                      A
 Frequencies --   3126.0381              3140.4407              3144.4257
 Red. masses --      1.1077                 1.1005                 1.1054
 Frc consts  --      6.3777                 6.3948                 6.4398
 IR Inten    --     49.4284                31.8574                22.8638

                     97                     98                     99
                      A                      A                      A
 Frequencies --   3149.1955              3154.4967              3736.7164
 Red. masses --      1.1060                 1.0962                 1.0660
 Frc consts  --      6.4627                 6.4271                 8.7695
 IR Inten    --      7.9267                24.9198                 9.2602

 - Thermochemistry -
 -------------------
 Temperature   298.150 Kelvin.  Pressure   1.00000 Atm.
 Atom     1 has atomic number  6 and mass  12.00000

 Molecular mass:   203.15214 amu.
 Principal axes and moments of inertia in atomic units:
                           1         2         3
     Eigenvalues --  1611.161594567.192355104.18369
           X            0.99986   0.01010  -0.01369
           Y           -0.01008   0.99995   0.00104
           Z            0.01370  -0.00090   0.99991
 This molecule is an asymmetric top.
 Rotational symmetry number  1.
 Warning -- assumption of classical behavior for rotation
           may cause significant error
 Rotational temperatures (Kelvin)      0.05376     0.01896     0.01697
 Rotational constants (GHZ):           1.12015     0.39515     0.35358
 Zero-point vibrational energy     825132.7 (Joules/Mol)
                                  197.21144 (Kcal/Mol)
 Warning -- explicit consideration of  24 degrees of freedom as
           vibrations may cause significant error
 Vibrational temperatures:     52.53    75.68   117.82   131.73   144.64
          (Kelvin)            176.51   244.47   261.15   286.68   297.23
                              317.30   329.57   360.61   410.39   425.54
                              449.69   492.19   551.08   575.82   587.91
                              646.43   676.70   786.22   800.92   929.65
                              985.17  1123.99  1187.07  1210.98  1268.52
                             1293.08  1343.79  1372.60  1388.67  1448.79
                             1466.61  1490.41  1518.78  1551.93  1586.71
                             1602.04  1644.11  1645.29  1669.72  1691.65
                             1703.14  1708.29  1732.45  1735.75  1766.24
                             1770.62  1787.35  1813.78  1832.14  1848.81
                             1866.75  1898.20  1935.30  1969.21  1984.70
                             1996.32  2048.34  2057.69  2069.27  2081.71
                             2132.03  2149.29  2155.90  2159.34  2183.10
                             2187.27  2191.67  2197.31  2201.45  2203.64
                             2212.60  2223.11  2237.40  4243.01  4273.46
                             4283.63  4333.18  4372.62  4376.54  4398.10
                             4424.69  4426.81  4433.20  4435.88  4439.06
                             4448.95  4469.24  4478.30  4497.67  4518.39
                             4524.13  4530.99  4538.62  5376.30

 Zero-point correction=                           0.314276 (Hartree/Particle)
 Thermal correction to Energy=                    0.330357
 Thermal correction to Enthalpy=                  0.331301
 Thermal correction to Gibbs Free Energy=         0.271023
 Sum of electronic and zero-point Energies=           -673.782952
 Sum of electronic and thermal Energies=              -673.766872
 Sum of electronic and thermal Enthalpies=            -673.765927
 Sum of electronic and thermal Free Energies=         -673.826206

                     E (Thermal)             CV                S
                      KCal/Mol        Cal/Mol-Kelvin    Cal/Mol-Kelvin
 Total                  207.302             59.593            126.866
 Electronic               0.000              0.000              0.000
 Translational            0.889              2.981             41.831
 Rotational               0.889              2.981             31.996
 Vibrational            205.525             53.632             53.039
 Vibration     1          0.594              1.982              5.440
 Vibration     2          0.596              1.977              4.717
 Vibration     3          0.600              1.962              3.845
 Vibration     4          0.602              1.955              3.627
 Vibration     5          0.604              1.949              3.444
 Vibration     6          0.610              1.930              3.058
 Vibration     7          0.625              1.880              2.436
 Vibration     8          0.630              1.865              2.313
 Vibration     9          0.637              1.841              2.140
 Vibration    10          0.641              1.830              2.074
 Vibration    11          0.647              1.810              1.955
 Vibration    12          0.652              1.797              1.886
 Vibration    13          0.663              1.762              1.726
 Vibration    14          0.683              1.701              1.502
 Vibration    15          0.690              1.682              1.441
 Vibration    16          0.701              1.650              1.349
 Vibration    17          0.721              1.591              1.202
 Vibration    18          0.752              1.506              1.027
 Vibration    19          0.766              1.470              0.962
 Vibration    20          0.773              1.452              0.932
 Vibration    21          0.808              1.362              0.798
 Vibration    22          0.827              1.316              0.737
 Vibration    23          0.902              1.147              0.552
 Vibration    24          0.912              1.125              0.531

                           ! Non-Optimized Parameters !
 Normal termination of Gaussian 16 at Thu Dec 10 10:50:37 2020.

 ----------------------------------------------------------------------
 # B3LYP/6-311++G(d,p) empiricaldispersion=gd3bj scf=xqc pop=npa geom=c
 heck
 ----------------------------------------------------------------------

 --------------------------------------
 CID_66223432_JID_4824_Energie_neutraal
 --------------------------------------
 Structure from the checkpoint file:  "JID_4824.chk"
 Charge =  0 Multiplicity = 1

 SCF Done:  E(RB3LYP) =  -674.303397458     A.U. after   14 cycles
 Normal termination of Gaussian 16 at Thu Dec 10 10:54:54 2020.

 ----------------------------------------------------------------------
 # B3LYP/6-311++G(d,p) empiricaldispersion=gd3bj scf=xqc pop=npa geom=c
 heck
 ----------------------------------------------------------------------

 ------------------------------------
 CID_66223432_JID_4824_Energie_kation
 ------------------------------------
 Structure from the checkpoint file:  "JID_4824.chk"
 Charge =  1 Multiplicity = 2

 SCF Done:  E(UB3LYP) =  -674.003577527     A.U. after   25 cycles
 Normal termination of Gaussian 16 at Thu Dec 10 11:05:41 2020.
 Gaussian 16:  ES64L-G16RevA.03 25-Dec-2016

 ----------------------------------------------------------------------
 # B3LYP/6-311++G(d,p) empiricaldispersion=gd3bj scf=xqc pop=npa geom=c
 heck
 ----------------------------------------------------------------------

 -----------------------------------
 CID_66223432_JID_4824_Energie_anion
 -----------------------------------
 Structure from the checkpoint file:  "JID_4824.chk"
 Charge = -1 Multiplicity = 2

                         Standard orientation:
 ---------------------------------------------------------------------
 Center     Atomic      Atomic             Coordinates (Angstroms)
 Number     Number       Type             X           Y           Z
 ---------------------------------------------------------------------
      1          6           0        0.355746    1.909835    1.613266
      2          7           0        0.023276    1.123037    0.431169
      3          6           0        0.749246    1.579388   -0.766983
      4          6           0        1.991497    0.761231   -1.130347
      5          6           0        1.803349   -0.785183   -1.085707
      6          6           0        2.575744   -0.799914    0.260050
      7          6           0        3.106133    0.608139   -0.053256
      8          8           0        3.602738   -1.756594    0.449469
      9          6           0       -1.423680    1.062370    0.238053
     10          6           0       -1.873865   -0.091084   -0.671455
     11          8           0       -1.508621   -1.382930   -0.239079
     12          6           0       -1.307432   -1.624964    1.148649
     13          8           0       -3.259333    0.020775   -0.951507
     14          6           0       -4.147901   -0.417347    0.060792
     15          1           0        0.026050    2.963632    1.537522
     16          1           0        1.435238    1.906028    1.774913
     17          1           0       -0.116374    1.466863    2.497113
     18          1           0        0.068133    1.532550   -1.623833
     19          1           0        1.025530    2.643039   -0.661956
     20          1           0        2.356763    1.149816   -2.088226
     21          1           0        2.391227   -1.283374   -1.863216
     22          1           0        0.781691   -1.172013   -1.079652
     23          1           0        1.879110   -0.788263    1.108497
     24          1           0        3.166033    1.336151    0.760971
     25          1           0        4.092163    0.526648   -0.521291
     26          1           0        3.178990   -2.620515    0.570650
     27          1           0       -1.890284    0.950946    1.221601
     28          1           0       -1.835049    1.989541   -0.198875
     29          1           0       -1.412121    0.012005   -1.657105
     30          1           0       -0.467582   -1.039627    1.534225
     31          1           0       -2.203489   -1.422991    1.749242
     32          1           0       -1.074871   -2.689953    1.227115
     33          1           0       -4.042520   -1.492546    0.248762
     34          1           0       -4.017189    0.126175    1.008547
     35          1           0       -5.155681   -0.220203   -0.312616
 ---------------------------------------------------------------------

 SCF Done:  E(UB3LYP) =  -674.291036152     A.U. after   27 cycles

 The electronic state is 2-A.
 Alpha  occ. eigenvalues --  -19.03099 -19.02951 -19.02366 -14.21489 -10.17251
 Alpha  occ. eigenvalues --  -10.11709 -10.11272 -10.10451 -10.10331 -10.09993
 Alpha  occ. eigenvalues --  -10.09014 -10.08344 -10.06943 -10.06197  -0.97083
 Alpha  occ. eigenvalues --   -0.92476  -0.91225  -0.83321  -0.74512  -0.66351
 Alpha  occ. eigenvalues --   -0.63295  -0.60978  -0.58425  -0.56708  -0.54907
 Alpha  occ. eigenvalues --   -0.50917  -0.48000  -0.44321  -0.43019  -0.41897
 Alpha  occ. eigenvalues --   -0.41384  -0.39542  -0.38731  -0.37255  -0.35815
 Alpha  occ. eigenvalues --   -0.35299  -0.33929  -0.32620  -0.32590  -0.31550
 Alpha  occ. eigenvalues --   -0.31013  -0.29941  -0.29603  -0.28451  -0.28012
 Alpha  occ. eigenvalues --   -0.27624  -0.24876  -0.23705  -0.23257  -0.22570
 Alpha  occ. eigenvalues --   -0.21837  -0.20709  -0.17928  -0.16784  -0.16462
 Alpha  occ. eigenvalues --   -0.12786   0.04359
 Alpha virt. eigenvalues --    0.06560   0.06715   0.07367   0.08561   0.08918
 Alpha virt. eigenvalues --    0.09408   0.09857   0.10188   0.11066   0.11383
 Alpha virt. eigenvalues --    0.12040   0.12293   0.12659   0.13279   0.13776

  Beta  occ. eigenvalues --  -19.03093 -19.02946 -19.02338 -14.21483 -10.17249
  Beta  occ. eigenvalues --  -10.11699 -10.11237 -10.10406 -10.10322 -10.09974
  Beta  occ. eigenvalues --  -10.08976 -10.08339 -10.06936 -10.06193  -0.97069
  Beta  occ. eigenvalues --   -0.92415  -0.91210  -0.83305  -0.74493  -0.66322
  Beta  occ. eigenvalues --   -0.63265  -0.60923  -0.58359  -0.56691  -0.54855
  Beta  occ. eigenvalues --   -0.50868  -0.47945  -0.44293  -0.42967  -0.41873
  Beta  occ. eigenvalues --   -0.41355  -0.39507  -0.38707  -0.37218  -0.35777
  Beta  occ. eigenvalues --   -0.35270  -0.33895  -0.32585  -0.32556  -0.31520
  Beta  occ. eigenvalues --   -0.30982  -0.29919  -0.29571  -0.28419  -0.27986
  Beta  occ. eigenvalues --   -0.27596  -0.24853  -0.23685  -0.23232  -0.22543
  Beta  occ. eigenvalues --   -0.21821  -0.20691  -0.17912  -0.16759  -0.16446
  Beta  occ. eigenvalues --   -0.12748
  Beta virt. eigenvalues --    0.06506   0.07194   0.07640   0.07849   0.08918
  Beta virt. eigenvalues --    0.09412   0.09874   0.10103   0.10521   0.11153
  Beta virt. eigenvalues --    0.11894   0.12491   0.12553   0.12875   0.13657

 Mulliken charges and spin densities:
               1          2
     1  C    0.939737  -1.269506
     2  N    0.091960   0.128023
     3  C   -0.573106  -0.020425
     4  C    0.474522   0.008447
     5  C   -0.429827  -0.013703
     6  C   -0.237376  -0.182954
     7  C    0.088068  -0.491206
     8  O   -0.230657  -0.007068
     9  C    0.162720  -0.393556
    10  C   -1.460208   0.565015
    11  O   -0.092430   0.040664
    12  C    0.848824  -1.107463
    13  O   -0.046685   0.024195
    14  C    0.829192  -1.040994
    15  H   -0.264352   0.389570
    16  H    0.031582   0.087292
    17  H   -0.576006   0.723135
    18  H   -0.013566   0.128509
    19  H    0.003836   0.133367
    20  H    0.139563   0.064325
    21  H    0.078800   0.088742
    22  H    0.131244   0.055263
    23  H    0.016186   0.181423
    24  H   -0.063608   0.178319
    25  H    0.145103   0.013527
    26  H   -0.121444   0.383189
    27  H    0.301656  -0.119483
    28  H    0.039439   0.129457
    29  H    0.117444   0.035206
    30  H    0.002549   0.136871
    31  H   -0.237101   0.401574
    32  H   -0.408563   0.594184
    33  H   -0.128922   0.286105
    34  H   -0.477680   0.637346
    35  H   -0.080894   0.232611
 Sum of Mulliken charges =  -1.00000   1.00000

 Dipole moment (field-independent basis, Debye):
    X=              2.3643    Y=              2.5042    Z=             -5.9348  Tot=              6.8617
 Quadrupole moment (field-independent basis, Debye-Ang):
   XX=           -158.9192   YY=           -135.1065   ZZ=           -129.3312
   XY=              5.7363   XZ=              1.9549   YZ=             -0.4544

 Summary of Natural Population Analysis:

                                       Natural Population
                Natural  -----------------------------------------------
    Atom  No    Charge         Core      Valence    Rydberg      Total
 -----------------------------------------------------------------------
      C    1   -0.17328      0.99963     2.16489    0.00876     3.17328
      N    2   -0.29944      0.99972     2.78433    0.01539     3.79944
      C    3   -0.07824      0.99958     2.06767    0.01100     3.07824
      C    4   -0.11244      0.99960     2.10243    0.01041     3.11244
      C    5   -0.20418      0.99961     2.19589    0.00869     3.20418
      C    6    0.05816      0.99953     1.92829    0.01402     2.94184
      C    7   -0.19304      0.99961     2.18570    0.00774     3.19304
      O    8   -0.37234      0.99989     3.36626    0.00619     4.37234
      C    9   -0.11148      0.99958     2.09988    0.01202     3.11148
      C   10    0.22422      0.99956     1.75704    0.01918     2.77578
      O   11   -0.30186      0.99988     3.29309    0.00888     4.30186
      C   12   -0.10574      0.99959     2.09569    0.01046     3.10574
      O   13   -0.30413      0.99988     3.29487    0.00938     4.30413
      C   14   -0.10407      0.99960     2.09482    0.00965     3.10407
      H   15    0.08225      0.00000     0.41619    0.00156     0.41775
      H   16    0.09581      0.00000     0.40285    0.00135     0.40419
      H   17    0.10022      0.00000     0.39807    0.00171     0.39978
      H   18    0.09372      0.00000     0.40490    0.00137     0.40628
      H   19    0.08875      0.00000     0.40981    0.00144     0.41125
      H   20    0.09350      0.00000     0.40569    0.00080     0.40650
      H   21    0.09797      0.00000     0.40084    0.00119     0.40203
      H   22    0.11014      0.00000     0.38825    0.00161     0.38986
      H   23    0.08591      0.00000     0.41160    0.00249     0.41409
      H   24    0.09649      0.00000     0.40256    0.00095     0.40351
      H   25    0.10196      0.00000     0.39680    0.00124     0.39804
      H   26    0.23131      0.00000     0.26444    0.00425     0.26869
      H   27    0.10524      0.00000     0.39260    0.00216     0.39476
      H   28    0.09314      0.00000     0.40549    0.00137     0.40686
      H   29    0.08122      0.00000     0.41705    0.00173     0.41878
      H   30    0.08960      0.00000     0.40771    0.00269     0.41040
      H   31    0.08197      0.00000     0.41582    0.00220     0.41803
      H   32    0.09313      0.00000     0.40537    0.00149     0.40687
      H   33    0.08504      0.00000     0.41366    0.00130     0.41496
      H   34    0.08130      0.00000     0.41685    0.00185     0.41870
      H   35    0.08919      0.00000     0.40979    0.00101     0.41081
 =======================================================================
   * Total *    0.00000     13.99525    41.81721    0.18754    56.00000

 Normal termination of Gaussian 16 at Thu Dec 10 11:17:46 2020.
