 Gaussian 16, Revision A.03,

 -----------------------------------------------------------
 # opt freq B3LYP/6-31G(d) empiricaldispersion=gd3bj scf=xqc
 -----------------------------------------------------------

 ------------------------------
 CID_80193848_JID_9353_neutraal
 ------------------------------
 Symbolic Z-matrix:
 Charge =  0 Multiplicity = 1

 SCF Done:  E(RB3LYP) =  -1204.88911064     A.U. after   15 cycles
 SCF Done:  E(RB3LYP) =  -1204.89554322     A.U. after   12 cycles
 SCF Done:  E(RB3LYP) =  -1204.89628250     A.U. after   12 cycles
 SCF Done:  E(RB3LYP) =  -1204.89650834     A.U. after   11 cycles
 SCF Done:  E(RB3LYP) =  -1204.89665202     A.U. after   11 cycles
 SCF Done:  E(RB3LYP) =  -1204.89687683     A.U. after   11 cycles
 SCF Done:  E(RB3LYP) =  -1204.89715050     A.U. after   11 cycles
 SCF Done:  E(RB3LYP) =  -1204.89751550     A.U. after   12 cycles
 SCF Done:  E(RB3LYP) =  -1204.89776996     A.U. after   12 cycles
 SCF Done:  E(RB3LYP) =  -1204.89721903     A.U. after   14 cycles
 SCF Done:  E(RB3LYP) =  -1204.89940361     A.U. after    8 cycles
 SCF Done:  E(RB3LYP) =  -1204.89940380     A.U. after    7 cycles
 SCF Done:  E(RB3LYP) =  -1204.89940391     A.U. after    7 cycles
 SCF Done:  E(RB3LYP) =  -1204.89940393     A.U. after    7 cycles
 SCF Done:  E(RB3LYP) =  -1204.89940398     A.U. after    7 cycles
 SCF Done:  E(RB3LYP) =  -1204.89940402     A.U. after    7 cycles
 Optimization completed.
    -- Stationary point found.
 Normal termination of Gaussian 16 at Sun Dec 13 13:05:23 2020.

 --------------------------------------------------------------------
 #N Geom=AllCheck Guess=TCheck SCRF=Check GenChk RB3LYP/6-31G(d) Freq
 --------------------------------------------------------------------

 Structure from the checkpoint file:  "JID_9353.chk"
 ------------------------------
 CID_80193848_JID_9353_neutraal
 ------------------------------
 Charge =  0 Multiplicity = 1

 SCF Done:  E(RB3LYP) =  -1204.89940402     A.U. after    1 cycles

  Exact polarizability: 222.721  -3.265 168.981  13.370  17.267 142.526
 Approx polarizability: 287.030 -14.046 271.229  26.217  38.841 236.809

                      1                      2                      3
                      A                      A                      A
 Frequencies --     27.2168                28.6891                47.7233
 Red. masses --      3.6978                 4.0798                 3.6750
 Frc consts  --      0.0016                 0.0020                 0.0049
 IR Inten    --      0.5948                 0.2249                 0.3384

                      4                      5                      6
                      A                      A                      A
 Frequencies --     59.2133                83.4556               107.6970
 Red. masses --      2.8591                 2.8638                 2.7128
 Frc consts  --      0.0059                 0.0118                 0.0185
 IR Inten    --      2.4467                 1.6249                 1.5222

                      7                      8                      9
                      A                      A                      A
 Frequencies --    133.4138               159.5241               164.0660
 Red. masses --      1.6375                 3.4318                 3.4152
 Frc consts  --      0.0172                 0.0515                 0.0542
 IR Inten    --      1.2939                 2.2209                 3.1040

                     10                     11                     12
                      A                      A                      A
 Frequencies --    204.4727               218.3180               228.0023
 Red. masses --      2.3822                 2.8158                 1.9837
 Frc consts  --      0.0587                 0.0791                 0.0608
 IR Inten    --      1.7184                 2.8625                 2.8068

                     13                     14                     15
                      A                      A                      A
 Frequencies --    236.8255               244.3674               268.4182
 Red. masses --      1.5537                 1.7860                 1.3137
 Frc consts  --      0.0513                 0.0628                 0.0558
 IR Inten    --      4.2560                11.2388                22.1524

                     16                     17                     18
                      A                      A                      A
 Frequencies --    273.3369               292.9822               304.6722
 Red. masses --      1.6332                 6.2560                 2.6371
 Frc consts  --      0.0719                 0.3164                 0.1442
 IR Inten    --     18.4361                 1.1050                 1.6171

                     19                     20                     21
                      A                      A                      A
 Frequencies --    325.5669               350.9121               362.9396
 Red. masses --      3.3342                 2.7097                 3.6921
 Frc consts  --      0.2082                 0.1966                 0.2865
 IR Inten    --      0.5874                 2.5674                 7.1428

                     22                     23                     24
                      A                      A                      A
 Frequencies --    397.4325               399.8678               408.1408
 Red. masses --      2.4299                 2.3451                 5.3331
 Frc consts  --      0.2261                 0.2209                 0.5234
 IR Inten    --      1.4156                 1.5448                 2.0618

                     25                     26                     27
                      A                      A                      A
 Frequencies --    417.0465               454.7506               477.4274
 Red. masses --      2.0469                 3.3594                 5.2690
 Frc consts  --      0.2098                 0.4093                 0.7076
 IR Inten    --      2.1563                 6.4006                13.2160

                     28                     29                     30
                      A                      A                      A
 Frequencies --    511.0497               528.7343               555.4258
 Red. masses --      3.5855                 4.2419                 7.4918
 Frc consts  --      0.5517                 0.6987                 1.3617
 IR Inten    --      2.4824                 4.4085                29.8774

                     31                     32                     33
                      A                      A                      A
 Frequencies --    568.2207               597.8700               615.6451
 Red. masses --      4.4670                 4.9162                 5.9491
 Frc consts  --      0.8498                 1.0354                 1.3285
 IR Inten    --     66.1391                50.6525                37.5347

                     34                     35                     36
                      A                      A                      A
 Frequencies --    665.5246               731.2995               749.9577
 Red. masses --      5.2949                 2.5128                 2.3763
 Frc consts  --      1.3818                 0.7918                 0.7875
 IR Inten    --     53.2803                 6.1630                11.3180

                     37                     38                     39
                      A                      A                      A
 Frequencies --    789.8076               812.6511               816.9490
 Red. masses --      4.7377                 1.5682                 4.5118
 Frc consts  --      1.7412                 0.6102                 1.7742
 IR Inten    --      8.3699                36.5629                25.1433

                     40                     41                     42
                      A                      A                      A
 Frequencies --    847.1139               865.9305               883.7321
 Red. masses --      2.2493                 1.8668                 1.6178
 Frc consts  --      0.9510                 0.8248                 0.7444
 IR Inten    --     51.5602                 2.0935                79.1238

                     43                     44                     45
                      A                      A                      A
 Frequencies --    932.3068               942.5472               946.1286
 Red. masses --      2.0133                 2.1265                 1.3676
 Frc consts  --      1.0310                 1.1130                 0.7213
 IR Inten    --      2.2784                60.2192                 2.9481

                     46                     47                     48
                      A                      A                      A
 Frequencies --    957.4127               977.3232               987.5940
 Red. masses --      1.9777                 1.4160                 1.2958
 Frc consts  --      1.0681                 0.7969                 0.7446
 IR Inten    --     49.7023                 5.8679                 1.2567

                     49                     50                     51
                      A                      A                      A
 Frequencies --    998.0864              1019.4372              1020.5762
 Red. masses --      1.8592                 1.9205                 1.8577
 Frc consts  --      1.0912                 1.1760                 1.1400
 IR Inten    --     18.4138                47.9993                34.2964

                     52                     53                     54
                      A                      A                      A
 Frequencies --   1036.0570              1044.0039              1058.9662
 Red. masses --      1.6782                 1.7338                 2.3986
 Frc consts  --      1.0614                 1.1134                 1.5848
 IR Inten    --      6.5676                54.2593                 5.8542

                     55                     56                     57
                      A                      A                      A
 Frequencies --   1071.9454              1077.9848              1107.0935
 Red. masses --      1.5419                 1.4963                 4.1594
 Frc consts  --      1.0439                 1.0244                 3.0036
 IR Inten    --      1.5313                 0.6882               102.9062

                     58                     59                     60
                      A                      A                      A
 Frequencies --   1122.4359              1129.1163              1165.5571
 Red. masses --      2.8972                 4.2345                 1.9311
 Frc consts  --      2.1506                 3.1807                 1.5457
 IR Inten    --     12.2339                84.1591                30.1634

                     61                     62                     63
                      A                      A                      A
 Frequencies --   1195.6883              1198.3818              1219.0414
 Red. masses --      1.4970                 1.1883                 2.1707
 Frc consts  --      1.2610                 1.0055                 1.9006
 IR Inten    --      1.4392                 0.9987                 1.7288

                     64                     65                     66
                      A                      A                      A
 Frequencies --   1227.2913              1236.2800              1243.1195
 Red. masses --      1.8637                 2.0853                 1.4702
 Frc consts  --      1.6539                 1.8779                 1.3386
 IR Inten    --      2.6257                24.2504                10.8944

                     67                     68                     69
                      A                      A                      A
 Frequencies --   1256.7987              1281.0163              1283.2973
 Red. masses --      1.8523                 2.1007                 1.7850
 Frc consts  --      1.7238                 2.0311                 1.7320
 IR Inten    --      5.8423                36.3043                 6.5940

                     70                     71                     72
                      A                      A                      A
 Frequencies --   1301.0509              1313.7052              1329.1483
 Red. masses --      4.3722                 1.3688                 1.9076
 Frc consts  --      4.3605                 1.3919                 1.9855
 IR Inten    --    100.8158                12.4188                 9.9504

                     73                     74                     75
                      A                      A                      A
 Frequencies --   1342.3893              1354.4716              1386.7651
 Red. masses --      1.3191                 4.2957                 1.3884
 Frc consts  --      1.4005                 4.6433                 1.5731
 IR Inten    --      1.4176                 1.6214                 1.2656

                     76                     77                     78
                      A                      A                      A
 Frequencies --   1396.6750              1435.1662              1442.7257
 Red. masses --      1.4301                 1.2551                 1.2557
 Frc consts  --      1.6436                 1.5231                 1.5399
 IR Inten    --      3.0211                 5.7356                 7.8375

                     79                     80                     81
                      A                      A                      A
 Frequencies --   1445.9832              1457.2614              1485.0752
 Red. masses --      1.3434                 1.2210                 2.7650
 Frc consts  --      1.6549                 1.5277                 3.5929
 IR Inten    --     16.0109                 6.4913                15.7758

                     82                     83                     84
                      A                      A                      A
 Frequencies --   1501.1625              1511.0181              1515.0258
 Red. masses --      1.8931                 1.1364                 1.0724
 Frc consts  --      2.5134                 1.5287                 1.4502
 IR Inten    --      5.8411                 1.3781                 1.0142

                     85                     86                     87
                      A                      A                      A
 Frequencies --   1519.1737              1525.7317              1534.1195
 Red. masses --      1.0477                 1.0690                 1.1966
 Frc consts  --      1.4246                 1.4661                 1.6593
 IR Inten    --      0.7838                 5.0615                13.5269

                     88                     89                     90
                      A                      A                      A
 Frequencies --   1537.9979              1541.1843              1551.0608
 Red. masses --      1.0590                 1.0585                 1.0776
 Frc consts  --      1.4759                 1.4814                 1.5274
 IR Inten    --      1.2348                 6.8904                 1.6753

                     91                     92                     93
                      A                      A                      A
 Frequencies --   1560.0093              1566.0783              1631.2075
 Red. masses --      1.0848                 1.0882                 5.4002
 Frc consts  --      1.5554                 1.5724                 8.4660
 IR Inten    --      8.1492                 6.1752                 1.7666

                     94                     95                     96
                      A                      A                      A
 Frequencies --   1653.6987              1692.5229              2988.2159
 Red. masses --      5.7449                 1.0970                 1.0733
 Frc consts  --      9.2565                 1.8515                 5.6466
 IR Inten    --      1.6865                25.4714                63.4496

                     97                     98                     99
                      A                      A                      A
 Frequencies --   3039.7597              3043.0944              3048.6520
 Red. masses --      1.0521                 1.0524                 1.0406
 Frc consts  --      5.7275                 5.7419                 5.6985
 IR Inten    --      5.2862                52.8040                31.0662

                    100                    101                    102
                      A                      A                      A
 Frequencies --   3058.3087              3071.3825              3079.0045
 Red. masses --      1.0625                 1.0585                 1.0382
 Frc consts  --      5.8553                 5.8831                 5.7990
 IR Inten    --     43.2494                17.6966                12.1581

                    103                    104                    105
                      A                      A                      A
 Frequencies --   3080.0076              3105.2976              3108.4736
 Red. masses --      1.0882                 1.1016                 1.1031
 Frc consts  --      6.0820                 6.2584                 6.2802
 IR Inten    --     31.0115                10.8570                 2.6452

                    106                    107                    108
                      A                      A                      A
 Frequencies --   3109.9476              3113.7270              3119.9025
 Red. masses --      1.1024                 1.1024                 1.1064
 Frc consts  --      6.2819                 6.2970                 6.3454
 IR Inten    --     18.8084                48.8288                45.6998

                    109                    110                    111
                      A                      A                      A
 Frequencies --   3134.0610              3136.0897              3143.8490
 Red. masses --      1.1013                 1.0999                 1.0943
 Frc consts  --      6.3731                 6.3733                 6.3727
 IR Inten    --      9.4480                 1.2683                 6.0958

                    112                    113                    114
                      A                      A                      A
 Frequencies --   3167.1089              3191.2554              3210.2894
 Red. masses --      1.1006                 1.0877                 1.0936
 Frc consts  --      6.5045                 6.5265                 6.6405
 IR Inten    --     20.2049                 8.2249                19.8610

                    115                    116                    117
                      A                      A                      A
 Frequencies --   3239.9452              3459.1638              3548.8241
 Red. masses --      1.0926                 1.0493                 1.0926
 Frc consts  --      6.7573                 7.3979                 8.1075
 IR Inten    --      3.6653                 2.8340                 1.7173

 - Thermochemistry -
 -------------------
 Temperature   298.150 Kelvin.  Pressure   1.00000 Atm.
 Atom     1 has atomic number  6 and mass  12.00000

 Molecular mass:   282.14020 amu.
 Principal axes and moments of inertia in atomic units:
                           1         2         3
     Eigenvalues --  2764.934278533.123489382.39415
           X            0.99998   0.00026  -0.00613
           Y            0.00006   0.99866   0.05180
           Z            0.00614  -0.05180   0.99864
 This molecule is an asymmetric top.
 Rotational symmetry number  1.
 Warning -- assumption of classical behavior for rotation
           may cause significant error
 Rotational temperatures (Kelvin)      0.03133     0.01015     0.00923
 Rotational constants (GHZ):           0.65272     0.21150     0.19235
 Zero-point vibrational energy     925183.8 (Joules/Mol)
                                  221.12422 (Kcal/Mol)
 Warning -- explicit consideration of  33 degrees of freedom as
           vibrations may cause significant error
 Vibrational temperatures:     39.16    41.28    68.66    85.19   120.07
          (Kelvin)            154.95   191.95   229.52   236.05   294.19
                              314.11   328.04   340.74   351.59   386.19
                              393.27   421.54   438.36   468.42   504.88
                              522.19   571.82   575.32   587.22   600.04
                              654.28   686.91   735.29   760.73   799.13
                              817.54   860.20   885.78   957.54  1052.18
                             1079.02  1136.36  1169.22  1175.41  1218.81
                             1245.88  1271.49  1341.38  1356.12  1361.27
                             1377.50  1406.15  1420.93  1436.02  1466.74
                             1468.38  1490.65  1502.09  1523.62  1542.29
                             1550.98  1592.86  1614.93  1624.55  1676.98
                             1720.33  1724.20  1753.93  1765.80  1778.73
                             1788.57  1808.25  1843.10  1846.38  1871.92
                             1890.13  1912.35  1931.40  1948.78  1995.25
                             2009.50  2064.88  2075.76  2080.45  2096.67
                             2136.69  2159.84  2174.02  2179.78  2185.75
                             2195.19  2207.26  2212.84  2217.42  2231.63
                             2244.51  2253.24  2346.94  2379.30  2435.16
                             4299.38  4373.54  4378.33  4386.33  4400.22
                             4419.03  4430.00  4431.44  4467.83  4472.40
                             4474.52  4479.96  4488.84  4509.21  4512.13
                             4523.30  4556.76  4591.50  4618.89  4661.56
                             4976.97  5105.97

 Zero-point correction=                           0.352384 (Hartree/Particle)
 Thermal correction to Energy=                    0.371935
 Thermal correction to Enthalpy=                  0.372879
 Thermal correction to Gibbs Free Energy=         0.304131
 Sum of electronic and zero-point Energies=          -1204.547020
 Sum of electronic and thermal Energies=             -1204.527469
 Sum of electronic and thermal Enthalpies=           -1204.526525
 Sum of electronic and thermal Free Energies=        -1204.595273

                     E (Thermal)             CV                S
                      KCal/Mol        Cal/Mol-Kelvin    Cal/Mol-Kelvin
 Total                  233.393             75.271            144.692
 Electronic               0.000              0.000              0.000
 Translational            0.889              2.981             42.810
 Rotational               0.889              2.981             33.759
 Vibrational            231.615             69.310             68.124
 Vibration     1          0.593              1.984              6.023
 Vibration     2          0.593              1.984              5.918
 Vibration     3          0.595              1.978              4.910
 Vibration     4          0.597              1.974              4.483
 Vibration     5          0.600              1.961              3.808
 Vibration     6          0.606              1.943              3.310
 Vibration     7          0.613              1.920              2.896
 Vibration     8          0.621              1.892              2.555
 Vibration     9          0.623              1.887              2.502
 Vibration    10          0.640              1.834              2.092
 Vibration    11          0.646              1.813              1.973
 Vibration    12          0.651              1.798              1.895
 Vibration    13          0.656              1.784              1.827
 Vibration    14          0.660              1.772              1.771
 Vibration    15          0.673              1.731              1.606
 Vibration    16          0.676              1.723              1.575
 Vibration    17          0.688              1.687              1.457
 Vibration    18          0.696              1.665              1.391
 Vibration    19          0.710              1.624              1.282
 Vibration    20          0.728              1.573              1.162
 Vibration    21          0.737              1.549              1.109
 Vibration    22          0.764              1.476              0.972
 Vibration    23          0.766              1.470              0.963
 Vibration    24          0.773              1.453              0.933
 Vibration    25          0.780              1.433              0.902
 Vibration    26          0.813              1.350              0.782
 Vibration    27          0.834              1.300              0.717
 Vibration    28          0.866              1.226              0.631
 Vibration    29          0.884              1.186              0.590
 Vibration    30          0.911              1.128              0.533
 Vibration    31          0.924              1.100              0.508
 Vibration    32          0.956              1.036              0.453
 Vibration    33          0.975              0.999              0.424

                           ! Non-Optimized Parameters !
 Normal termination of Gaussian 16 at Sun Dec 13 13:28:49 2020.

 ----------------------------------------------------------------------
 # B3LYP/6-311++G(d,p) empiricaldispersion=gd3bj scf=xqc pop=npa geom=c
 heck
 ----------------------------------------------------------------------

 --------------------------------------
 CID_80193848_JID_9353_Energie_neutraal
 --------------------------------------
 Structure from the checkpoint file:  "JID_9353.chk"
 Charge =  0 Multiplicity = 1

 SCF Done:  E(RB3LYP) =  -1205.15253440     A.U. after   16 cycles
 Normal termination of Gaussian 16 at Sun Dec 13 13:40:42 2020.

 ----------------------------------------------------------------------
 # B3LYP/6-311++G(d,p) empiricaldispersion=gd3bj scf=xqc pop=npa geom=c
 heck
 ----------------------------------------------------------------------

 ------------------------------------
 CID_80193848_JID_9353_Energie_kation
 ------------------------------------
 Structure from the checkpoint file:  "JID_9353.chk"
 Charge =  1 Multiplicity = 2

 SCF Done:  E(UB3LYP) =  -1204.84405228     A.U. after   31 cycles
 Normal termination of Gaussian 16 at Sun Dec 13 14:12:56 2020.
 Gaussian 16:  ES64L-G16RevA.03 25-Dec-2016

 ----------------------------------------------------------------------
 # B3LYP/6-311++G(d,p) empiricaldispersion=gd3bj scf=xqc pop=npa geom=c
 heck
 ----------------------------------------------------------------------

 -----------------------------------
 CID_80193848_JID_9353_Energie_anion
 -----------------------------------
 Structure from the checkpoint file:  "JID_9353.chk"
 Charge = -1 Multiplicity = 2

                         Standard orientation:
 ---------------------------------------------------------------------
 Center     Atomic      Atomic             Coordinates (Angstroms)
 Number     Number       Type             X           Y           Z
 ---------------------------------------------------------------------
      1          6           0       -1.502273    1.316917    1.371109
      2          6           0       -2.017693    0.207166    0.484430
      3          6           0       -3.327763    0.221706   -0.034462
      4          6           0       -3.758882   -0.809878   -0.877266
      5          6           0       -2.932905   -1.879317   -1.204141
      6          6           0       -1.642138   -1.924397   -0.686141
      7          6           0       -1.200940   -0.889365    0.137312
      8         16           0        0.475592   -1.045727    0.761798
      9          8           0        0.517756   -0.788896    2.206484
     10          8           0        1.011734   -2.317986    0.247009
     11          7           0        1.215949    0.273634    0.020086
     12          6           0        1.459793    0.145374   -1.440904
     13          6           0        2.777424    0.900947   -1.656441
     14          6           0        3.552350    0.711638   -0.333475
     15          6           0        2.409938    0.848951    0.691533
     16          6           0        4.164017   -0.696708   -0.255057
     17          6           0        4.631495    1.777154   -0.131628
     18          6           0       -4.287627    1.354060    0.265922
     19          7           0       -4.075068    2.468624   -0.672077
     20          1           0       -0.550618    1.694533    0.986281
     21          1           0       -2.203856    2.149255    1.432696
     22          1           0       -1.305057    0.948285    2.381666
     23          1           0       -4.767526   -0.763991   -1.278643
     24          1           0       -3.289352   -2.673738   -1.852552
     25          1           0       -0.969032   -2.743847   -0.907957
     26          1           0        1.556333   -0.908832   -1.719482
     27          1           0        0.622367    0.574343   -1.998982
     28          1           0        2.578371    1.967348   -1.817910
     29          1           0        3.326543    0.527609   -2.526600
     30          1           0        2.608237    0.341322    1.636999
     31          1           0        2.207486    1.904435    0.914054
     32          1           0        3.400422   -1.478692   -0.311591
     33          1           0        4.879673   -0.853458   -1.070658
     34          1           0        4.699376   -0.828627    0.692239
     35          1           0        5.408428    1.694406   -0.900319
     36          1           0        4.208814    2.787435   -0.185790
     37          1           0        5.118360    1.665269    0.844289
     38          1           0       -5.311753    0.994504    0.118180
     39          1           0       -4.209450    1.634800    1.328607
     40          1           0       -4.672986    3.251789   -0.410269
     41          1           0       -3.115136    2.801249   -0.591780
 ---------------------------------------------------------------------

 SCF Done:  E(UB3LYP) =  -1205.15072465     A.U. after   32 cycles

 The electronic state is 2-A.
 Alpha  occ. eigenvalues --  -88.94716 -19.00400 -19.00371 -14.23534 -14.19494
 Alpha  occ. eigenvalues --  -10.10872 -10.10626 -10.09817 -10.09528 -10.08647
 Alpha  occ. eigenvalues --  -10.08296 -10.08238 -10.07489 -10.07013 -10.06737
 Alpha  occ. eigenvalues --  -10.06562 -10.06470 -10.05773 -10.05603  -8.00871
 Alpha  occ. eigenvalues --   -5.97166  -5.97133  -5.96938  -1.00515  -0.89462
 Alpha  occ. eigenvalues --   -0.84369  -0.78845  -0.75406  -0.72785  -0.67116
 Alpha  occ. eigenvalues --   -0.66400  -0.65488  -0.61170  -0.60117  -0.59000
 Alpha  occ. eigenvalues --   -0.55775  -0.55218  -0.51016  -0.47328  -0.46429
 Alpha  occ. eigenvalues --   -0.46171  -0.43015  -0.40336  -0.39440  -0.38642
 Alpha  occ. eigenvalues --   -0.37764  -0.36814  -0.36502  -0.35685  -0.35210
 Alpha  occ. eigenvalues --   -0.34169  -0.32606  -0.31896  -0.31643  -0.31245
 Alpha  occ. eigenvalues --   -0.30309  -0.30197  -0.29965  -0.28841  -0.28755
 Alpha  occ. eigenvalues --   -0.27949  -0.27548  -0.25668  -0.25559  -0.24640
 Alpha  occ. eigenvalues --   -0.24031  -0.23758  -0.23482  -0.23178  -0.21176
 Alpha  occ. eigenvalues --   -0.19693  -0.19357  -0.15946  -0.14853  -0.14336
 Alpha  occ. eigenvalues --   -0.14206   0.03794
 Alpha virt. eigenvalues --    0.05606   0.06298   0.07586   0.07876   0.08139
 Alpha virt. eigenvalues --    0.08614   0.09052   0.09531   0.09621   0.10082
 Alpha virt. eigenvalues --    0.10543   0.10727   0.11489   0.11833   0.12371

  Beta  occ. eigenvalues --  -88.94709 -19.00387 -19.00336 -14.23520 -14.19452
  Beta  occ. eigenvalues --  -10.10869 -10.10589 -10.09816 -10.09519 -10.08620
  Beta  occ. eigenvalues --  -10.08222 -10.08151 -10.07461 -10.07008 -10.06724
  Beta  occ. eigenvalues --  -10.06605 -10.06342 -10.05761 -10.05348  -8.00863
  Beta  occ. eigenvalues --   -5.97156  -5.97111  -5.96935  -1.00432  -0.89401
  Beta  occ. eigenvalues --   -0.84326  -0.78743  -0.75191  -0.72747  -0.66938
  Beta  occ. eigenvalues --   -0.66147  -0.65420  -0.61070  -0.60082  -0.58907
  Beta  occ. eigenvalues --   -0.55563  -0.55147  -0.50791  -0.47253  -0.46330
  Beta  occ. eigenvalues --   -0.46115  -0.42925  -0.40265  -0.39386  -0.38546
  Beta  occ. eigenvalues --   -0.37678  -0.36762  -0.36416  -0.35626  -0.35154
  Beta  occ. eigenvalues --   -0.34090  -0.32565  -0.31824  -0.31528  -0.31205
  Beta  occ. eigenvalues --   -0.30278  -0.30162  -0.29908  -0.28804  -0.28687
  Beta  occ. eigenvalues --   -0.27895  -0.27514  -0.25532  -0.25282  -0.24337
  Beta  occ. eigenvalues --   -0.24003  -0.23718  -0.23403  -0.23122  -0.21140
  Beta  occ. eigenvalues --   -0.19583  -0.19267  -0.15373  -0.14751  -0.13827
  Beta  occ. eigenvalues --   -0.13724
  Beta virt. eigenvalues --    0.05858   0.06589   0.07626   0.07918   0.08150
  Beta virt. eigenvalues --    0.08299   0.08767   0.09209   0.09715   0.09818
  Beta virt. eigenvalues --    0.10160   0.10682   0.10770   0.11536   0.11883

 Mulliken charges and spin densities:
               1          2
     1  C   -0.477014  -0.340044
     2  C   -0.140555   0.259451
     3  C    0.501613   0.194990
     4  C   -0.529651   0.125649
     5  C   -0.407294  -0.013304
     6  C   -0.009415   0.260395
     7  C   -0.584987   0.165159
     8  S    0.998398  -0.425858
     9  O   -0.181957  -0.013478
    10  O   -0.011220   0.011266
    11  N   -0.108294   0.072954
    12  C   -0.741638   0.391762
    13  C    0.593397  -1.181801
    14  C   -0.944806   1.575315
    15  C   -0.037304  -0.592338
    16  C   -0.230266  -0.338504
    17  C    0.527784  -1.074981
    18  C   -0.053463  -0.652676
    19  N   -0.314772   0.001768
    20  H    0.290115  -0.043405
    21  H   -0.131467   0.258969
    22  H    0.142084   0.075954
    23  H    0.082325   0.008882
    24  H    0.125151   0.019003
    25  H    0.177745   0.024068
    26  H    0.140049   0.069179
    27  H    0.087075   0.083960
    28  H   -0.048448   0.214714
    29  H    0.019850   0.155398
    30  H    0.199337   0.004418
    31  H   -0.024363   0.190747
    32  H    0.234321  -0.030305
    33  H    0.008324   0.132676
    34  H    0.051829   0.077113
    35  H   -0.153069   0.297824
    36  H   -0.088378   0.226995
    37  H   -0.020057   0.161241
    38  H   -0.024388   0.180404
    39  H    0.050376   0.058559
    40  H   -0.088012   0.308053
    41  H    0.121047   0.099828
 Sum of Mulliken charges =  -1.00000   1.00000

 Dipole moment (field-independent basis, Debye):
    X=              1.4716    Y=             -1.3316    Z=             -0.6270  Tot=              2.0813
 Quadrupole moment (field-independent basis, Debye-Ang):
   XX=           -198.9307   YY=           -165.0267   ZZ=           -152.9985
   XY=              6.9261   XZ=             -1.6657   YZ=              7.6705

 Summary of Natural Population Analysis:

                                       Natural Population
                Natural  -----------------------------------------------
    Atom  No    Charge         Core      Valence    Rydberg      Total
 -----------------------------------------------------------------------
      C    1   -0.30649      0.99962     2.30026    0.00661     3.30649
      C    2    0.00427      0.99943     1.98619    0.01011     2.99573
      C    3   -0.02578      0.99946     2.01559    0.01073     3.02578
      C    4   -0.03694      0.99952     2.02883    0.00859     3.03694
      C    5   -0.11913      0.99956     2.10954    0.01002     3.11913
      C    6   -0.06899      0.99951     2.06019    0.00929     3.06899
      C    7   -0.11902      0.99932     2.10454    0.01516     3.11902
      S    8    1.12069      4.99911     1.78202    0.09818     6.87931
      O    9   -0.46619      0.99990     3.46103    0.00526     4.46619
      O   10   -0.47412      0.99991     3.46897    0.00524     4.47412
      N   11   -0.38197      0.99974     2.86895    0.01328     3.88197
      C   12   -0.09003      0.99962     2.07929    0.01113     3.09003
      C   13   -0.19149      0.99959     2.18270    0.00920     3.19149
      C   14   -0.05267      0.99957     2.04186    0.01123     3.05267
      C   15   -0.07929      0.99956     2.06678    0.01295     3.07929
      C   16   -0.29012      0.99962     2.28440    0.00609     3.29012
      C   17   -0.28349      0.99962     2.27702    0.00685     3.28349
      C   18   -0.09665      0.99959     2.08473    0.01233     3.09665
      N   19   -0.41784      0.99977     2.90772    0.01036     3.91784
      H   20    0.11276      0.00000     0.38601    0.00123     0.38724
      H   21    0.09849      0.00000     0.40052    0.00098     0.40151
      H   22    0.11652      0.00000     0.38245    0.00103     0.38348
      H   23    0.09356      0.00000     0.40550    0.00093     0.40644
      H   24    0.09682      0.00000     0.40237    0.00081     0.40318
      H   25    0.11241      0.00000     0.38650    0.00109     0.38759
      H   26    0.10274      0.00000     0.39599    0.00127     0.39726
      H   27    0.10161      0.00000     0.39742    0.00097     0.39839
      H   28    0.10005      0.00000     0.39886    0.00109     0.39995
      H   29    0.10381      0.00000     0.39539    0.00081     0.39619
      H   30    0.11100      0.00000     0.38770    0.00130     0.38900
      H   31    0.09407      0.00000     0.40476    0.00118     0.40593
      H   32    0.11281      0.00000     0.38603    0.00116     0.38719
      H   33    0.09733      0.00000     0.40188    0.00079     0.40267
      H   34    0.09883      0.00000     0.40034    0.00083     0.40117
      H   35    0.10123      0.00000     0.39779    0.00098     0.39877
      H   36    0.10067      0.00000     0.39835    0.00098     0.39933
      H   37    0.09971      0.00000     0.39947    0.00082     0.40029
      H   38    0.09233      0.00000     0.40640    0.00127     0.40767
      H   39    0.08261      0.00000     0.41592    0.00147     0.41739
      H   40    0.17222      0.00000     0.32528    0.00250     0.32778
      H   41    0.17367      0.00000     0.32449    0.00184     0.32633
 =======================================================================
   * Total *    0.00000     22.99204    52.71001    0.29796    76.00000

 Normal termination of Gaussian 16 at Sun Dec 13 14:46:11 2020.
