 Gaussian 16, Revision A.03,

 -----------------------------------------------------------
 # opt freq B3LYP/6-31G(d) empiricaldispersion=gd3bj scf=xqc
 -----------------------------------------------------------

 ------------------------------
 CID_68134921_JID_9061_neutraal
 ------------------------------
 Symbolic Z-matrix:
 Charge =  0 Multiplicity = 1

 SCF Done:  E(RB3LYP) =  -1135.68899770     A.U. after   16 cycles
 SCF Done:  E(RB3LYP) =  -1135.56465713     A.U. after   15 cycles
 SCF Done:  E(RB3LYP) =  -1135.69154304     A.U. after   13 cycles
 SCF Done:  E(RB3LYP) =  -1135.69362089     A.U. after   12 cycles
 SCF Done:  E(RB3LYP) =  -1135.69406708     A.U. after   11 cycles
 SCF Done:  E(RB3LYP) =  -1135.69331055     A.U. after   13 cycles
 SCF Done:  E(RB3LYP) =  -1135.69452004     A.U. after   11 cycles
 SCF Done:  E(RB3LYP) =  -1135.69463491     A.U. after   12 cycles
 SCF Done:  E(RB3LYP) =  -1135.69487928     A.U. after   12 cycles
 SCF Done:  E(RB3LYP) =  -1135.69504460     A.U. after   12 cycles
 SCF Done:  E(RB3LYP) =  -1135.69520287     A.U. after    8 cycles
 SCF Done:  E(RB3LYP) =  -1135.69520391     A.U. after    8 cycles
 SCF Done:  E(RB3LYP) =  -1135.69520401     A.U. after    8 cycles
 SCF Done:  E(RB3LYP) =  -1135.69520403     A.U. after    7 cycles
 SCF Done:  E(RB3LYP) =  -1135.69520403     A.U. after    6 cycles
 Optimization completed.
    -- Stationary point found.
 Normal termination of Gaussian 16 at Sun Dec 13 21:11:40 2020.

 --------------------------------------------------------------------
 #N Geom=AllCheck Guess=TCheck SCRF=Check GenChk RB3LYP/6-31G(d) Freq
 --------------------------------------------------------------------

 Structure from the checkpoint file:  "JID_9061.chk"
 ------------------------------
 CID_68134921_JID_9061_neutraal
 ------------------------------
 Charge =  0 Multiplicity = 1

 SCF Done:  E(RB3LYP) =  -1135.69520403     A.U. after    1 cycles

  Exact polarizability: 208.021 -10.300 210.894 -16.764  -8.938 167.070
 Approx polarizability: 297.768 -23.347 311.006 -40.414 -22.505 295.698

                      1                      2                      3
                      A                      A                      A
 Frequencies --     17.0800                30.3274                36.4605
 Red. masses --      2.2192                 2.4411                 2.2452
 Frc consts  --      0.0004                 0.0013                 0.0018
 IR Inten    --      0.1242                 0.2628                 0.8580

                      4                      5                      6
                      A                      A                      A
 Frequencies --     40.1498                60.3423                71.3797
 Red. masses --      2.1680                 3.3814                 4.0866
 Frc consts  --      0.0021                 0.0073                 0.0123
 IR Inten    --      0.1594                 0.0875                 0.6385

                      7                      8                      9
                      A                      A                      A
 Frequencies --     83.4399                93.3252               124.8278
 Red. masses --      3.2262                 3.3429                 2.4858
 Frc consts  --      0.0132                 0.0172                 0.0228
 IR Inten    --      1.5981                 0.2411                 0.6919

                     10                     11                     12
                      A                      A                      A
 Frequencies --    142.4685               152.4114               161.6010
 Red. masses --      1.6241                 1.2025                 2.2226
 Frc consts  --      0.0194                 0.0165                 0.0342
 IR Inten    --      0.1903                 0.0277                 0.9373

                     13                     14                     15
                      A                      A                      A
 Frequencies --    169.7977               180.4420               199.0358
 Red. masses --      3.4246                 1.1729                 3.5754
 Frc consts  --      0.0582                 0.0225                 0.0835
 IR Inten    --      5.4951                 1.0947                 1.7081

                     16                     17                     18
                      A                      A                      A
 Frequencies --    219.4946               252.7044               271.6995
 Red. masses --      2.8942                 3.7266                 2.5517
 Frc consts  --      0.0822                 0.1402                 0.1110
 IR Inten    --      2.6036                 1.6139                 0.8955

                     19                     20                     21
                      A                      A                      A
 Frequencies --    279.3303               301.4506               324.9412
 Red. masses --      3.2291                 2.8058                 3.7996
 Frc consts  --      0.1484                 0.1502                 0.2364
 IR Inten    --      4.8219                 0.8390                 3.6356

                     22                     23                     24
                      A                      A                      A
 Frequencies --    331.4972               357.2558               370.3710
 Red. masses --      3.1443                 3.4008                 3.6630
 Frc consts  --      0.2036                 0.2557                 0.2960
 IR Inten    --      0.4710                 4.7004                 1.8690

                     25                     26                     27
                      A                      A                      A
 Frequencies --    399.3783               414.0242               418.3257
 Red. masses --      2.0787                 2.5471                 2.6219
 Frc consts  --      0.1953                 0.2572                 0.2703
 IR Inten    --      0.4585                 1.6522                 0.6389

                     28                     29                     30
                      A                      A                      A
 Frequencies --    466.2043               500.8808               510.5371
 Red. masses --      5.6942                 3.0608                 2.7833
 Frc consts  --      0.7292                 0.4524                 0.4274
 IR Inten    --     12.9103                 9.0296                13.9370

                     31                     32                     33
                      A                      A                      A
 Frequencies --    528.7181               538.8074               602.2555
 Red. masses --      2.7862                 3.0962                 2.3041
 Frc consts  --      0.4589                 0.5296                 0.4924
 IR Inten    --      3.9375                 7.0291                 8.1074

                     34                     35                     36
                      A                      A                      A
 Frequencies --    621.1355               651.7352               704.9635
 Red. masses --      5.2200                 6.8891                 4.6639
 Frc consts  --      1.1866                 1.7241                 1.3656
 IR Inten    --      8.8634                 0.4382                12.7166

                     37                     38                     39
                      A                      A                      A
 Frequencies --    715.0325               748.9923               792.3353
 Red. masses --      3.7448                 2.9365                 2.2470
 Frc consts  --      1.1281                 0.9706                 0.8311
 IR Inten    --      1.6351                 0.6145                 2.5342

                     40                     41                     42
                      A                      A                      A
 Frequencies --    816.5869               820.0107               841.6318
 Red. masses --      4.8807                 1.3346                 1.1879
 Frc consts  --      1.9175                 0.5288                 0.4958
 IR Inten    --      0.6378                34.4427                17.4858

                     43                     44                     45
                      A                      A                      A
 Frequencies --    857.0357               863.2327               917.8331
 Red. masses --      1.4297                 1.3139                 1.8148
 Frc consts  --      0.6187                 0.5769                 0.9007
 IR Inten    --      5.2091                 5.4046                 5.5961

                     46                     47                     48
                      A                      A                      A
 Frequencies --    926.4390               943.3669               959.4621
 Red. masses --      1.6091                 1.8206                 1.3170
 Frc consts  --      0.8137                 0.9546                 0.7143
 IR Inten    --      8.6621                12.7570                 1.1758

                     49                     50                     51
                      A                      A                      A
 Frequencies --    982.3336               985.7139              1010.8510
 Red. masses --      1.3101                 1.6777                 1.9327
 Frc consts  --      0.7448                 0.9604                 1.1636
 IR Inten    --      0.4068                 4.4681                 3.5452

                     52                     53                     54
                      A                      A                      A
 Frequencies --   1019.3771              1039.7013              1047.7883
 Red. masses --      1.4758                 3.3111                 1.8727
 Frc consts  --      0.9035                 2.1088                 1.2114
 IR Inten    --      1.9842                 5.8629                 6.3215

                     55                     56                     57
                      A                      A                      A
 Frequencies --   1066.2498              1067.2059              1074.0946
 Red. masses --      7.0830                 1.5659                 1.5526
 Frc consts  --      4.7444                 1.0508                 1.0554
 IR Inten    --    124.0741                 6.9800                 1.8156

                     58                     59                     60
                      A                      A                      A
 Frequencies --   1076.9213              1084.5095              1089.4235
 Red. masses --      1.5452                 1.5441                 1.8513
 Frc consts  --      1.0559                 1.0700                 1.2945
 IR Inten    --      8.1234                 1.7572                 3.2213

                     61                     62                     63
                      A                      A                      A
 Frequencies --   1104.3411              1106.1048              1136.6669
 Red. masses --      3.3696                 2.0570                 2.4133
 Frc consts  --      2.4212                 1.4828                 1.8370
 IR Inten    --     23.0243                 8.2725                 3.5960

                     64                     65                     66
                      A                      A                      A
 Frequencies --   1145.4800              1156.0082              1200.8817
 Red. masses --      1.3192                 1.1920                 1.4645
 Frc consts  --      1.0199                 0.9385                 1.2443
 IR Inten    --      2.6283                 2.2904                 1.3554

                     67                     68                     69
                      A                      A                      A
 Frequencies --   1213.5416              1222.9828              1242.2182
 Red. masses --      1.1848                 1.7295                 2.9455
 Frc consts  --      1.0280                 1.5241                 2.6780
 IR Inten    --      2.2806                 6.0592                 2.9638

                     70                     71                     72
                      A                      A                      A
 Frequencies --   1254.6739              1269.3368              1282.8985
 Red. masses --      1.3168                 1.7249                 1.3284
 Frc consts  --      1.2213                 1.6375                 1.2882
 IR Inten    --      4.6842                 7.6699                 0.9824

                     73                     74                     75
                      A                      A                      A
 Frequencies --   1338.2384              1355.4014              1359.6460
 Red. masses --      1.3399                 6.8957                 1.2660
 Frc consts  --      1.4138                 7.4639                 1.3789
 IR Inten    --      1.4736                 0.3224                 5.4748

                     76                     77                     78
                      A                      A                      A
 Frequencies --   1378.1356              1406.6167              1414.3961
 Red. masses --      1.3437                 1.4902                 1.3241
 Frc consts  --      1.5036                 1.7372                 1.5606
 IR Inten    --      1.8530                 3.0231                 0.3825

                     79                     80                     81
                      A                      A                      A
 Frequencies --   1441.6510              1443.4325              1445.2172
 Red. masses --      1.2507                 1.4098                 1.7718
 Frc consts  --      1.5315                 1.7306                 2.1804
 IR Inten    --      2.0391                 4.0428                 6.3147

                     82                     83                     84
                      A                      A                      A
 Frequencies --   1447.1789              1449.2606              1485.5801
 Red. masses --      1.4573                 1.3379                 1.1110
 Frc consts  --      1.7982                 1.6557                 1.4447
 IR Inten    --      1.7592                 9.3817                 5.8134

                     85                     86                     87
                      A                      A                      A
 Frequencies --   1505.0827              1508.0360              1508.8115
 Red. masses --      1.0645                 1.0505                 1.0501
 Frc consts  --      1.4208                 1.4076                 1.4085
 IR Inten    --      2.1807                 5.5814                 0.3755

                     88                     89                     90
                      A                      A                      A
 Frequencies --   1513.5543              1516.8227              1521.6065
 Red. masses --      1.0561                 1.0514                 1.0875
 Frc consts  --      1.4254                 1.4253                 1.4835
 IR Inten    --      5.1087                 5.0307                 6.2220

                     91                     92                     93
                      A                      A                      A
 Frequencies --   1522.7180              1525.8173              1531.6566
 Red. masses --      1.0940                 1.0660                 1.0698
 Frc consts  --      1.4946                 1.4622                 1.4787
 IR Inten    --      8.8859                 3.2939                 8.3928

                     94                     95                     96
                      A                      A                      A
 Frequencies --   1538.7475              1544.5217              1632.7720
 Red. masses --      1.0809                 2.3085                 6.0271
 Frc consts  --      1.5078                 3.2447                 9.4670
 IR Inten    --      8.8552                10.7719                 0.0047

                     97                     98                     99
                      A                      A                      A
 Frequencies --   1659.2990              1741.4363              1755.7725
 Red. masses --      5.6006                 6.5278                 6.3062
 Frc consts  --      9.0852                11.6635                11.4540
 IR Inten    --      4.8119                 9.4738                 0.4109

                    100                    101                    102
                      A                      A                      A
 Frequencies --   3025.1860              3029.2841              3037.0429
 Red. masses --      1.0487                 1.0590                 1.0436
 Frc consts  --      5.6549                 5.7254                 5.6714
 IR Inten    --     12.3572                33.0531                31.6620

                    103                    104                    105
                      A                      A                      A
 Frequencies --   3037.5357              3043.0646              3044.7438
 Red. masses --      1.0536                 1.0592                 1.0394
 Frc consts  --      5.7274                 5.7788                 5.6775
 IR Inten    --     25.0658                60.5847                24.4737

                    106                    107                    108
                      A                      A                      A
 Frequencies --   3050.5206              3070.1533              3075.5924
 Red. masses --      1.0650                 1.0990                 1.0992
 Frc consts  --      5.8393                 6.1035                 6.1261
 IR Inten    --     16.0382                28.3648                20.3064

                    109                    110                    111
                      A                      A                      A
 Frequencies --   3082.6878              3099.8947              3109.1514
 Red. masses --      1.1020                 1.0979                 1.0935
 Frc consts  --      6.1701                 6.2159                 6.2281
 IR Inten    --     27.9014                22.5394                24.0711

                    112                    113                    114
                      A                      A                      A
 Frequencies --   3113.3336              3122.5100              3129.8882
 Red. masses --      1.0826                 1.0984                 1.0940
 Frc consts  --      6.1827                 6.3097                 6.3144
 IR Inten    --     14.8133                10.0910                 0.6057

                    115                    116                    117
                      A                      A                      A
 Frequencies --   3131.0245              3132.6489              3138.6517
 Red. masses --      1.1017                 1.0881                 1.0904
 Frc consts  --      6.3633                 6.2914                 6.3289
 IR Inten    --     13.6005                39.1938                16.7465

                    118                    119                    120
                      A                      A                      A
 Frequencies --   3155.1432              3169.9162              3179.8078
 Red. masses --      1.1016                 1.0937                 1.0874
 Frc consts  --      6.4613                 6.4751                 6.4781
 IR Inten    --      8.7573                18.8136                 8.1680

                    121                    122                    123
                      A                      A                      A
 Frequencies --   3184.8958              3199.7730              3209.9652
 Red. masses --      1.0887                 1.0937                 1.0923
 Frc consts  --      6.5068                 6.5976                 6.6313
 IR Inten    --     16.4248                11.0076                 5.0518

 - Thermochemistry -
 -------------------
 Temperature   298.150 Kelvin.  Pressure   1.00000 Atm.
 Atom     1 has atomic number  6 and mass  12.00000

 Molecular mass:   276.15479 amu.
 Principal axes and moments of inertia in atomic units:
                           1         2         3
     Eigenvalues --  4374.429966720.550839538.79300
           X            0.99951   0.03112  -0.00201
           Y           -0.03112   0.99952  -0.00060
           Z            0.00199   0.00066   1.00000
 This molecule is an asymmetric top.
 Rotational symmetry number  1.
 Warning -- assumption of classical behavior for rotation
           may cause significant error
 Rotational temperatures (Kelvin)      0.01980     0.01289     0.00908
 Rotational constants (GHZ):           0.41257     0.26854     0.18920
 Zero-point vibrational energy     973604.1 (Joules/Mol)
                                  232.69695 (Kcal/Mol)
 Warning -- explicit consideration of  33 degrees of freedom as
           vibrations may cause significant error
 Vibrational temperatures:     24.57    43.63    52.46    57.77    86.82
          (Kelvin)            102.70   120.05   134.27   179.60   204.98
                              219.29   232.51   244.30   259.62   286.37
                              315.80   363.59   390.92   401.89   433.72
                              467.52   476.95   514.01   532.88   574.62
                              595.69   601.88   670.76   720.66   734.55
                              760.71   775.22   866.51   893.68   937.70
                             1014.29  1028.77  1077.63  1139.99  1174.89
                             1179.81  1210.92  1233.08  1242.00  1320.56
                             1332.94  1357.29  1380.45  1413.36  1418.22
                             1454.39  1466.66  1495.90  1507.53  1534.10
                             1535.47  1545.38  1549.45  1560.37  1567.44
                             1588.90  1591.44  1635.41  1648.09  1663.24
                             1727.80  1746.02  1759.60  1787.27  1805.20
                             1826.29  1845.80  1925.43  1950.12  1956.23
                             1982.83  2023.81  2035.00  2074.21  2076.78
                             2079.35  2082.17  2085.16  2137.42  2165.48
                             2169.73  2170.84  2177.67  2182.37  2189.25
                             2190.85  2195.31  2203.71  2213.91  2222.22
                             2349.19  2387.36  2505.54  2526.17  4352.57
                             4358.46  4369.63  4370.34  4378.29  4380.71
                             4389.02  4417.27  4425.09  4435.30  4460.06
                             4473.38  4479.39  4492.60  4503.21  4504.85
                             4507.18  4515.82  4539.55  4560.80  4575.03
                             4582.35  4603.76  4618.42

 Zero-point correction=                           0.370826 (Hartree/Particle)
 Thermal correction to Energy=                    0.392530
 Thermal correction to Enthalpy=                  0.393474
 Thermal correction to Gibbs Free Energy=         0.318205
 Sum of electronic and zero-point Energies=          -1135.324378
 Sum of electronic and thermal Energies=             -1135.302674
 Sum of electronic and thermal Enthalpies=           -1135.301730
 Sum of electronic and thermal Free Energies=        -1135.376999

                     E (Thermal)             CV                S
                      KCal/Mol        Cal/Mol-Kelvin    Cal/Mol-Kelvin
 Total                  246.316             79.842            158.416
 Electronic               0.000              0.000              0.000
 Translational            0.889              2.981             42.746
 Rotational               0.889              2.981             33.994
 Vibrational            244.539             73.880             81.677
 Vibration     1          0.593              1.986              6.948
 Vibration     2          0.594              1.984              5.808
 Vibration     3          0.594              1.982              5.443
 Vibration     4          0.594              1.981              5.252
 Vibration     5          0.597              1.973              4.446
 Vibration     6          0.598              1.968              4.115
 Vibration     7          0.600              1.961              3.808
 Vibration     8          0.602              1.954              3.589
 Vibration     9          0.610              1.928              3.024
 Vibration    10          0.616              1.911              2.770
 Vibration    11          0.619              1.900              2.642
 Vibration    12          0.622              1.889              2.531
 Vibration    13          0.625              1.880              2.438
 Vibration    14          0.629              1.866              2.324
 Vibration    15          0.637              1.841              2.142
 Vibration    16          0.647              1.811              1.963
 Vibration    17          0.664              1.758              1.712
 Vibration    18          0.675              1.725              1.585
 Vibration    19          0.680              1.712              1.538
 Vibration    20          0.693              1.671              1.409
 Vibration    21          0.709              1.626              1.285
 Vibration    22          0.714              1.613              1.253
 Vibration    23          0.732              1.560              1.134
 Vibration    24          0.742              1.533              1.078
 Vibration    25          0.765              1.471              0.965
 Vibration    26          0.778              1.440              0.913
 Vibration    27          0.781              1.430              0.898
 Vibration    28          0.824              1.325              0.748
 Vibration    29          0.856              1.248              0.656
 Vibration    30          0.866              1.227              0.632
 Vibration    31          0.884              1.186              0.590
 Vibration    32          0.894              1.164              0.568
 Vibration    33          0.961              1.027              0.446

 Optimization completed.
    -- Stationary point found.
 Normal termination of Gaussian 16 at Sun Dec 13 21:36:01 2020.

 ----------------------------------------------------------------------
 # B3LYP/6-311++G(d,p) empiricaldispersion=gd3bj scf=xqc pop=npa geom=c
 heck
 ----------------------------------------------------------------------

 --------------------------------------
 CID_68134921_JID_9061_Energie_neutraal
 --------------------------------------
 Structure from the checkpoint file:  "JID_9061.chk"
 Charge =  0 Multiplicity = 1

 SCF Done:  E(RB3LYP) =  -1135.92262198     A.U. after   16 cycles
 Normal termination of Gaussian 16 at Sun Dec 13 21:49:19 2020.

 ----------------------------------------------------------------------
 # B3LYP/6-311++G(d,p) empiricaldispersion=gd3bj scf=xqc pop=npa geom=c
 heck
 ----------------------------------------------------------------------

 ------------------------------------
 CID_68134921_JID_9061_Energie_kation
 ------------------------------------
 Structure from the checkpoint file:  "JID_9061.chk"
 Charge =  1 Multiplicity = 2

 SCF Done:  E(UB3LYP) =  -1135.64025801     A.U. after   27 cycles
 Normal termination of Gaussian 16 at Sun Dec 13 22:20:51 2020.
 Gaussian 16:  ES64L-G16RevA.03 25-Dec-2016

 ----------------------------------------------------------------------
 # B3LYP/6-311++G(d,p) empiricaldispersion=gd3bj scf=xqc pop=npa geom=c
 heck
 ----------------------------------------------------------------------

 -----------------------------------
 CID_68134921_JID_9061_Energie_anion
 -----------------------------------
 Structure from the checkpoint file:  "JID_9061.chk"
 Charge = -1 Multiplicity = 2

                         Standard orientation:
 ---------------------------------------------------------------------
 Center     Atomic      Atomic             Coordinates (Angstroms)
 Number     Number       Type             X           Y           Z
 ---------------------------------------------------------------------
      1          6           0       -1.509207    1.449704   -1.277342
      2          6           0       -2.949273    1.123365   -1.010624
      3          6           0       -3.454408    0.407358    0.005143
      4          6           0       -4.935286    0.129003    0.091464
      5          6           0       -2.631785   -0.169893    1.137342
      6          6           0       -2.326126   -1.691436    1.031519
      7          6           0       -1.219551   -2.016297    0.051065
      8          6           0        0.026540   -2.215468    0.508748
      9          6           0        1.251856   -2.469415   -0.304054
     10         16           0        2.758121   -1.594256    0.357531
     11          8           0        3.802665   -1.729623   -0.731733
     12          6           0        2.125937    0.106084    0.288400
     13          6           0        2.423432    0.880695   -0.827940
     14          6           0        2.020921    2.215736   -0.858956
     15          6           0        1.333235    2.789203    0.217040
     16          6           0        1.057323    1.990576    1.336464
     17          6           0        1.455375    0.656927    1.381783
     18          6           0        0.882859    4.228055    0.176657
     19          6           0       -1.616197   -2.117928   -1.398048
     20          1           0       -0.824780    0.991006   -0.562677
     21          1           0       -1.337878    2.534220   -1.263505
     22          1           0       -1.216468    1.104294   -2.277865
     23          1           0       -3.653234    1.502915   -1.753008
     24          1           0       -5.137631   -0.950280    0.128236
     25          1           0       -5.365495    0.555826    1.008159
     26          1           0       -5.477834    0.541600   -0.764556
     27          1           0       -1.682266    0.361676    1.248392
     28          1           0       -3.189578   -0.013855    2.071399
     29          1           0       -2.036797   -2.044127    2.028186
     30          1           0       -3.244388   -2.229618    0.761229
     31          1           0        0.176662   -2.201042    1.588904
     32          1           0        1.566352   -3.521170   -0.292198
     33          1           0        1.173619   -2.149306   -1.346020
     34          1           0        2.989255    0.433424   -1.640027
     35          1           0        2.252080    2.825863   -1.728514
     36          1           0        0.534034    2.423323    2.185672
     37          1           0        1.256818    0.056422    2.264915
     38          1           0       -0.204979    4.295651    0.046894
     39          1           0        1.129404    4.751140    1.107410
     40          1           0        1.349602    4.770147   -0.651108
     41          1           0       -2.225413   -3.020289   -1.549317
     42          1           0       -2.235806   -1.267843   -1.695328
     43          1           0       -0.760407   -2.182514   -2.073875
 ---------------------------------------------------------------------

 SCF Done:  E(UB3LYP) =  -1135.91462293     A.U. after   33 cycles
 SCF Done:  E(UB3LYP) =  -1135.91462293     a.u. after    2 cycles

 The electronic state is 2-A.
 Alpha  occ. eigenvalues --  -88.85718 -18.99288 -10.11291 -10.10834 -10.09998
 Alpha  occ. eigenvalues --  -10.09433 -10.08908 -10.08838 -10.08717 -10.08369
 Alpha  occ. eigenvalues --  -10.08357 -10.07733 -10.07724 -10.07640 -10.07145
 Alpha  occ. eigenvalues --  -10.07124 -10.06725 -10.06599 -10.06327  -7.93433
 Alpha  occ. eigenvalues --   -5.89704  -5.89568  -5.89026  -0.92291  -0.77910
 Alpha  occ. eigenvalues --   -0.74183  -0.71950  -0.70186  -0.67543  -0.66395
 Alpha  occ. eigenvalues --   -0.64443  -0.62383  -0.61540  -0.58634  -0.55750
 Alpha  occ. eigenvalues --   -0.54213  -0.52799  -0.51913  -0.48625  -0.43929
 Alpha  occ. eigenvalues --   -0.42118  -0.41622  -0.38759  -0.38475  -0.37373
 Alpha  occ. eigenvalues --   -0.37071  -0.36134  -0.35466  -0.34518  -0.34141
 Alpha  occ. eigenvalues --   -0.33862  -0.33527  -0.33042  -0.31697  -0.31512
 Alpha  occ. eigenvalues --   -0.30823  -0.30483  -0.29528  -0.28878  -0.28401
 Alpha  occ. eigenvalues --   -0.27746  -0.27536  -0.27046  -0.26698  -0.26396
 Alpha  occ. eigenvalues --   -0.25820  -0.25742  -0.23396  -0.22546  -0.18887
 Alpha  occ. eigenvalues --   -0.17492  -0.17074  -0.15791  -0.14218  -0.13237
 Alpha  occ. eigenvalues --    0.03886
 Alpha virt. eigenvalues --    0.05483   0.05971   0.06283   0.06699   0.07263
 Alpha virt. eigenvalues --    0.07896   0.08142   0.08558   0.08779   0.08831
 Alpha virt. eigenvalues --    0.09515   0.10200   0.10469   0.10803   0.10861

  Beta  occ. eigenvalues --  -88.85714 -18.99281 -10.11291 -10.10846 -10.10008
  Beta  occ. eigenvalues --  -10.09401 -10.08867 -10.08777 -10.08685 -10.08347
  Beta  occ. eigenvalues --  -10.08272 -10.07731 -10.07703 -10.07625 -10.07131
  Beta  occ. eigenvalues --  -10.07098 -10.06697 -10.06588 -10.06317  -7.93429
  Beta  occ. eigenvalues --   -5.89701  -5.89565  -5.89015  -0.92276  -0.77831
  Beta  occ. eigenvalues --   -0.74126  -0.71922  -0.70140  -0.67501  -0.66260
  Beta  occ. eigenvalues --   -0.64410  -0.62344  -0.61496  -0.58583  -0.55695
  Beta  occ. eigenvalues --   -0.54168  -0.52658  -0.51866  -0.48569  -0.43855
  Beta  occ. eigenvalues --   -0.42081  -0.41574  -0.38710  -0.38435  -0.37341
  Beta  occ. eigenvalues --   -0.37014  -0.36079  -0.35431  -0.34477  -0.34092
  Beta  occ. eigenvalues --   -0.33808  -0.33490  -0.33013  -0.31661  -0.31485
  Beta  occ. eigenvalues --   -0.30791  -0.30448  -0.29499  -0.28848  -0.28331
  Beta  occ. eigenvalues --   -0.27707  -0.27503  -0.26962  -0.26649  -0.26346
  Beta  occ. eigenvalues --   -0.25775  -0.25681  -0.23354  -0.22515  -0.18838
  Beta  occ. eigenvalues --   -0.17344  -0.16731  -0.15668  -0.14166  -0.13155
  Beta virt. eigenvalues --    0.05643   0.05953   0.06435   0.06910   0.07259
  Beta virt. eigenvalues --    0.07545   0.08191   0.08363   0.08781   0.08853
  Beta virt. eigenvalues --    0.09172   0.09661   0.10413   0.10732   0.10929

 Mulliken charges and spin densities:
               1          2
     1  C   -0.257180  -0.622488
     2  C    0.550422  -0.671994
     3  C   -0.314055   0.821292
     4  C    1.596661  -2.186772
     5  C   -2.120726   1.880374
     6  C   -0.402093  -0.349599
     7  C    0.097658   0.878617
     8  C    0.970286  -1.144148
     9  C   -0.839376  -0.140247
    10  S    0.996309  -0.260629
    11  O   -0.484659   0.001880
    12  C    0.654715  -0.460706
    13  C   -0.272059   0.184119
    14  C   -0.413271   0.067113
    15  C    0.039426   0.323100
    16  C   -0.976748   0.536082
    17  C   -0.696970   0.255160
    18  C    1.047051  -1.676404
    19  C   -0.808562  -0.088338
    20  H    1.835782  -1.346967
    21  H    0.038716   0.110621
    22  H   -0.035783   0.154282
    23  H   -0.276296   0.435736
    24  H   -0.016500   0.162036
    25  H   -0.151762   0.308296
    26  H   -0.153035   0.292181
    27  H   -0.107462   0.211283
    28  H   -0.377731   0.571927
    29  H   -0.392846   0.580427
    30  H   -0.044242   0.188236
    31  H    0.087963   0.058372
    32  H    0.201569   0.032500
    33  H    0.255565  -0.045623
    34  H    0.144444   0.075273
    35  H   -0.025570   0.196563
    36  H   -0.234523   0.438177
    37  H   -0.108163   0.298334
    38  H   -0.097214   0.272435
    39  H    0.036080   0.104746
    40  H   -0.083577   0.219985
    41  H   -0.164770   0.335629
    42  H    0.358556  -0.151066
    43  H   -0.056030   0.150202
 Sum of Mulliken charges =  -1.00000   1.00000

 Dipole moment (field-independent basis, Debye):
    X=              3.2944    Y=             -0.5191    Z=             -1.8962  Tot=              3.8364
 Quadrupole moment (field-independent basis, Debye-Ang):
   XX=           -214.9430   YY=           -175.4725   ZZ=           -162.5441
   XY=              5.3061   XZ=             11.4785   YZ=             -1.3445

 Summary of Natural Population Analysis:

                                       Natural Population
                Natural  -----------------------------------------------
    Atom  No    Charge         Core      Valence    Rydberg      Total
 -----------------------------------------------------------------------
      C    1   -0.30285      0.99964     2.29666    0.00655     3.30285
      C    2   -0.09674      0.99945     2.08819    0.00911     3.09674
      C    3   -0.01046      0.99947     1.99953    0.01145     3.01046
      C    4   -0.29158      0.99962     2.28716    0.00480     3.29158
      C    5   -0.20346      0.99957     2.19300    0.01089     3.20346
      C    6   -0.19542      0.99957     2.18582    0.01003     3.19542
      C    7    0.01925      0.99948     1.97116    0.01012     2.98075
      C    8   -0.12644      0.99944     2.11604    0.01097     3.12644
      C    9   -0.27485      0.99957     2.26402    0.01126     3.27485
      S   10    0.59588      4.99935     2.34991    0.05485     7.40412
      O   11   -0.48537      0.99993     3.47913    0.00631     4.48537
      C   12   -0.12718      0.99937     2.11218    0.01563     3.12718
      C   13   -0.08932      0.99949     2.08003    0.00980     3.08932
      C   14   -0.09662      0.99951     2.08803    0.00909     3.09662
      C   15   -0.01160      0.99952     2.00278    0.00931     3.01160
      C   16   -0.08721      0.99951     2.07803    0.00968     3.08721
      C   17   -0.09401      0.99949     2.08350    0.01102     3.09401
      C   18   -0.29441      0.99963     2.28903    0.00575     3.29441
      C   19   -0.30387      0.99961     2.29863    0.00563     3.30387
      H   20    0.10671      0.00000     0.39067    0.00262     0.39329
      H   21    0.10167      0.00000     0.39711    0.00122     0.39833
      H   22    0.09987      0.00000     0.39905    0.00108     0.40013
      H   23    0.08907      0.00000     0.40993    0.00101     0.41093
      H   24    0.09996      0.00000     0.39857    0.00147     0.40004
      H   25    0.10212      0.00000     0.39646    0.00142     0.39788
      H   26    0.09978      0.00000     0.39916    0.00106     0.40022
      H   27    0.10534      0.00000     0.39207    0.00260     0.39466
      H   28    0.10420      0.00000     0.39355    0.00225     0.39580
      H   29    0.10328      0.00000     0.39521    0.00151     0.39672
      H   30    0.09890      0.00000     0.39955    0.00155     0.40110
      H   31    0.09481      0.00000     0.40249    0.00270     0.40519
      H   32    0.10750      0.00000     0.39106    0.00144     0.39250
      H   33    0.11180      0.00000     0.38661    0.00158     0.38820
      H   34    0.11520      0.00000     0.38366    0.00114     0.38480
      H   35    0.09896      0.00000     0.40018    0.00086     0.40104
      H   36    0.10198      0.00000     0.39656    0.00146     0.39802
      H   37    0.10465      0.00000     0.39338    0.00196     0.39535
      H   38    0.10895      0.00000     0.38991    0.00114     0.39105
      H   39    0.10337      0.00000     0.39584    0.00079     0.39663
      H   40    0.10108      0.00000     0.39806    0.00086     0.39892
      H   41    0.10558      0.00000     0.39345    0.00098     0.39442
      H   42    0.11291      0.00000     0.38587    0.00123     0.38709
      H   43    0.09861      0.00000     0.40053    0.00086     0.40139
 =======================================================================
   * Total *    0.00000     22.99121    51.75177    0.25703    75.00000

 Normal termination of Gaussian 16 at Sun Dec 13 23:50:36 2020.
