 Gaussian 16, Revision A.03,

 -----------------------------------------------------------
 # opt freq B3LYP/6-31G(d) empiricaldispersion=gd3bj scf=xqc
 -----------------------------------------------------------

 ------------------------------
 CID_64563671_JID_5819_neutraal
 ------------------------------
 Symbolic Z-matrix:
 Charge =  0 Multiplicity = 1

 SCF Done:  E(RB3LYP) =  -690.078333096     A.U. after   15 cycles
 SCF Done:  E(RB3LYP) =  -690.084483121     A.U. after   12 cycles
 SCF Done:  E(RB3LYP) =  -690.084894172     A.U. after   11 cycles
 SCF Done:  E(RB3LYP) =  -690.084901755     A.U. after   11 cycles
 SCF Done:  E(RB3LYP) =  -690.085008420     A.U. after   10 cycles
 SCF Done:  E(RB3LYP) =  -690.085020952     A.U. after    9 cycles
 SCF Done:  E(RB3LYP) =  -690.085032092     A.U. after   10 cycles
 SCF Done:  E(RB3LYP) =  -690.085041670     A.U. after   10 cycles
 SCF Done:  E(RB3LYP) =  -690.085052925     A.U. after   10 cycles
 SCF Done:  E(RB3LYP) =  -690.085064921     A.U. after   10 cycles
 SCF Done:  E(RB3LYP) =  -690.085071876     A.U. after   10 cycles
 SCF Done:  E(RB3LYP) =  -690.085073088     A.U. after    8 cycles
 SCF Done:  E(RB3LYP) =  -690.085073443     A.U. after    8 cycles
 SCF Done:  E(RB3LYP) =  -690.085073550     A.U. after    7 cycles
 Optimization completed.
    -- Stationary point found.
 Normal termination of Gaussian 16 at Thu Dec 10 17:09:33 2020.

 --------------------------------------------------------------------
 #N Geom=AllCheck Guess=TCheck SCRF=Check GenChk RB3LYP/6-31G(d) Freq
 --------------------------------------------------------------------

 Structure from the checkpoint file:  "JID_5819.chk"
 ------------------------------
 CID_64563671_JID_5819_neutraal
 ------------------------------
 Charge =  0 Multiplicity = 1

 SCF Done:  E(RB3LYP) =  -690.085073550     A.U. after    1 cycles

  Exact polarizability: 153.324   2.713 130.010   5.353   2.398  99.483
 Approx polarizability: 183.277   4.898 209.379  10.435  11.309 151.764

                      1                      2                      3
                      A                      A                      A
 Frequencies --     35.2244                38.8928                61.5700
 Red. masses --      2.8630                 3.5108                 3.4772
 Frc consts  --      0.0021                 0.0031                 0.0078
 IR Inten    --      0.0788                 0.3613                 1.3642

                      4                      5                      6
                      A                      A                      A
 Frequencies --     94.8704               105.0490               124.5597
 Red. masses --      2.6641                 2.7677                 3.9184
 Frc consts  --      0.0141                 0.0180                 0.0358
 IR Inten    --      1.5737                 0.2387                 0.7279

                      7                      8                      9
                      A                      A                      A
 Frequencies --    152.0037               201.2387               234.7523
 Red. masses --      4.5239                 2.6148                 2.3747
 Frc consts  --      0.0616                 0.0624                 0.0771
 IR Inten    --      6.7787                 0.6725                 1.4135

                     10                     11                     12
                      A                      A                      A
 Frequencies --    245.4054               267.9524               291.5921
 Red. masses --      1.7902                 2.4412                 4.3619
 Frc consts  --      0.0635                 0.1033                 0.2185
 IR Inten    --      0.5252                 1.0129                 3.0010

                     13                     14                     15
                      A                      A                      A
 Frequencies --    326.3165               339.1241               374.8410
 Red. masses --      2.1550                 2.3727                 4.0950
 Frc consts  --      0.1352                 0.1608                 0.3390
 IR Inten    --      2.5673                 6.2581                20.9371

                     16                     17                     18
                      A                      A                      A
 Frequencies --    404.6453               421.4341               475.7148
 Red. masses --      3.4520                 2.6374                 1.8968
 Frc consts  --      0.3330                 0.2760                 0.2529
 IR Inten    --      3.8222                 1.4823                 1.1729

                     19                     20                     21
                      A                      A                      A
 Frequencies --    514.5375               570.4425               603.2102
 Red. masses --      2.1996                 4.1206                 4.6071
 Frc consts  --      0.3431                 0.7900                 0.9877
 IR Inten    --      1.3487                 7.1193                10.5641

                     22                     23                     24
                      A                      A                      A
 Frequencies --    644.3339               696.8434               748.5111
 Red. masses --      4.2722                 3.2397                 8.2590
 Frc consts  --      1.0450                 0.9269                 2.7263
 IR Inten    --      5.5180                 0.5440                20.1936

                     25                     26                     27
                      A                      A                      A
 Frequencies --    769.6463               797.6626               816.0389
 Red. masses --      2.1083                 2.8207                 1.5992
 Frc consts  --      0.7358                 1.0574                 0.6274
 IR Inten    --      8.9542                 1.2650                 4.8773

                     28                     29                     30
                      A                      A                      A
 Frequencies --    841.0775               860.1658               886.0879
 Red. masses --      1.9556                 2.1681                 1.8986
 Frc consts  --      0.8151                 0.9451                 0.8783
 IR Inten    --      6.5191                 6.6409                 4.4514

                     31                     32                     33
                      A                      A                      A
 Frequencies --    907.0469               919.2969               923.2258
 Red. masses --      1.7806                 1.9986                 2.5528
 Frc consts  --      0.8631                 0.9951                 1.2820
 IR Inten    --      9.9543                 1.2998                 2.4996

                     34                     35                     36
                      A                      A                      A
 Frequencies --    984.3181              1006.0291              1027.1942
 Red. masses --      2.1477                 1.5877                 2.4060
 Frc consts  --      1.2260                 0.9468                 1.4957
 IR Inten    --      1.7060                 0.2330                 3.0450

                     37                     38                     39
                      A                      A                      A
 Frequencies --   1045.0444              1073.7703              1084.6234
 Red. masses --      1.9048                 2.0407                 2.4774
 Frc consts  --      1.2257                 1.3863                 1.7171
 IR Inten    --      2.5877                 1.3767                20.5011

                     40                     41                     42
                      A                      A                      A
 Frequencies --   1119.9069              1130.0866              1137.4900
 Red. masses --      2.0296                 2.0528                 2.4419
 Frc consts  --      1.4997                 1.5446                 1.8615
 IR Inten    --      3.7048                 8.2382                24.8511

                     43                     44                     45
                      A                      A                      A
 Frequencies --   1150.9354              1193.6624              1223.8364
 Red. masses --      2.5821                 1.4970                 1.4514
 Frc consts  --      2.0152                 1.2567                 1.2808
 IR Inten    --     10.4495                 1.7180                19.6996

                     46                     47                     48
                      A                      A                      A
 Frequencies --   1230.9720              1237.3470              1274.8232
 Red. masses --      1.6030                 2.0967                 1.2889
 Frc consts  --      1.4311                 1.8913                 1.2342
 IR Inten    --     27.6806                11.6119                13.2683

                     49                     50                     51
                      A                      A                      A
 Frequencies --   1290.4041              1313.8938              1319.4405
 Red. masses --      1.7594                 1.2227                 1.1474
 Frc consts  --      1.7261                 1.2436                 1.1769
 IR Inten    --     43.5344                 0.5630                 5.0558

                     52                     53                     54
                      A                      A                      A
 Frequencies --   1329.0336              1345.6409              1360.3783
 Red. masses --      1.6190                 1.3744                 1.6048
 Frc consts  --      1.6849                 1.4663                 1.7498
 IR Inten    --      1.7216                 2.9651                37.8990

                     55                     56                     57
                      A                      A                      A
 Frequencies --   1393.2083              1398.8025              1406.0385
 Red. masses --      1.3856                 1.4427                 1.4277
 Frc consts  --      1.5846                 1.6632                 1.6630
 IR Inten    --      1.9032                62.9710                33.8944

                     58                     59                     60
                      A                      A                      A
 Frequencies --   1411.4749              1413.9785              1417.1937
 Red. masses --      1.4879                 1.6077                 1.4344
 Frc consts  --      1.7465                 1.8938                 1.6974
 IR Inten    --      2.0530                14.7036                 3.1070

                     61                     62                     63
                      A                      A                      A
 Frequencies --   1422.9208              1434.4993              1446.5039
 Red. masses --      2.0373                 1.5536                 1.3070
 Frc consts  --      2.4303                 1.8837                 1.6112
 IR Inten    --     63.8058                33.8429                26.0052

                     64                     65                     66
                      A                      A                      A
 Frequencies --   1470.4841              1503.1033              1506.9024
 Red. masses --      3.2025                 1.1761                 1.0917
 Frc consts  --      4.0800                 1.5656                 1.4605
 IR Inten    --    297.5344                66.4550                 1.2989

                     67                     68                     69
                      A                      A                      A
 Frequencies --   1512.4663              1517.1914              1519.5647
 Red. masses --      1.0909                 1.0693                 1.0877
 Frc consts  --      1.4703                 1.4502                 1.4798
 IR Inten    --      2.6997                 4.1627                10.4769

                     70                     71                     72
                      A                      A                      A
 Frequencies --   1524.5588              1529.1237              1536.0094
 Red. masses --      1.0960                 1.0585                 1.0581
 Frc consts  --      1.5010                 1.4582                 1.4709
 IR Inten    --      2.8641                11.5533                 6.6576

                     73                     74                     75
                      A                      A                      A
 Frequencies --   1550.3509              1807.8320              1859.4052
 Red. masses --      1.0929                12.2436                11.8939
 Frc consts  --      1.5477                23.5764                24.2283
 IR Inten    --      4.5082               633.9684                98.4575

                     76                     77                     78
                      A                      A                      A
 Frequencies --   3021.9211              3024.6970              3031.2006
 Red. masses --      1.0808                 1.0687                 1.0634
 Frc consts  --      5.8154                 5.7604                 5.7568
 IR Inten    --      7.1247                21.2055                16.9105

                     79                     80                     81
                      A                      A                      A
 Frequencies --   3040.1709              3041.5318              3047.7904
 Red. masses --      1.0680                 1.0591                 1.0646
 Frc consts  --      5.8159                 5.7726                 5.8264
 IR Inten    --     13.9188                24.2228                13.3308

                     82                     83                     84
                      A                      A                      A
 Frequencies --   3050.9780              3053.7016              3071.9935
 Red. masses --      1.0636                 1.0356                 1.1012
 Frc consts  --      5.8330                 5.6897                 6.1230
 IR Inten    --     24.9740                22.8231                39.1963

                     85                     86                     87
                      A                      A                      A
 Frequencies --   3075.8885              3079.1506              3084.5936
 Red. masses --      1.0967                 1.0989                 1.0696
 Frc consts  --      6.1135                 6.1385                 5.9961
 IR Inten    --     23.3256                70.3827                10.6109

                     88                     89                     90
                      A                      A                      A
 Frequencies --   3086.2633              3095.0020              3101.2763
 Red. masses --      1.0999                 1.0890                 1.1021
 Frc consts  --      6.1724                 6.1458                 6.2451
 IR Inten    --     56.7983                14.2175                23.6806

                     91                     92                     93
                      A                      A                      A
 Frequencies --   3120.4042              3124.8745              3140.8838
 Red. masses --      1.1022                 1.1031                 1.1071
 Frc consts  --      6.3231                 6.3466                 6.4351
 IR Inten    --     54.2869                29.6999                10.6937

 - Thermochemistry -
 -------------------
 Temperature   298.150 Kelvin.  Pressure   1.00000 Atm.
 Atom     1 has atomic number  6 and mass  12.00000

 Molecular mass:   210.13683 amu.
 Principal axes and moments of inertia in atomic units:
                           1         2         3
     Eigenvalues --  1572.217654473.752835395.27369
           X            0.99999   0.00154  -0.00522
           Y           -0.00161   0.99992  -0.01277
           Z            0.00519   0.01278   0.99990
 This molecule is an asymmetric top.
 Rotational symmetry number  1.
 Warning -- assumption of classical behavior for rotation
           may cause significant error
 Rotational temperatures (Kelvin)      0.05509     0.01936     0.01605
 Rotational constants (GHZ):           1.14790     0.40341     0.33450
 Zero-point vibrational energy     762296.8 (Joules/Mol)
                                  182.19332 (Kcal/Mol)
 Warning -- explicit consideration of  21 degrees of freedom as
           vibrations may cause significant error
 Vibrational temperatures:     50.68    55.96    88.59   136.50   151.14
          (Kelvin)            179.21   218.70   289.54   337.76   353.08
                              385.52   419.54   469.50   487.92   539.31
                              582.19   606.35   684.45   740.30   820.74
                              867.88   927.05  1002.60  1076.94  1107.35
                             1147.66  1174.10  1210.12  1237.59  1274.88
                             1305.04  1322.66  1328.32  1416.21  1447.45
                             1477.90  1503.59  1544.92  1560.53  1611.30
                             1625.94  1636.59  1655.94  1717.41  1760.83
                             1771.09  1780.27  1834.19  1856.60  1890.40
                             1898.38  1912.18  1936.08  1957.28  2004.52
                             2012.56  2022.98  2030.80  2034.40  2039.03
                             2047.27  2063.92  2081.20  2115.70  2162.63
                             2168.10  2176.10  2182.90  2186.31  2193.50
                             2200.07  2209.97  2230.61  2601.07  2675.27
                             4347.87  4351.86  4361.22  4374.13  4376.09
                             4385.09  4389.68  4393.60  4419.91  4425.52
                             4430.21  4438.04  4440.44  4453.02  4462.04
                             4489.57  4496.00  4519.03

 Zero-point correction=                           0.290344 (Hartree/Particle)
 Thermal correction to Energy=                    0.304896
 Thermal correction to Enthalpy=                  0.305840
 Thermal correction to Gibbs Free Energy=         0.247872
 Sum of electronic and zero-point Energies=           -689.794730
 Sum of electronic and thermal Energies=              -689.780178
 Sum of electronic and thermal Enthalpies=            -689.779234
 Sum of electronic and thermal Free Energies=         -689.837202

                     E (Thermal)             CV                S
                      KCal/Mol        Cal/Mol-Kelvin    Cal/Mol-Kelvin
 Total                  191.325             54.751            122.003
 Electronic               0.000              0.000              0.000
 Translational            0.889              2.981             41.932
 Rotational               0.889              2.981             32.007
 Vibrational            189.547             48.789             48.065
 Vibration     1          0.594              1.982              5.511
 Vibration     2          0.594              1.981              5.315
 Vibration     3          0.597              1.973              4.406
 Vibration     4          0.603              1.953              3.557
 Vibration     5          0.605              1.945              3.358
 Vibration     6          0.610              1.928              3.028
 Vibration     7          0.619              1.900              2.647
 Vibration     8          0.638              1.838              2.122
 Vibration     9          0.655              1.788              1.842
 Vibration    10          0.660              1.770              1.763
 Vibration    11          0.673              1.732              1.609
 Vibration    12          0.687              1.689              1.465
 Vibration    13          0.710              1.623              1.278
 Vibration    14          0.719              1.597              1.216
 Vibration    15          0.746              1.524              1.060
 Vibration    16          0.770              1.460              0.946
 Vibration    17          0.784              1.424              0.887
 Vibration    18          0.832              1.304              0.722
 Vibration    19          0.870              1.218              0.623
 Vibration    20          0.927              1.095              0.503
 Vibration    21          0.962              1.025              0.444

 Optimization completed.
    -- Stationary point found.
 Normal termination of Gaussian 16 at Thu Dec 10 17:20:20 2020.

 ----------------------------------------------------------------------
 # B3LYP/6-311++G(d,p) empiricaldispersion=gd3bj scf=xqc pop=npa geom=c
 heck
 ----------------------------------------------------------------------

 --------------------------------------
 CID_64563671_JID_5819_Energie_neutraal
 --------------------------------------
 Structure from the checkpoint file:  "JID_5819.chk"
 Charge =  0 Multiplicity = 1

 SCF Done:  E(RB3LYP) =  -690.277747037     A.U. after   14 cycles
 Normal termination of Gaussian 16 at Thu Dec 10 17:24:58 2020.

 ----------------------------------------------------------------------
 # B3LYP/6-311++G(d,p) empiricaldispersion=gd3bj scf=xqc pop=npa geom=c
 heck
 ----------------------------------------------------------------------

 ------------------------------------
 CID_64563671_JID_5819_Energie_kation
 ------------------------------------
 Structure from the checkpoint file:  "JID_5819.chk"
 Charge =  1 Multiplicity = 2

 SCF Done:  E(UB3LYP) =  -689.957911816     A.U. after   24 cycles
 Normal termination of Gaussian 16 at Thu Dec 10 17:34:58 2020.
 Gaussian 16:  ES64L-G16RevA.03 25-Dec-2016

 ----------------------------------------------------------------------
 # B3LYP/6-311++G(d,p) empiricaldispersion=gd3bj scf=xqc pop=npa geom=c
 heck
 ----------------------------------------------------------------------

 -----------------------------------
 CID_64563671_JID_5819_Energie_anion
 -----------------------------------
 Structure from the checkpoint file:  "JID_5819.chk"
 Charge = -1 Multiplicity = 2

                         Standard orientation:
 ---------------------------------------------------------------------
 Center     Atomic      Atomic             Coordinates (Angstroms)
 Number     Number       Type             X           Y           Z
 ---------------------------------------------------------------------
      1          6           0       -3.684598    0.345713    1.415700
      2          6           0       -3.699309   -0.507348    0.145897
      3          6           0       -2.754201    0.009545   -0.943752
      4          7           0       -1.364988    0.049391   -0.507517
      5          6           0       -0.694032    1.176913   -0.101530
      6          8           0       -1.123098    2.314863   -0.070107
      7          6           0        0.723973    0.730068    0.279193
      8          6           0        1.772359    1.497080   -0.536389
      9          6           0        3.205030    1.324522   -0.027612
     10          6           0        3.743000   -0.112172   -0.057359
     11          6           0        3.000497   -1.100222    0.858941
     12          6           0        1.717333   -1.692206    0.280124
     13          7           0        0.672928   -0.704064    0.027715
     14          6           0       -0.553222   -1.104384   -0.424711
     15          8           0       -0.908128   -2.234836   -0.710214
     16          1           0       -2.697096    0.333032    1.890033
     17          1           0       -4.407655   -0.029968    2.147455
     18          1           0       -3.929166    1.390993    1.196611
     19          1           0       -3.427576   -1.543547    0.377382
     20          1           0       -4.711019   -0.532295   -0.279377
     21          1           0       -2.803865   -0.633370   -1.826888
     22          1           0       -3.010313    1.032859   -1.231951
     23          1           0        0.866223    0.942778    1.348790
     24          1           0        1.490809    2.555635   -0.499652
     25          1           0        1.694572    1.175607   -1.583278
     26          1           0        3.263493    1.704044    1.003055
     27          1           0        3.865535    1.963419   -0.626932
     28          1           0        4.797997   -0.085512    0.241716
     29          1           0        3.725626   -0.493819   -1.088276
     30          1           0        2.796019   -0.628625    1.829819
     31          1           0        3.656150   -1.953065    1.071097
     32          1           0        1.318525   -2.452927    0.962216
     33          1           0        1.944986   -2.207795   -0.661663
 ---------------------------------------------------------------------

 SCF Done:  E(UB3LYP) =  -690.265797643     A.U. after   32 cycles

 The electronic state is 2-A.
 Alpha  occ. eigenvalues --  -19.01434 -19.00412 -14.26995 -14.25103 -10.20873
 Alpha  occ. eigenvalues --  -10.19166 -10.13367 -10.12327 -10.11227 -10.08375
 Alpha  occ. eigenvalues --  -10.08373 -10.07496 -10.07407 -10.07050 -10.07030
 Alpha  occ. eigenvalues --   -0.98323  -0.95423  -0.88513  -0.83652  -0.71883
 Alpha  occ. eigenvalues --   -0.71229  -0.68792  -0.62551  -0.62236  -0.58244
 Alpha  occ. eigenvalues --   -0.54880  -0.52384  -0.49850  -0.47931  -0.46859
 Alpha  occ. eigenvalues --   -0.42910  -0.39954  -0.38922  -0.38217  -0.37164
 Alpha  occ. eigenvalues --   -0.36150  -0.35804  -0.35321  -0.33940  -0.33518
 Alpha  occ. eigenvalues --   -0.32160  -0.32022  -0.30969  -0.29496  -0.28544
 Alpha  occ. eigenvalues --   -0.28456  -0.26909  -0.26480  -0.25843  -0.25468
 Alpha  occ. eigenvalues --   -0.23934  -0.23489  -0.23182  -0.19836  -0.18632
 Alpha  occ. eigenvalues --   -0.17336  -0.15270   0.04248
 Alpha virt. eigenvalues --    0.05835   0.06965   0.07460   0.07712   0.08239
 Alpha virt. eigenvalues --    0.08652   0.09277   0.09857   0.10472   0.10750
 Alpha virt. eigenvalues --    0.10993   0.11706   0.11794   0.12564   0.12895

  Beta  occ. eigenvalues --  -19.01406 -19.00398 -14.26999 -14.25107 -10.20863
  Beta  occ. eigenvalues --  -10.19125 -10.13353 -10.12321 -10.11212 -10.08361
  Beta  occ. eigenvalues --  -10.08361 -10.07459 -10.07382 -10.07024 -10.07008
  Beta  occ. eigenvalues --   -0.98289  -0.95377  -0.88491  -0.83644  -0.71842
  Beta  occ. eigenvalues --   -0.71194  -0.68758  -0.62515  -0.62182  -0.58200
  Beta  occ. eigenvalues --   -0.54830  -0.52334  -0.49803  -0.47838  -0.46818
  Beta  occ. eigenvalues --   -0.42870  -0.39903  -0.38882  -0.38194  -0.37112
  Beta  occ. eigenvalues --   -0.36108  -0.35777  -0.35281  -0.33911  -0.33477
  Beta  occ. eigenvalues --   -0.32111  -0.31966  -0.30918  -0.29446  -0.28502
  Beta  occ. eigenvalues --   -0.28385  -0.26864  -0.26441  -0.25791  -0.25448
  Beta  occ. eigenvalues --   -0.23871  -0.23436  -0.23124  -0.19816  -0.18581
  Beta  occ. eigenvalues --   -0.17309  -0.15249
  Beta virt. eigenvalues --    0.06208   0.06958   0.07564   0.07958   0.08231
  Beta virt. eigenvalues --    0.08730   0.08999   0.09419   0.10360   0.10821
  Beta virt. eigenvalues --    0.11150   0.11312   0.11884   0.12167   0.12626

 Mulliken charges and spin densities:
               1          2
     1  C    0.539383  -0.999227
     2  C   -0.823748   0.550235
     3  C    0.399112  -0.508803
     4  N   -0.004864   0.085491
     5  C    0.302381  -0.934668
     6  O   -0.321307   0.033047
     7  C    0.422798  -0.181529
     8  C   -0.337921   0.073453
     9  C    0.234430  -0.494854
    10  C    0.468812  -0.763169
    11  C   -0.254675  -0.018745
    12  C    0.841730  -1.120704
    13  N   -0.202659   0.187536
    14  C    0.263226  -0.226142
    15  O   -0.363003   0.021275
    16  H   -0.147361   0.312817
    17  H   -0.245225   0.391009
    18  H    0.096987   0.041120
    19  H    0.176853  -0.000604
    20  H   -0.228730   0.370944
    21  H    0.114107   0.064099
    22  H    0.085563   0.109553
    23  H   -0.151449   0.400405
    24  H    0.163875   0.030643
    25  H    0.016732   0.137116
    26  H   -0.060080   0.199775
    27  H   -0.364983   0.541751
    28  H   -0.760222   0.955208
    29  H    0.056032   0.058766
    30  H   -0.315052   0.476023
    31  H   -0.613201   0.813784
    32  H    0.019972   0.176738
    33  H   -0.007514   0.217658
 Sum of Mulliken charges =  -1.00000   1.00000

 Dipole moment (field-independent basis, Debye):
    X=             -4.9275    Y=              1.0222    Z=             -3.4075  Tot=              6.0775
 Quadrupole moment (field-independent basis, Debye-Ang):
   XX=           -185.6451   YY=           -138.5167   ZZ=           -124.2407
   XY=              4.2344   XZ=             -3.6573   YZ=              0.0149

 Summary of Natural Population Analysis:

                                       Natural Population
                Natural  -----------------------------------------------
    Atom  No    Charge         Core      Valence    Rydberg      Total
 -----------------------------------------------------------------------
      C    1   -0.28716      0.99967     2.28314    0.00435     3.28716
      C    2   -0.19511      0.99963     2.18884    0.00664     3.19511
      C    3   -0.08675      0.99961     2.07698    0.01016     3.08675
      N    4   -0.26302      0.99959     2.75364    0.00979     3.76302
      C    5    0.36177      0.99963     1.61632    0.02228     2.63823
      O    6   -0.30740      0.99987     3.30183    0.00570     4.30740
      C    7   -0.03871      0.99955     2.02693    0.01222     3.03871
      C    8   -0.19050      0.99960     2.18328    0.00762     3.19050
      C    9   -0.18802      0.99962     2.17919    0.00921     3.18802
      C   10   -0.19151      0.99962     2.18259    0.00929     3.19151
      C   11   -0.19833      0.99963     2.18973    0.00897     3.19833
      C   12   -0.07778      0.99960     2.06646    0.01172     3.07778
      N   13   -0.26025      0.99962     2.75047    0.01015     3.76025
      C   14    0.42014      0.99965     1.55798    0.02224     2.57986
      O   15   -0.32432      0.99988     3.31900    0.00545     4.32432
      H   16    0.09911      0.00000     0.39957    0.00132     0.40089
      H   17    0.09883      0.00000     0.40006    0.00111     0.40117
      H   18    0.09904      0.00000     0.39975    0.00121     0.40096
      H   19    0.10333      0.00000     0.39534    0.00133     0.39667
      H   20    0.09552      0.00000     0.40305    0.00143     0.40448
      H   21    0.10503      0.00000     0.39392    0.00105     0.39497
      H   22    0.10612      0.00000     0.39259    0.00129     0.39388
      H   23    0.11055      0.00000     0.38767    0.00177     0.38945
      H   24    0.11031      0.00000     0.38855    0.00114     0.38969
      H   25    0.09741      0.00000     0.40124    0.00135     0.40259
      H   26    0.09613      0.00000     0.40227    0.00160     0.40387
      H   27    0.10095      0.00000     0.39793    0.00112     0.39905
      H   28    0.10549      0.00000     0.39184    0.00267     0.39451
      H   29    0.09253      0.00000     0.40609    0.00139     0.40747
      H   30    0.09902      0.00000     0.39883    0.00215     0.40098
      H   31    0.10887      0.00000     0.38890    0.00223     0.39113
      H   32    0.10221      0.00000     0.39661    0.00118     0.39779
      H   33    0.09651      0.00000     0.40221    0.00128     0.40349
 =======================================================================
   * Total *   -0.00000     14.99478    41.82282    0.18240    57.00000

 Normal termination of Gaussian 16 at Thu Dec 10 17:52:39 2020.
