 Gaussian 16, Revision A.03,

 -----------------------------------------------------------
 # opt freq B3LYP/6-31G(d) empiricaldispersion=gd3bj scf=xqc
 -----------------------------------------------------------

 -------------------------------
 CID_87857862_JID_10428_neutraal
 -------------------------------
 Symbolic Z-matrix:
 Charge =  0 Multiplicity = 1

 SCF Done:  E(RB3LYP) =  -1286.30417851     A.U. after   15 cycles
 SCF Done:  E(RB3LYP) =  -1286.32493979     A.U. after   13 cycles
 SCF Done:  E(RB3LYP) =  -1286.31257957     A.U. after   13 cycles
 SCF Done:  E(RB3LYP) =  -1286.32218414     A.U. after   14 cycles
 SCF Done:  E(RB3LYP) =  -1286.32723164     A.U. after   11 cycles
 SCF Done:  E(RB3LYP) =  -1286.32727095     A.U. after   13 cycles
 SCF Done:  E(RB3LYP) =  -1286.32875236     A.U. after   12 cycles
 SCF Done:  E(RB3LYP) =  -1286.32909003     A.U. after   13 cycles
 SCF Done:  E(RB3LYP) =  -1286.32926321     A.U. after   13 cycles
 SCF Done:  E(RB3LYP) =  -1286.32960923     A.U. after   11 cycles
 SCF Done:  E(RB3LYP) =  -1286.33036695     A.U. after    8 cycles
 SCF Done:  E(RB3LYP) =  -1286.33036702     A.U. after    8 cycles
 SCF Done:  E(RB3LYP) =  -1286.33036706     A.U. after    7 cycles
 SCF Done:  E(RB3LYP) =  -1286.33036708     A.U. after    7 cycles
 Optimization completed.
    -- Stationary point found.
 Normal termination of Gaussian 16 at Sun Dec 13 20:51:20 2020.

 --------------------------------------------------------------------
 #N Geom=AllCheck Guess=TCheck SCRF=Check GenChk RB3LYP/6-31G(d) Freq
 --------------------------------------------------------------------

 Structure from the checkpoint file:  "JID_10428.chk"
 -------------------------------
 CID_87857862_JID_10428_neutraal
 -------------------------------
 Charge =  0 Multiplicity = 1

 SCF Done:  E(RB3LYP) =  -1286.33036708     A.U. after    1 cycles

  Exact polarizability: 274.055  -4.502 176.249  14.266  -5.587  87.666
 Approx polarizability: 372.386  -7.432 338.560  26.936 -17.869 141.437

                      1                      2                      3
                      A                      A                      A
 Frequencies --     14.2066                39.0267                41.8428
 Red. masses --      6.8204                 6.8314                 6.1452
 Frc consts  --      0.0008                 0.0061                 0.0063
 IR Inten    --      1.0479                 0.3329                 0.1988

                      4                      5                      6
                      A                      A                      A
 Frequencies --     56.4541                86.4537               105.3511
 Red. masses --      4.9034                 9.0133                 7.3796
 Frc consts  --      0.0092                 0.0397                 0.0483
 IR Inten    --      0.0862                 1.8457                 4.1991

                      7                      8                      9
                      A                      A                      A
 Frequencies --    139.0721               167.7701               216.1976
 Red. masses --      6.0210                 6.9435                11.0417
 Frc consts  --      0.0686                 0.1151                 0.3041
 IR Inten    --      4.5617                 3.9874                 2.4401

                     10                     11                     12
                      A                      A                      A
 Frequencies --    231.8780               243.0067               270.6368
 Red. masses --      5.3052                 4.8642                 5.9914
 Frc consts  --      0.1681                 0.1692                 0.2586
 IR Inten    --      0.4869                 1.7792                 5.5361

                     13                     14                     15
                      A                      A                      A
 Frequencies --    302.0235               321.2182               338.4619
 Red. masses --      4.5496                 1.2861                 4.1296
 Frc consts  --      0.2445                 0.0782                 0.2787
 IR Inten    --      5.2139                53.6677                 3.7476

                     16                     17                     18
                      A                      A                      A
 Frequencies --    404.8735               416.6191               426.9115
 Red. masses --      3.8630                 5.3933                 3.5018
 Frc consts  --      0.3731                 0.5515                 0.3760
 IR Inten    --     18.1730                12.1603                 4.2879

                     19                     20                     21
                      A                      A                      A
 Frequencies --    430.3139               481.8468               517.7902
 Red. masses --      4.0611                 4.2095                 3.1616
 Frc consts  --      0.4431                 0.5758                 0.4994
 IR Inten    --      0.9871                12.0098                 5.9595

                     22                     23                     24
                      A                      A                      A
 Frequencies --    518.8791               531.3101               564.2106
 Red. masses --      3.8871                 2.2651                 5.5420
 Frc consts  --      0.6166                 0.3767                 1.0394
 IR Inten    --    154.7244               115.0619                 7.5687

                     25                     26                     27
                      A                      A                      A
 Frequencies --    571.7157               577.1096               586.7079
 Red. masses --      5.7176                 5.3614                 3.3386
 Frc consts  --      1.1011                 1.0521                 0.6771
 IR Inten    --      4.7934                 4.4415                46.7125

                     28                     29                     30
                      A                      A                      A
 Frequencies --    602.6617               630.8856               632.2811
 Red. masses --      1.6890                 5.2118                 4.7321
 Frc consts  --      0.3614                 1.2222                 1.1146
 IR Inten    --     62.8622                18.8969                39.1122

                     31                     32                     33
                      A                      A                      A
 Frequencies --    636.9390               688.0276               698.2445
 Red. masses --      3.9450                 1.6176                 3.1802
 Frc consts  --      0.9430                 0.4512                 0.9135
 IR Inten    --    108.3781                66.4214                14.6154

                     34                     35                     36
                      A                      A                      A
 Frequencies --    705.2624               732.7947               769.3756
 Red. masses --      2.5972                 7.3857                 1.5045
 Frc consts  --      0.7611                 2.3367                 0.5247
 IR Inten    --      8.5766                15.0322                71.4141

                     37                     38                     39
                      A                      A                      A
 Frequencies --    799.5706               814.6149               834.6229
 Red. masses --      5.3276                 6.4556                 6.5356
 Frc consts  --      2.0068                 2.5240                 2.6823
 IR Inten    --     10.6236                50.3806                 9.2830

                     40                     41                     42
                      A                      A                      A
 Frequencies --    844.6218               902.3385               915.2823
 Red. masses --      1.2786                 4.0871                 1.4702
 Frc consts  --      0.5374                 1.9607                 0.7256
 IR Inten    --      0.6057                 6.1240                10.5391

                     43                     44                     45
                      A                      A                      A
 Frequencies --    966.6753               990.5044              1019.7442
 Red. masses --      1.3223                 1.2402                 5.7593
 Frc consts  --      0.7280                 0.7169                 3.5286
 IR Inten    --      1.1558                 2.6642                 0.6315

                     46                     47                     48
                      A                      A                      A
 Frequencies --   1032.8275              1056.1046              1074.1194
 Red. masses --      2.3370                 2.6133                 3.1715
 Frc consts  --      1.4688                 1.7173                 2.1559
 IR Inten    --     23.2569                 7.0157                57.3997

                     49                     50                     51
                      A                      A                      A
 Frequencies --   1083.5236              1122.2643              1137.9485
 Red. masses --      3.7776                 1.5434                 2.7878
 Frc consts  --      2.6130                 1.1453                 2.1270
 IR Inten    --     30.6384                16.9004                 5.5932

                     52                     53                     54
                      A                      A                      A
 Frequencies --   1148.7095              1192.0627              1206.5212
 Red. masses --      4.4156                 1.1030                 4.8610
 Frc consts  --      3.4329                 0.9235                 4.1691
 IR Inten    --     56.3232                 2.9646                39.1923

                     55                     56                     57
                      A                      A                      A
 Frequencies --   1218.8814              1244.7027              1302.2663
 Red. masses --      1.1586                 2.5138                 1.6798
 Frc consts  --      1.0142                 2.2946                 1.6784
 IR Inten    --      8.1249               333.9707                51.7838

                     58                     59                     60
                      A                      A                      A
 Frequencies --   1311.2211              1341.5670              1357.8353
 Red. masses --      3.4226                 3.1000                 2.4484
 Frc consts  --      3.4670                 3.2873                 2.6597
 IR Inten    --     66.0704               121.6993                14.6099

                     61                     62                     63
                      A                      A                      A
 Frequencies --   1362.7667              1379.2377              1417.0894
 Red. masses --      1.9950                 1.9440                 1.7208
 Frc consts  --      2.1829                 2.1789                 2.0360
 IR Inten    --    198.1259                 4.0232                96.5195

                     64                     65                     66
                      A                      A                      A
 Frequencies --   1425.5436              1440.7989              1493.6717
 Red. masses --      4.3434                 2.0624                 1.9529
 Frc consts  --      5.2004                 2.5225                 2.5671
 IR Inten    --     50.7732                18.8527                28.6115

                     67                     68                     69
                      A                      A                      A
 Frequencies --   1508.0304              1517.9841              1549.5481
 Red. masses --      2.0266                 1.1951                 2.4047
 Frc consts  --      2.7154                 1.6225                 3.4019
 IR Inten    --      4.6960                16.4207                80.0720

                     70                     71                     72
                      A                      A                      A
 Frequencies --   1553.3226              1632.5334              1653.3819
 Red. masses --      6.9862                 1.7709                 5.7805
 Frc consts  --      9.9315                 2.7807                 9.3103
 IR Inten    --     86.4929                54.2041                53.3236

                     73                     74                     75
                      A                      A                      A
 Frequencies --   1663.4927              1670.4952              1694.1927
 Red. masses --      5.9666                 6.1082                 2.4088
 Frc consts  --      9.7278                10.0428                 4.0737
 IR Inten    --    159.9795               133.3087               309.0840

                     76                     77                     78
                      A                      A                      A
 Frequencies --   1791.7817              3091.0905              3149.5349
 Red. masses --      8.4188                 1.0573                 1.1101
 Frc consts  --     15.9247                 5.9520                 6.4881
 IR Inten    --    435.7069                17.4798                 9.4633

                     79                     80                     81
                      A                      A                      A
 Frequencies --   3189.9898              3198.1943              3209.7242
 Red. masses --      1.0853                 1.0893                 1.0928
 Frc consts  --      6.5070                 6.5646                 6.6331
 IR Inten    --      0.9089                13.0824                24.4865

                     82                     83                     84
                      A                      A                      A
 Frequencies --   3217.7496              3238.0616              3563.2612
 Red. masses --      1.0973                 1.0930                 1.0469
 Frc consts  --      6.6941                 6.7524                 7.8315
 IR Inten    --     12.7027                 6.0201                86.2986

                     85                     86                     87
                      A                      A                      A
 Frequencies --   3573.6040              3587.5672              3673.2489
 Red. masses --      1.0756                 1.0829                 1.1005
 Frc consts  --      8.0930                 8.2120                 8.7483
 IR Inten    --     34.9505               496.5051                31.2924

 - Thermochemistry -
 -------------------
 Temperature   298.150 Kelvin.  Pressure   1.00000 Atm.
 Atom     1 has atomic number  6 and mass  12.00000

 Molecular mass:   289.06335 amu.
 Principal axes and moments of inertia in atomic units:
                           1         2         3
     Eigenvalues --  1995.88284********************
           X            1.00000   0.00139   0.00104
           Y           -0.00140   0.99998   0.00592
           Z           -0.00103  -0.00593   0.99998
 This molecule is an asymmetric top.
 Rotational symmetry number  1.
 Warning -- assumption of classical behavior for rotation
           may cause significant error
 Rotational temperatures (Kelvin)      0.04340     0.00662     0.00595
 Rotational constants (GHZ):           0.90423     0.13797     0.12400
 Zero-point vibrational energy     610471.0 (Joules/Mol)
                                  145.90608 (Kcal/Mol)
 Warning -- explicit consideration of  28 degrees of freedom as
           vibrations may cause significant error
 Vibrational temperatures:     20.44    56.15    60.20    81.22   124.39
          (Kelvin)            151.58   200.09   241.38   311.06   333.62
                              349.63   389.39   434.54   462.16   486.97
                              582.52   599.42   614.23   619.13   693.27
                              744.98   746.55   764.44   811.77   822.57
                              830.33   844.14   867.10   907.70   909.71
                              916.41   989.92  1004.62  1014.72  1054.33
                             1106.96  1150.40  1172.05  1200.84  1215.22
                             1298.26  1316.89  1390.83  1425.11  1467.18
                             1486.01  1519.50  1545.42  1558.95  1614.69
                             1637.25  1652.74  1715.11  1735.91  1753.70
                             1790.85  1873.67  1886.55  1930.22  1953.62
                             1960.72  1984.42  2038.88  2051.04  2072.99
                             2149.06  2169.72  2184.04  2229.45  2234.88
                             2348.85  2378.85  2393.40  2403.47  2437.57
                             2577.97  4447.39  4531.48  4589.68  4601.49
                             4618.08  4629.62  4658.85  5126.74  5141.62
                             5161.71  5284.99

 Zero-point correction=                           0.232516 (Hartree/Particle)
 Thermal correction to Energy=                    0.249444
 Thermal correction to Enthalpy=                  0.250388
 Thermal correction to Gibbs Free Energy=         0.185576
 Sum of electronic and zero-point Energies=          -1286.097851
 Sum of electronic and thermal Energies=             -1286.080923
 Sum of electronic and thermal Enthalpies=           -1286.079979
 Sum of electronic and thermal Free Energies=        -1286.144791

                     E (Thermal)             CV                S
                      KCal/Mol        Cal/Mol-Kelvin    Cal/Mol-Kelvin
 Total                  156.529             65.450            136.408
 Electronic               0.000              0.000              0.000
 Translational            0.889              2.981             42.882
 Rotational               0.889              2.981             34.296
 Vibrational            154.751             59.488             59.231
 Vibration     1          0.593              1.986              7.313
 Vibration     2          0.594              1.981              5.308
 Vibration     3          0.594              1.980              5.170
 Vibration     4          0.596              1.975              4.577
 Vibration     5          0.601              1.959              3.739
 Vibration     6          0.605              1.945              3.353
 Vibration     7          0.615              1.914              2.817
 Vibration     8          0.624              1.882              2.460
 Vibration     9          0.645              1.816              1.991
 Vibration    10          0.653              1.792              1.864
 Vibration    11          0.659              1.774              1.781
 Vibration    12          0.674              1.727              1.592
 Vibration    13          0.694              1.670              1.406
 Vibration    14          0.707              1.633              1.304
 Vibration    15          0.719              1.599              1.219
 Vibration    16          0.770              1.460              0.945
 Vibration    17          0.780              1.434              0.904
 Vibration    18          0.789              1.412              0.869
 Vibration    19          0.792              1.404              0.858
 Vibration    20          0.838              1.290              0.705
 Vibration    21          0.873              1.211              0.615
 Vibration    22          0.874              1.208              0.613
 Vibration    23          0.886              1.181              0.584
 Vibration    24          0.920              1.109              0.515
 Vibration    25          0.928              1.092              0.501
 Vibration    26          0.934              1.081              0.491
 Vibration    27          0.944              1.060              0.473
 Vibration    28          0.961              1.026              0.445

                           ! Non-Optimized Parameters !
 Normal termination of Gaussian 16 at Sun Dec 13 21:05:17 2020.

 ----------------------------------------------------------------------
 # B3LYP/6-311++G(d,p) empiricaldispersion=gd3bj scf=xqc pop=npa geom=c
 heck
 ----------------------------------------------------------------------

 ---------------------------------------
 CID_87857862_JID_10428_Energie_neutraal
 ---------------------------------------
 Structure from the checkpoint file:  "JID_10428.chk"
 Charge =  0 Multiplicity = 1

 SCF Done:  E(RB3LYP) =  -1286.60715155     A.U. after   15 cycles
 Normal termination of Gaussian 16 at Sun Dec 13 21:10:09 2020.

 ----------------------------------------------------------------------
 # B3LYP/6-311++G(d,p) empiricaldispersion=gd3bj scf=xqc pop=npa geom=c
 heck
 ----------------------------------------------------------------------

 -------------------------------------
 CID_87857862_JID_10428_Energie_kation
 -------------------------------------
 Structure from the checkpoint file:  "JID_10428.chk"
 Charge =  1 Multiplicity = 2

 SCF Done:  E(UB3LYP) =  -1286.31753839     A.U. after   33 cycles
 SCF Done:  E(UB3LYP) =  -1286.32145482     a.u. after   12 cycles
 Normal termination of Gaussian 16 at Sun Dec 13 23:43:06 2020.
 Gaussian 16:  ES64L-G16RevA.03 25-Dec-2016

 ----------------------------------------------------------------------
 # B3LYP/6-311++G(d,p) empiricaldispersion=gd3bj scf=xqc pop=npa geom=c
 heck
 ----------------------------------------------------------------------

 ------------------------------------
 CID_87857862_JID_10428_Energie_anion
 ------------------------------------
 Structure from the checkpoint file:  "JID_10428.chk"
 Charge = -1 Multiplicity = 2

                         Standard orientation:
 ---------------------------------------------------------------------
 Center     Atomic      Atomic             Coordinates (Angstroms)
 Number     Number       Type             X           Y           Z
 ---------------------------------------------------------------------
      1          6           0       -5.749747   -0.683062   -0.792448
      2          6           0       -4.991868   -1.814343   -0.477129
      3          6           0       -3.727776   -1.679116    0.087475
      4          6           0       -3.215480   -0.402039    0.333903
      5          6           0       -3.954018    0.739513    0.018943
      6          6           0       -5.225081    0.582601   -0.542174
      7          8           0       -1.950924   -0.380732    0.897202
      8          6           0       -1.428259    0.852702    1.387626
      9          6           0       -0.914663    1.776275    0.277449
     10          8           0       -1.465221    2.832560    0.004923
     11          7           0        0.196090    1.357650   -0.422810
     12          6           0        1.049053    0.275197   -0.183272
     13          6           0        2.426219    0.196884   -0.177714
     14          6           0        2.715012   -1.175896    0.063818
     15          7           0        1.617113   -1.910144    0.216769
     16          7           0        0.617229   -1.010787    0.028573
     17          7           0        4.048648   -1.534290    0.096604
     18          6           0        4.775354   -0.485333   -0.104147
     19         16           0        3.906697    1.100548   -0.354991
     20          7           0        6.144119   -0.464719   -0.067095
     21          1           0       -6.736825   -0.790429   -1.231466
     22          1           0       -5.387580   -2.808053   -0.666192
     23          1           0       -3.130638   -2.546381    0.351589
     24          1           0       -3.549797    1.732365    0.173953
     25          1           0       -5.800403    1.469870   -0.790430
     26          1           0       -2.187390    1.403116    1.948312
     27          1           0       -0.610907    0.570072    2.056735
     28          1           0        0.484527    2.016709   -1.137828
     29          1           0       -0.348705   -1.277958    0.181438
     30          1           0        6.611261    0.229085   -0.635418
     31          1           0        6.563595   -1.386050   -0.106112
 ---------------------------------------------------------------------

 SCF Done:  E(UB3LYP) =  -1286.60433229     A.U. after   33 cycles
 SCF Done:  E(UB3LYP) =  -1286.60433229     a.u. after    1 cycles

 The electronic state is 2-A.
 Alpha  occ. eigenvalues --  -88.78159 -19.08198 -19.00023 -14.28048 -14.26679
 Alpha  occ. eigenvalues --  -14.23632 -14.22706 -14.20739 -10.17854 -10.17774
 Alpha  occ. eigenvalues --  -10.15965 -10.15728 -10.15399 -10.12236 -10.09887
 Alpha  occ. eigenvalues --  -10.09754 -10.09555 -10.09351 -10.09131 -10.08946
 Alpha  occ. eigenvalues --   -7.86721  -5.83056  -5.82733  -5.82167  -0.99580
 Alpha  occ. eigenvalues --   -0.95787  -0.94908  -0.88190  -0.84976  -0.80660
 Alpha  occ. eigenvalues --   -0.77702  -0.71675  -0.70520  -0.68846  -0.67115
 Alpha  occ. eigenvalues --   -0.64850  -0.63380  -0.54998  -0.53712  -0.53452
 Alpha  occ. eigenvalues --   -0.51971  -0.50349  -0.47595  -0.46188  -0.44669
 Alpha  occ. eigenvalues --   -0.43069  -0.41598  -0.41463  -0.40615  -0.39291
 Alpha  occ. eigenvalues --   -0.37222  -0.36488  -0.36198  -0.35401  -0.35068
 Alpha  occ. eigenvalues --   -0.33945  -0.32815  -0.31570  -0.30769  -0.30503
 Alpha  occ. eigenvalues --   -0.29731  -0.28687  -0.28196  -0.26027  -0.25624
 Alpha  occ. eigenvalues --   -0.22770  -0.21791  -0.20337  -0.19218  -0.18169
 Alpha  occ. eigenvalues --   -0.18026  -0.17733  -0.15159  -0.12262  -0.12134
 Alpha  occ. eigenvalues --    0.03953
 Alpha virt. eigenvalues --    0.05212   0.05837   0.05948   0.07263   0.07408
 Alpha virt. eigenvalues --    0.07596   0.08181   0.08509   0.08961   0.09378
 Alpha virt. eigenvalues --    0.10100   0.10805   0.11044   0.11870   0.12054

  Beta  occ. eigenvalues --  -88.78150 -19.08146 -18.99821 -14.27986 -14.26681
  Beta  occ. eigenvalues --  -14.23530 -14.22646 -14.20731 -10.17821 -10.17537
  Beta  occ. eigenvalues --  -10.15944 -10.15733 -10.15405 -10.12244 -10.09857
  Beta  occ. eigenvalues --  -10.09742 -10.09486 -10.09359 -10.09064 -10.08924
  Beta  occ. eigenvalues --   -7.86708  -5.83049  -5.82725  -5.82159  -0.99462
  Beta  occ. eigenvalues --   -0.95599  -0.94647  -0.88127  -0.84861  -0.80552
  Beta  occ. eigenvalues --   -0.77616  -0.71599  -0.70441  -0.68738  -0.67004
  Beta  occ. eigenvalues --   -0.64757  -0.63239  -0.54808  -0.53569  -0.53292
  Beta  occ. eigenvalues --   -0.51905  -0.50287  -0.47496  -0.46126  -0.44577
  Beta  occ. eigenvalues --   -0.42967  -0.41444  -0.41324  -0.40548  -0.39177
  Beta  occ. eigenvalues --   -0.37162  -0.36419  -0.36065  -0.35279  -0.34893
  Beta  occ. eigenvalues --   -0.33789  -0.32714  -0.31141  -0.30587  -0.30131
  Beta  occ. eigenvalues --   -0.29677  -0.28627  -0.28108  -0.25966  -0.25466
  Beta  occ. eigenvalues --   -0.22360  -0.21657  -0.20263  -0.19063  -0.18034
  Beta  occ. eigenvalues --   -0.17649  -0.17581  -0.14969  -0.12088  -0.11885
  Beta virt. eigenvalues --    0.05799   0.06377   0.06939   0.07353   0.07444
  Beta virt. eigenvalues --    0.07553   0.07997   0.08244   0.08834   0.09240
  Beta virt. eigenvalues --    0.09633   0.10135   0.10883   0.11304   0.12025

 Mulliken charges and spin densities:
               1          2
     1  C   -0.257719  -0.011269
     2  C   -0.161540   0.023999
     3  C   -0.289376   0.135453
     4  C   -0.277556   0.062561
     5  C    0.268374  -0.072006
     6  C   -0.297855   0.060641
     7  O   -0.058921   0.002572
     8  C   -0.051954  -0.234190
     9  C   -0.108624   0.255404
    10  O   -0.333193   0.064429
    11  N   -0.219058   0.012318
    12  C    0.225032  -0.029371
    13  C    0.651910  -0.218134
    14  C    0.006542  -0.420251
    15  N   -0.100619   0.070108
    16  N   -0.224182  -0.011101
    17  N   -0.037535  -0.104895
    18  C    0.293220  -0.416001
    19  S   -0.483965   0.120431
    20  N   -0.320698   0.099790
    21  H    0.119885   0.000741
    22  H    0.148598  -0.001518
    23  H    0.141783   0.007645
    24  H    0.181283  -0.004639
    25  H    0.166515  -0.004251
    26  H    0.193888   0.005382
    27  H    0.134800   0.082442
    28  H    0.248650   0.064555
    29  H    0.363031  -0.006915
    30  H   -0.732974   1.005086
    31  H   -0.187742   0.460983
 Sum of Mulliken charges =  -1.00000   1.00000

 Dipole moment (field-independent basis, Debye):
    X=            -12.4723    Y=              0.4424    Z=              1.0450  Tot=             12.5238
 Quadrupole moment (field-independent basis, Debye-Ang):
   XX=           -261.9887   YY=           -157.0749   ZZ=           -137.2694
   XY=             11.0290   XZ=              9.1965   YZ=              2.8204

 Summary of Natural Population Analysis:

                                       Natural Population
                Natural  -----------------------------------------------
    Atom  No    Charge         Core      Valence    Rydberg      Total
 -----------------------------------------------------------------------
      C    1   -0.12313      0.99957     2.11427    0.00929     3.12313
      C    2   -0.09290      0.99958     2.08465    0.00868     3.09290
      C    3   -0.11230      0.99952     2.10423    0.00855     3.11230
      C    4    0.15855      0.99937     1.82935    0.01273     2.84145
      C    5   -0.14034      0.99951     2.13347    0.00737     3.14034
      C    6   -0.08098      0.99958     2.07251    0.00889     3.08098
      O    7   -0.28435      0.99986     3.27419    0.01030     4.28435
      C    8   -0.05532      0.99954     2.04514    0.01065     3.05532
      C    9    0.35728      0.99970     1.62125    0.02177     2.64272
      O   10   -0.29857      0.99988     3.29292    0.00577     4.29857
      N   11   -0.31532      0.99964     2.80731    0.00837     3.81532
      C   12    0.15073      0.99942     1.83685    0.01299     2.84927
      C   13   -0.16490      0.99927     2.15630    0.00933     3.16490
      C   14    0.15300      0.99946     1.83026    0.01728     2.84700
      N   15   -0.15294      0.99969     2.64093    0.01232     3.65294
      N   16   -0.17354      0.99966     2.66198    0.01190     3.67354
      N   17   -0.27009      0.99959     2.75922    0.01128     3.77009
      C   18    0.16300      0.99961     1.81475    0.02264     2.83700
      S   19    0.14503      4.99949     2.83565    0.01983     7.85497
      N   20   -0.39356      0.99968     2.88156    0.01231     3.89356
      H   21    0.09709      0.00000     0.40199    0.00093     0.40291
      H   22    0.09731      0.00000     0.40179    0.00090     0.40269
      H   23    0.10511      0.00000     0.39394    0.00094     0.39489
      H   24    0.11978      0.00000     0.37860    0.00162     0.38022
      H   25    0.09746      0.00000     0.40163    0.00091     0.40254
      H   26    0.09816      0.00000     0.40038    0.00145     0.40184
      H   27    0.10472      0.00000     0.39409    0.00119     0.39528
      H   28    0.20103      0.00000     0.29604    0.00293     0.29897
      H   29    0.21043      0.00000     0.28662    0.00295     0.28957
      H   30    0.20046      0.00000     0.27644    0.02310     0.29954
      H   31    0.19909      0.00000     0.29621    0.00470     0.30091
 =======================================================================
   * Total *   -0.00000     23.99162    50.72453    0.28386    75.00000

 Normal termination of Gaussian 16 at Sun Dec 13 23:56:59 2020.
