 Gaussian 16, Revision A.03,

 -----------------------------------------------------------
 # opt freq B3LYP/6-31G(d) empiricaldispersion=gd3bj scf=xqc
 -----------------------------------------------------------

 -------------------------------
 CID_117203097_JID_3063_neutraal
 -------------------------------
 Symbolic Z-matrix:
 Charge =  0 Multiplicity = 1

 SCF Done:  E(RB3LYP) =  -881.203940403     A.U. after   14 cycles
 SCF Done:  E(RB3LYP) =  -881.206374647     A.U. after   11 cycles
 SCF Done:  E(RB3LYP) =  -881.206574486     A.U. after   10 cycles
 SCF Done:  E(RB3LYP) =  -881.206603905     A.U. after    9 cycles
 SCF Done:  E(RB3LYP) =  -881.206615123     A.U. after    9 cycles
 SCF Done:  E(RB3LYP) =  -881.206616526     A.U. after    7 cycles
 SCF Done:  E(RB3LYP) =  -881.206616870     A.U. after    7 cycles
 SCF Done:  E(RB3LYP) =  -881.206616930     A.U. after    7 cycles
 SCF Done:  E(RB3LYP) =  -881.206616947     A.U. after    6 cycles
 Optimization completed.
    -- Stationary point found.
 Normal termination of Gaussian 16 at Wed Dec  9 22:21:12 2020.

 --------------------------------------------------------------------
 #N Geom=AllCheck Guess=TCheck SCRF=Check GenChk RB3LYP/6-31G(d) Freq
 --------------------------------------------------------------------

 Structure from the checkpoint file:  "JID_3063.chk"
 -------------------------------
 CID_117203097_JID_3063_neutraal
 -------------------------------
 Charge =  0 Multiplicity = 1

 SCF Done:  E(RB3LYP) =  -881.206616947     A.U. after    1 cycles

  Exact polarizability: 165.991  -5.157 152.354  -7.128  -7.741  83.079
 Approx polarizability: 245.752 -11.112 238.673 -20.966 -18.855 131.606

                      1                      2                      3
                      A                      A                      A
 Frequencies --     56.1815                71.5572               101.8953
 Red. masses --      4.1976                 3.7447                 1.9728
 Frc consts  --      0.0078                 0.0113                 0.0121
 IR Inten    --      0.9356                 0.0379                 4.6859

                      4                      5                      6
                      A                      A                      A
 Frequencies --    123.3804               143.3752               188.0993
 Red. masses --      2.9125                 3.1413                 4.4680
 Frc consts  --      0.0261                 0.0380                 0.0931
 IR Inten    --      1.6487                 1.5773                 0.1130

                      7                      8                      9
                      A                      A                      A
 Frequencies --    239.2843               245.7146               258.3966
 Red. masses --      1.0669                 3.0160                 1.1811
 Frc consts  --      0.0360                 0.1073                 0.0465
 IR Inten    --      0.1500                 3.3301                37.2800

                     10                     11                     12
                      A                      A                      A
 Frequencies --    269.8649               325.3663               364.7639
 Red. masses --      3.5121                 3.0949                 2.5633
 Frc consts  --      0.1507                 0.1930                 0.2009
 IR Inten    --      0.6747                12.0494                 6.3634

                     13                     14                     15
                      A                      A                      A
 Frequencies --    387.4376               400.5847               495.4239
 Red. masses --      3.8307                 4.3758                 5.4332
 Frc consts  --      0.3388                 0.4137                 0.7857
 IR Inten    --      1.7076                 4.0107                 0.5022

                     16                     17                     18
                      A                      A                      A
 Frequencies --    520.3958               550.3146               568.7887
 Red. masses --      4.0613                 3.8254                 4.4103
 Frc consts  --      0.6480                 0.6826                 0.8407
 IR Inten    --      2.0990                 0.4881                 3.5858

                     19                     20                     21
                      A                      A                      A
 Frequencies --    613.0244               678.7261               722.4829
 Red. masses --      5.0374                 5.1280                 4.8632
 Frc consts  --      1.1154                 1.3918                 1.4956
 IR Inten    --      0.8804                13.5044                 4.2105

                     22                     23                     24
                      A                      A                      A
 Frequencies --    760.4549               793.3580               795.8469
 Red. masses --      2.3464                 2.1291                 1.7687
 Frc consts  --      0.7995                 0.7896                 0.6600
 IR Inten    --     11.3168                 9.5453                21.4874

                     25                     26                     27
                      A                      A                      A
 Frequencies --    801.5314               863.7753               882.1716
 Red. masses --      1.4422                 2.2509                 1.3825
 Frc consts  --      0.5459                 0.9895                 0.6339
 IR Inten    --      4.5867                 6.1517               121.8660

                     28                     29                     30
                      A                      A                      A
 Frequencies --    893.4147               908.1245               937.5514
 Red. masses --      1.4888                 2.7234                 1.6692
 Frc consts  --      0.7002                 1.3233                 0.8645
 IR Inten    --     15.5233                13.6270                 1.0851

                     31                     32                     33
                      A                      A                      A
 Frequencies --    965.9808               982.5131              1021.7849
 Red. masses --      1.2856                 2.2002                 1.7819
 Frc consts  --      0.7068                 1.2514                 1.0961
 IR Inten    --      0.2933                 1.7696                 2.1877

                     34                     35                     36
                      A                      A                      A
 Frequencies --   1057.0248              1078.5605              1090.0082
 Red. masses --      2.2287                 1.5779                 2.4038
 Frc consts  --      1.4671                 1.0815                 1.6827
 IR Inten    --     19.9564                 5.2641                 7.2404

                     37                     38                     39
                      A                      A                      A
 Frequencies --   1108.7236              1121.1653              1152.4329
 Red. masses --      1.7535                 1.6618                 1.9189
 Frc consts  --      1.2700                 1.2307                 1.5015
 IR Inten    --      7.1230                 3.3214                 9.5983

                     40                     41                     42
                      A                      A                      A
 Frequencies --   1175.4590              1191.7628              1203.0260
 Red. masses --      1.5733                 1.6336                 1.2405
 Frc consts  --      1.2808                 1.3670                 1.0578
 IR Inten    --      4.0780                 1.4188                 1.3935

                     43                     44                     45
                      A                      A                      A
 Frequencies --   1241.3370              1265.2688              1279.7738
 Red. masses --      1.9274                 1.5451                 1.4483
 Frc consts  --      1.7499                 1.4573                 1.3976
 IR Inten    --      5.4836                 2.4972                 2.7634

                     46                     47                     48
                      A                      A                      A
 Frequencies --   1297.2333              1325.4219              1340.7204
 Red. masses --      1.6202                 1.8028                 1.2296
 Frc consts  --      1.6064                 1.8660                 1.3022
 IR Inten    --      2.8840                 3.6942                 3.5988

                     49                     50                     51
                      A                      A                      A
 Frequencies --   1355.8796              1364.2991              1372.6834
 Red. masses --      1.4642                 1.6929                 1.9343
 Frc consts  --      1.5859                 1.8565                 2.1474
 IR Inten    --      2.9035                 4.1381                 0.9083

                     52                     53                     54
                      A                      A                      A
 Frequencies --   1432.9347              1441.6312              1477.4500
 Red. masses --      1.2285                 1.4141                 2.6563
 Frc consts  --      1.4862                 1.7316                 3.4163
 IR Inten    --      6.0211                18.2129                14.0962

                     55                     56                     57
                      A                      A                      A
 Frequencies --   1508.5206              1513.7745              1521.5681
 Red. masses --      1.1205                 2.1145                 1.1452
 Frc consts  --      1.5024                 2.8548                 1.5621
 IR Inten    --      8.3038                 9.8480                 3.7259

                     58                     59                     60
                      A                      A                      A
 Frequencies --   1526.7390              1530.6658              1546.8286
 Red. masses --      1.0637                 1.0816                 1.0907
 Frc consts  --      1.4608                 1.4930                 1.5376
 IR Inten    --      4.5483                 0.8995                 3.4207

                     61                     62                     63
                      A                      A                      A
 Frequencies --   1634.3571              1646.5441              1696.8800
 Red. masses --      6.4468                 6.0988                 1.0900
 Frc consts  --     10.1459                 9.7419                 1.8491
 IR Inten    --     32.6791                 4.4622                26.2370

                     64                     65                     66
                      A                      A                      A
 Frequencies --   2963.6639              3051.9055              3053.0181
 Red. masses --      1.0731                 1.0727                 1.0376
 Frc consts  --      5.5531                 5.8867                 5.6983
 IR Inten    --     76.4601                 2.4028                28.0001

                     67                     68                     69
                      A                      A                      A
 Frequencies --   3058.2718              3074.5733              3083.7973
 Red. masses --      1.0688                 1.0879                 1.0619
 Frc consts  --      5.8896                 6.0590                 5.9498
 IR Inten    --     34.7437                13.8072                33.9897

                     70                     71                     72
                      A                      A                      A
 Frequencies --   3099.5830              3121.9307              3137.2994
 Red. masses --      1.1032                 1.1008                 1.1024
 Frc consts  --      6.2445                 6.3215                 6.3929
 IR Inten    --     40.0016                29.1603                16.7040

                     73                     74                     75
                      A                      A                      A
 Frequencies --   3142.3595              3178.8499              3195.3852
 Red. masses --      1.1064                 1.0866                 1.0907
 Frc consts  --      6.4368                 6.4692                 6.5615
 IR Inten    --     14.2911                 6.6191                17.0535

                     76                     77                     78
                      A                      A                      A
 Frequencies --   3210.5369              3460.2824              3545.7677
 Red. masses --      1.0957                 1.0501                 1.0919
 Frc consts  --      6.6543                 7.4081                 8.0881
 IR Inten    --     20.9729                 2.9778                 0.6700

 - Thermochemistry -
 -------------------
 Temperature   298.150 Kelvin.  Pressure   1.00000 Atm.
 Atom     1 has atomic number  6 and mass  12.00000

 Molecular mass:   193.09252 amu.
 Principal axes and moments of inertia in atomic units:
                           1         2         3
     Eigenvalues --  1622.963743546.971714815.90783
           X            0.99997   0.00441   0.00628
           Y           -0.00441   0.99999   0.00078
           Z           -0.00627  -0.00080   0.99998
 This molecule is an asymmetric top.
 Rotational symmetry number  1.
 Warning -- assumption of classical behavior for rotation
           may cause significant error
 Rotational temperatures (Kelvin)      0.05337     0.02442     0.01798
 Rotational constants (GHZ):           1.11200     0.50881     0.37475
 Zero-point vibrational energy     632869.2 (Joules/Mol)
                                  151.25936 (Kcal/Mol)
 Warning -- explicit consideration of  19 degrees of freedom as
           vibrations may cause significant error
 Vibrational temperatures:     80.83   102.95   146.60   177.52   206.28
          (Kelvin)            270.63   344.28   353.53   371.78   388.28
                              468.13   524.81   557.44   576.35   712.80
                              748.73   791.78   818.36   882.01   976.54
                             1039.49  1094.12  1141.47  1145.05  1153.22
                             1242.78  1269.25  1285.42  1306.59  1348.93
                             1389.83  1413.62  1470.12  1520.82  1551.81
                             1568.28  1595.21  1613.11  1658.09  1691.22
                             1714.68  1730.89  1786.01  1820.44  1841.31
                             1866.43  1906.99  1929.00  1950.81  1962.92
                             1974.99  2061.67  2074.19  2125.72  2170.42
                             2177.98  2189.20  2196.64  2202.29  2225.54
                             2351.48  2369.01  2441.43  4264.05  4391.01
                             4392.61  4400.17  4423.63  4436.90  4459.61
                             4491.76  4513.87  4521.15  4573.66  4597.45
                             4619.25  4978.57  5101.57

 Zero-point correction=                           0.241047 (Hartree/Particle)
 Thermal correction to Energy=                    0.253693
 Thermal correction to Enthalpy=                  0.254638
 Thermal correction to Gibbs Free Energy=         0.201973
 Sum of electronic and zero-point Energies=           -880.965570
 Sum of electronic and thermal Energies=              -880.952924
 Sum of electronic and thermal Enthalpies=            -880.951979
 Sum of electronic and thermal Free Energies=         -881.004644

                     E (Thermal)             CV                S
                      KCal/Mol        Cal/Mol-Kelvin    Cal/Mol-Kelvin
 Total                  159.195             48.853            110.842
 Electronic               0.000              0.000              0.000
 Translational            0.889              2.981             41.679
 Rotational               0.889              2.981             31.695
 Vibrational            157.418             42.891             37.468
 Vibration     1          0.596              1.975              4.587
 Vibration     2          0.598              1.968              4.110
 Vibration     3          0.604              1.948              3.418
 Vibration     4          0.610              1.930              3.047
 Vibration     5          0.616              1.910              2.758
 Vibration     6          0.633              1.856              2.246
 Vibration     7          0.657              1.780              1.808
 Vibration     8          0.660              1.770              1.761
 Vibration     9          0.667              1.749              1.673
 Vibration    10          0.674              1.729              1.597
 Vibration    11          0.709              1.625              1.283
 Vibration    12          0.738              1.545              1.102
 Vibration    13          0.756              1.497              1.010
 Vibration    14          0.766              1.469              0.961
 Vibration    15          0.851              1.260              0.670
 Vibration    16          0.875              1.205              0.609
 Vibration    17          0.906              1.139              0.544
 Vibration    18          0.925              1.099              0.507
 Vibration    19          0.972              1.004              0.428

 Optimization completed.
    -- Stationary point found.
 Normal termination of Gaussian 16 at Wed Dec  9 22:28:46 2020.

 ----------------------------------------------------------------------
 # B3LYP/6-311++G(d,p) empiricaldispersion=gd3bj scf=xqc pop=npa geom=c
 heck
 ----------------------------------------------------------------------

 ---------------------------------------
 CID_117203097_JID_3063_Energie_neutraal
 ---------------------------------------
 Structure from the checkpoint file:  "JID_3063.chk"
 Charge =  0 Multiplicity = 1

 SCF Done:  E(RB3LYP) =  -881.366995789     A.U. after   15 cycles
 Normal termination of Gaussian 16 at Wed Dec  9 22:31:51 2020.

 ----------------------------------------------------------------------
 # B3LYP/6-311++G(d,p) empiricaldispersion=gd3bj scf=xqc pop=npa geom=c
 heck
 ----------------------------------------------------------------------

 -------------------------------------
 CID_117203097_JID_3063_Energie_kation
 -------------------------------------
 Structure from the checkpoint file:  "JID_3063.chk"
 Charge =  1 Multiplicity = 2

 SCF Done:  E(UB3LYP) =  -881.090449255     A.U. after   27 cycles
 Normal termination of Gaussian 16 at Wed Dec  9 22:39:09 2020.
 Gaussian 16:  ES64L-G16RevA.03 25-Dec-2016

 ----------------------------------------------------------------------
 # B3LYP/6-311++G(d,p) empiricaldispersion=gd3bj scf=xqc pop=npa geom=c
 heck
 ----------------------------------------------------------------------

 ------------------------------------
 CID_117203097_JID_3063_Energie_anion
 ------------------------------------
 Structure from the checkpoint file:  "JID_3063.chk"
 Charge = -1 Multiplicity = 2

                         Standard orientation:
 ---------------------------------------------------------------------
 Center     Atomic      Atomic             Coordinates (Angstroms)
 Number     Number       Type             X           Y           Z
 ---------------------------------------------------------------------
      1          6           0        0.172623   -2.226273   -0.890077
      2          6           0        0.585090   -1.488360    0.395330
      3          6           0        2.088175   -1.660497    0.696087
      4         16           0        2.968048   -0.304627   -0.196762
      5          6           0        1.516463    0.720685   -0.084071
      6          6           0        1.492019    2.092956   -0.315296
      7          6           0        0.277276    2.767274   -0.173954
      8          6           0       -0.876294    2.076413    0.187794
      9          6           0       -0.860503    0.688284    0.403874
     10          6           0        0.355497    0.009236    0.267173
     11          6           0       -2.155988   -0.014787    0.743039
     12          6           0       -3.104784   -0.110585   -0.461111
     13          7           0       -4.357056   -0.759527   -0.064192
     14          1           0        0.351978   -3.303622   -0.795811
     15          1           0        0.746963   -1.853372   -1.744485
     16          1           0       -0.889064   -2.073404   -1.105083
     17          1           0        0.018165   -1.903028    1.237268
     18          1           0        2.290266   -1.553462    1.765840
     19          1           0        2.476691   -2.623232    0.355904
     20          1           0        2.398653    2.628406   -0.579352
     21          1           0        0.237263    3.841263   -0.333346
     22          1           0       -1.811031    2.617259    0.312985
     23          1           0       -1.961009   -1.024612    1.122480
     24          1           0       -2.682632    0.521884    1.540700
     25          1           0       -3.343967    0.902025   -0.806143
     26          1           0       -2.577759   -0.605581   -1.296230
     27          1           0       -5.005116   -0.768253   -0.850037
     28          1           0       -4.176224   -1.737634    0.160113
 ---------------------------------------------------------------------

 SCF Done:  E(UB3LYP) =  -881.354761171     A.U. after   33 cycles
 SCF Done:  E(UB3LYP) =  -881.354761171     a.u. after    1 cycles

 The electronic state is 2-A.
 Alpha  occ. eigenvalues --  -88.75060 -14.18581 -10.10674 -10.10151 -10.08982
 Alpha  occ. eigenvalues --  -10.08785 -10.08722 -10.08264 -10.08239 -10.08210
 Alpha  occ. eigenvalues --  -10.07466 -10.06893 -10.05542  -7.83686  -5.80052
 Alpha  occ. eigenvalues --   -5.79715  -5.79092  -0.78688  -0.77644  -0.72750
 Alpha  occ. eigenvalues --   -0.69243  -0.64747  -0.63038  -0.60876  -0.56174
 Alpha  occ. eigenvalues --   -0.52585  -0.50529  -0.47969  -0.46212  -0.40713
 Alpha  occ. eigenvalues --   -0.38779  -0.38104  -0.36383  -0.35980  -0.35118
 Alpha  occ. eigenvalues --   -0.32649  -0.32050  -0.30378  -0.30243  -0.28659
 Alpha  occ. eigenvalues --   -0.27670  -0.27281  -0.26000  -0.25698  -0.25014
 Alpha  occ. eigenvalues --   -0.24167  -0.23103  -0.21847  -0.18850  -0.15137
 Alpha  occ. eigenvalues --   -0.13988  -0.11323   0.04543
 Alpha virt. eigenvalues --    0.06736   0.07009   0.07712   0.08032   0.08411
 Alpha virt. eigenvalues --    0.08597   0.09242   0.09989   0.10462   0.10914
 Alpha virt. eigenvalues --    0.11706   0.12013   0.12428   0.13410   0.13768

  Beta  occ. eigenvalues --  -88.75057 -14.18525 -10.10655 -10.10112 -10.08964
  Beta  occ. eigenvalues --  -10.08773 -10.08720 -10.08257 -10.08213 -10.08194
  Beta  occ. eigenvalues --  -10.07452 -10.06877 -10.05495  -7.83683  -5.80044
  Beta  occ. eigenvalues --   -5.79712  -5.79090  -0.78638  -0.77561  -0.72707
  Beta  occ. eigenvalues --   -0.69201  -0.64692  -0.62973  -0.60824  -0.56103
  Beta  occ. eigenvalues --   -0.52520  -0.50455  -0.47914  -0.46160  -0.40679
  Beta  occ. eigenvalues --   -0.38743  -0.38047  -0.36316  -0.35923  -0.35071
  Beta  occ. eigenvalues --   -0.32607  -0.32004  -0.30317  -0.30208  -0.28599
  Beta  occ. eigenvalues --   -0.27622  -0.27236  -0.25935  -0.25642  -0.24977
  Beta  occ. eigenvalues --   -0.24125  -0.23065  -0.21801  -0.18748  -0.15043
  Beta  occ. eigenvalues --   -0.13932  -0.11258
  Beta virt. eigenvalues --    0.06747   0.07292   0.07725   0.07973   0.08331
  Beta virt. eigenvalues --    0.08603   0.09149   0.09959   0.10147   0.10807
  Beta virt. eigenvalues --    0.11384   0.12099   0.12324   0.12699   0.13824

 Mulliken charges and spin densities:
               1          2
     1  C    1.478074  -2.294662
     2  C   -2.227915   2.660137
     3  C    0.426367  -1.017030
     4  S   -0.418261  -0.272826
     5  C    0.280432  -0.087968
     6  C    0.698633  -0.120478
     7  C   -0.679685   0.139789
     8  C   -0.056610  -0.229173
     9  C    0.888013  -0.201135
    10  C    0.572619  -1.088314
    11  C   -0.460831   0.374409
    12  C    0.653631  -1.249591
    13  N   -0.366892   0.033031
    14  H   -0.545816   0.700259
    15  H   -0.050117   0.210686
    16  H   -0.123419   0.236034
    17  H   -0.499805   0.740412
    18  H   -0.074877   0.300139
    19  H   -0.322329   0.521091
    20  H    0.147542   0.007825
    21  H    0.099395   0.034966
    22  H    0.130417   0.013904
    23  H   -0.029297   0.176477
    24  H    0.060719   0.103834
    25  H   -0.156931   0.299933
    26  H    0.016806   0.111228
    27  H   -0.242247   0.481655
    28  H   -0.197618   0.415367
 Sum of Mulliken charges =  -1.00000   1.00000

 Dipole moment (field-independent basis, Debye):
    X=              5.4317    Y=              8.1536    Z=             -0.0550  Tot=              9.7973
 Quadrupole moment (field-independent basis, Debye-Ang):
   XX=           -162.1364   YY=           -136.1795   ZZ=           -115.9052
   XY=             -6.1988   XZ=             -3.9537   YZ=             -0.8022

 Summary of Natural Population Analysis:

                                       Natural Population
                Natural  -----------------------------------------------
    Atom  No    Charge         Core      Valence    Rydberg      Total
 -----------------------------------------------------------------------
      C    1   -0.28152      0.99964     2.27508    0.00680     3.28152
      C    2   -0.12633      0.99957     2.11299    0.01377     3.12633
      C    3   -0.22983      0.99959     2.21960    0.01064     3.22983
      S    4    0.10980      4.99955     2.87167    0.01899     7.89020
      C    5   -0.07192      0.99936     2.06173    0.01083     3.07192
      C    6   -0.12164      0.99949     2.11219    0.00996     3.12164
      C    7   -0.09358      0.99957     2.08436    0.00964     3.09358
      C    8   -0.10590      0.99952     2.09780    0.00858     3.10590
      C    9   -0.00354      0.99945     1.99368    0.01040     3.00354
      C   10   -0.01829      0.99940     2.00755    0.01134     3.01829
      C   11   -0.20342      0.99959     2.19357    0.01025     3.20342
      C   12   -0.08156      0.99963     2.07139    0.01054     3.08156
      N   13   -0.42321      0.99977     2.91280    0.01064     3.92321
      H   14    0.10330      0.00000     0.39435    0.00235     0.39670
      H   15    0.09964      0.00000     0.39895    0.00141     0.40036
      H   16    0.10328      0.00000     0.39515    0.00157     0.39672
      H   17    0.11006      0.00000     0.38708    0.00286     0.38994
      H   18    0.10230      0.00000     0.39595    0.00175     0.39770
      H   19    0.10893      0.00000     0.38961    0.00146     0.39107
      H   20    0.10039      0.00000     0.39867    0.00094     0.39961
      H   21    0.09692      0.00000     0.40232    0.00076     0.40308
      H   22    0.09885      0.00000     0.40015    0.00100     0.40115
      H   23    0.10248      0.00000     0.39578    0.00174     0.39752
      H   24    0.10453      0.00000     0.39411    0.00136     0.39547
      H   25    0.08648      0.00000     0.41205    0.00148     0.41352
      H   26    0.08007      0.00000     0.41790    0.00204     0.41993
      H   27    0.17735      0.00000     0.31942    0.00323     0.32265
      H   28    0.17635      0.00000     0.31958    0.00407     0.32365
 =======================================================================
   * Total *   -0.00000     16.99413    34.83548    0.17038    52.00000

 Normal termination of Gaussian 16 at Wed Dec  9 22:47:48 2020.
