 Gaussian 16, Revision A.03,

 -----------------------------------------------------------
 # opt freq B3LYP/6-31G(d) empiricaldispersion=gd3bj scf=xqc
 -----------------------------------------------------------

 -------------------------------
 CID_130595772_JID_5635_neutraal
 -------------------------------
 Symbolic Z-matrix:
 Charge =  0 Multiplicity = 1

 SCF Done:  E(RB3LYP) =  -651.684676474     A.U. after   15 cycles
 SCF Done:  E(RB3LYP) =  -651.687914215     A.U. after   13 cycles
 SCF Done:  E(RB3LYP) =  -651.688405973     A.U. after   13 cycles
 SCF Done:  E(RB3LYP) =  -651.688998514     A.U. after   13 cycles
 SCF Done:  E(RB3LYP) =  -651.689242262     A.U. after   12 cycles
 SCF Done:  E(RB3LYP) =  -651.689314491     A.U. after   12 cycles
 SCF Done:  E(RB3LYP) =  -651.689332273     A.U. after   11 cycles
 SCF Done:  E(RB3LYP) =  -651.689339199     A.U. after   10 cycles
 SCF Done:  E(RB3LYP) =  -651.689341831     A.U. after   10 cycles
 SCF Done:  E(RB3LYP) =  -651.689343093     A.U. after    9 cycles
 SCF Done:  E(RB3LYP) =  -651.689343763     A.U. after    8 cycles
 SCF Done:  E(RB3LYP) =  -651.689344059     A.U. after    8 cycles
 SCF Done:  E(RB3LYP) =  -651.689344145     A.U. after    8 cycles
 Optimization completed.
    -- Stationary point found.
 Normal termination of Gaussian 16 at Thu Dec 10 16:33:08 2020.

 --------------------------------------------------------------------
 #N Geom=AllCheck Guess=TCheck SCRF=Check GenChk RB3LYP/6-31G(d) Freq
 --------------------------------------------------------------------

 Structure from the checkpoint file:  "JID_5635.chk"
 -------------------------------
 CID_130595772_JID_5635_neutraal
 -------------------------------
 Charge =  0 Multiplicity = 1

 SCF Done:  E(RB3LYP) =  -651.689344145     A.U. after    1 cycles

  Exact polarizability: 167.471  20.502 126.128  -2.043   6.123 111.984
 Approx polarizability: 232.925  50.634 193.576   2.308  20.458 179.443

                      1                      2                      3
                      A                      A                      A
 Frequencies --     25.6705                30.3246                53.8482
 Red. masses --      4.7168                 4.1208                 3.8368
 Frc consts  --      0.0018                 0.0022                 0.0066
 IR Inten    --      1.2201                 2.2811                 0.0283

                      4                      5                      6
                      A                      A                      A
 Frequencies --     58.2179               106.3805               140.7088
 Red. masses --      1.0916                 2.8060                 3.5296
 Frc consts  --      0.0022                 0.0187                 0.0412
 IR Inten    --      0.0326                 1.7349                 2.2987

                      7                      8                      9
                      A                      A                      A
 Frequencies --    177.5803               183.4692               200.6030
 Red. masses --      3.4250                 3.5548                 3.7580
 Frc consts  --      0.0636                 0.0705                 0.0891
 IR Inten    --      0.5985                 1.5542                 1.7219

                     10                     11                     12
                      A                      A                      A
 Frequencies --    242.4960               260.9674               296.4761
 Red. masses --      1.0960                 3.0125                 3.4210
 Frc consts  --      0.0380                 0.1209                 0.1772
 IR Inten    --      0.0084                 1.4157                 9.2874

                     13                     14                     15
                      A                      A                      A
 Frequencies --    333.2691               408.3490               419.5180
 Red. masses --      2.3123                 2.1567                 2.5099
 Frc consts  --      0.1513                 0.2119                 0.2603
 IR Inten    --      0.5851                 1.1756                 0.8185

                     16                     17                     18
                      A                      A                      A
 Frequencies --    435.0507               461.6390               484.3028
 Red. masses --      3.2093                 4.8584                 3.4869
 Frc consts  --      0.3579                 0.6100                 0.4819
 IR Inten    --      0.3425                 1.7127                 3.5205

                     19                     20                     21
                      A                      A                      A
 Frequencies --    524.5521               586.5853               631.0629
 Red. masses --      3.4835                 3.1404                 3.6946
 Frc consts  --      0.5647                 0.6366                 0.8669
 IR Inten    --     10.1246                 2.9534                 0.3388

                     22                     23                     24
                      A                      A                      A
 Frequencies --    641.2520               667.2302               708.3797
 Red. masses --      4.0088                 4.3509                 1.8119
 Frc consts  --      0.9712                 1.1412                 0.5357
 IR Inten    --      3.1840                 5.5241                27.1600

                     25                     26                     27
                      A                      A                      A
 Frequencies --    722.2628               791.0746               842.3763
 Red. masses --      2.1108                 3.8056                 1.9899
 Frc consts  --      0.6488                 1.4032                 0.8320
 IR Inten    --      6.7101                 4.5778                 2.9967

                     28                     29                     30
                      A                      A                      A
 Frequencies --    845.2815               878.2778               890.2078
 Red. masses --      1.3571                 2.7566                 2.4299
 Frc consts  --      0.5713                 1.2528                 1.1345
 IR Inten    --      4.9245                 7.6108                 0.6555

                     31                     32                     33
                      A                      A                      A
 Frequencies --    896.7146               924.2537               939.0365
 Red. masses --      2.0591                 1.4730                 4.9388
 Frc consts  --      0.9755                 0.7414                 2.5659
 IR Inten    --      0.3083                16.3897                 3.7055

                     34                     35                     36
                      A                      A                      A
 Frequencies --    961.7698               974.6679               985.9966
 Red. masses --      1.8954                 1.9890                 1.7132
 Frc consts  --      1.0330                 1.1133                 0.9813
 IR Inten    --      1.2475                 1.7509                 1.4814

                     37                     38                     39
                      A                      A                      A
 Frequencies --   1065.2577              1083.9881              1111.1716
 Red. masses --      1.8403                 2.3430                 1.2911
 Frc consts  --      1.2304                 1.6221                 0.9393
 IR Inten    --      8.0182                 7.7045                 7.5175

                     40                     41                     42
                      A                      A                      A
 Frequencies --   1114.3269              1145.4034              1158.1407
 Red. masses --      1.7215                 1.8274                 1.2996
 Frc consts  --      1.2595                 1.4125                 1.0270
 IR Inten    --      1.3030                 8.9343                 0.1576

                     43                     44                     45
                      A                      A                      A
 Frequencies --   1166.5002              1174.8428              1188.1826
 Red. masses --      2.3602                 1.3058                 2.1997
 Frc consts  --      1.8922                 1.0619                 1.8297
 IR Inten    --      4.3495                17.3597                 2.0828

                     46                     47                     48
                      A                      A                      A
 Frequencies --   1212.5131              1245.3592              1276.9230
 Red. masses --      2.3926                 1.5538                 1.7592
 Frc consts  --      2.0725                 1.4198                 1.6901
 IR Inten    --      6.1177                 3.3958                73.5588

                     49                     50                     51
                      A                      A                      A
 Frequencies --   1291.8592              1313.6695              1323.6180
 Red. masses --      1.3497                 1.6533                 2.4990
 Frc consts  --      1.3271                 1.6810                 2.5795
 IR Inten    --      7.0362                28.0696                37.8133

                     52                     53                     54
                      A                      A                      A
 Frequencies --   1332.8965              1351.9679              1384.2988
 Red. masses --      1.6037                 1.5138                 1.6631
 Frc consts  --      1.6787                 1.6303                 1.8777
 IR Inten    --     11.8557                 1.2519                 8.0544

                     55                     56                     57
                      A                      A                      A
 Frequencies --   1395.0697              1400.3811              1421.5444
 Red. masses --      1.4654                 3.4954                 1.9314
 Frc consts  --      1.6803                 4.0387                 2.2995
 IR Inten    --     11.2897                 0.6424                24.2444

                     58                     59                     60
                      A                      A                      A
 Frequencies --   1440.0138              1458.0078              1486.6197
 Red. masses --      1.2468                 1.9678                 1.1258
 Frc consts  --      1.5233                 2.4646                 1.4659
 IR Inten    --      3.1150                24.6248                 2.2515

                     61                     62                     63
                      A                      A                      A
 Frequencies --   1491.4906              1495.2852              1505.4839
 Red. masses --      1.3641                 1.5572                 1.1184
 Frc consts  --      1.7878                 2.0513                 1.4935
 IR Inten    --      2.0143                 9.2314                 2.6271

                     64                     65                     66
                      A                      A                      A
 Frequencies --   1518.0182              1527.7013              1528.7208
 Red. masses --      1.0471                 1.0513                 1.0560
 Frc consts  --      1.4216                 1.4456                 1.4540
 IR Inten    --      4.9963                 4.0149                 4.6896

                     67                     68                     69
                      A                      A                      A
 Frequencies --   1530.8232              1541.1721              1573.4136
 Red. masses --      2.0533                 1.3823                 4.0094
 Frc consts  --      2.8349                 1.9344                 5.8482
 IR Inten    --     48.7814                 0.8316                10.8734

                     70                     71                     72
                      A                      A                      A
 Frequencies --   1704.8296              1777.9362              2987.3180
 Red. masses --      7.4331                11.2479                 1.0708
 Frc consts  --     12.7286                20.9485                 5.6300
 IR Inten    --     56.6629               287.9121                16.9240

                     73                     74                     75
                      A                      A                      A
 Frequencies --   3010.6817              3034.0129              3040.8289
 Red. masses --      1.0707                 1.0749                 1.0456
 Frc consts  --      5.7181                 5.8299                 5.6962
 IR Inten    --      8.1755                10.9937                29.7220

                     76                     77                     78
                      A                      A                      A
 Frequencies --   3041.6624              3064.0017              3070.1095
 Red. masses --      1.0630                 1.0349                 1.0892
 Frc consts  --      5.7945                 5.7246                 6.0489
 IR Inten    --     22.4944                39.4089                24.5444

                     79                     80                     81
                      A                      A                      A
 Frequencies --   3103.6878              3108.8752              3111.2958
 Red. masses --      1.1003                 1.0941                 1.0954
 Frc consts  --      6.2451                 6.2303                 6.2472
 IR Inten    --     34.1321                14.4770                 8.2698

                     82                     83                     84
                      A                      A                      A
 Frequencies --   3115.8800              3124.7974              3163.8661
 Red. masses --      1.1014                 1.1059                 1.1021
 Frc consts  --      6.3001                 6.3625                 6.4999
 IR Inten    --     36.1058                16.8190                10.5606

                     85                     86                     87
                      A                      A                      A
 Frequencies --   3195.3043              3259.9823              3287.2853
 Red. masses --      1.0914                 1.0914                 1.1041
 Frc consts  --      6.5654                 6.8341                 7.0294
 IR Inten    --      8.3008                 7.5296                 5.0978

 - Thermochemistry -
 -------------------
 Temperature   298.150 Kelvin.  Pressure   1.00000 Atm.
 Atom     1 has atomic number  6 and mass  12.00000

 Molecular mass:   204.12626 amu.
 Principal axes and moments of inertia in atomic units:
                           1         2         3
     Eigenvalues --  1723.160425203.361235852.88279
           X            0.99985  -0.01419   0.00946
           Y            0.01431   0.99982  -0.01221
           Z           -0.00929   0.01235   0.99988
 This molecule is an asymmetric top.
 Rotational symmetry number  1.
 Warning -- assumption of classical behavior for rotation
           may cause significant error
 Rotational temperatures (Kelvin)      0.05026     0.01665     0.01480
 Rotational constants (GHZ):           1.04734     0.34684     0.30835
 Zero-point vibrational energy     694951.8 (Joules/Mol)
                                  166.09747 (Kcal/Mol)
 Warning -- explicit consideration of  20 degrees of freedom as
           vibrations may cause significant error
 Vibrational temperatures:     36.93    43.63    77.48    83.76   153.06
          (Kelvin)            202.45   255.50   263.97   288.62   348.90
                              375.47   426.56   479.50   587.52   603.59
                              625.94   664.20   696.80   754.71   843.97
                              907.96   922.62   960.00  1019.20  1039.18
                             1138.18  1211.99  1216.17  1263.65  1280.81
                             1290.17  1329.79  1351.06  1383.77  1402.33
                             1418.63  1532.67  1559.62  1598.73  1603.27
                             1647.98  1666.31  1678.33  1690.34  1709.53
                             1744.54  1791.79  1837.21  1858.70  1890.08
                             1904.39  1917.74  1945.18  1991.70  2007.19
                             2014.84  2045.29  2071.86  2097.75  2138.91
                             2145.92  2151.38  2166.06  2184.09  2198.02
                             2199.49  2202.51  2217.40  2263.79  2452.87
                             2558.05  4298.08  4331.70  4365.27  4375.07
                             4376.27  4408.42  4417.20  4465.51  4472.98
                             4476.46  4483.06  4495.89  4552.10  4597.33
                             4690.39  4729.67

 Zero-point correction=                           0.264693 (Hartree/Particle)
 Thermal correction to Energy=                    0.279173
 Thermal correction to Enthalpy=                  0.280117
 Thermal correction to Gibbs Free Energy=         0.221323
 Sum of electronic and zero-point Energies=           -651.424651
 Sum of electronic and thermal Energies=              -651.410172
 Sum of electronic and thermal Enthalpies=            -651.409227
 Sum of electronic and thermal Free Energies=         -651.468021

                     E (Thermal)             CV                S
                      KCal/Mol        Cal/Mol-Kelvin    Cal/Mol-Kelvin
 Total                  175.183             54.059            123.741
 Electronic               0.000              0.000              0.000
 Translational            0.889              2.981             41.845
 Rotational               0.889              2.981             32.329
 Vibrational            173.406             48.097             49.567
 Vibration     1          0.593              1.985              6.139
 Vibration     2          0.594              1.984              5.808
 Vibration     3          0.596              1.976              4.671
 Vibration     4          0.596              1.974              4.517
 Vibration     5          0.605              1.944              3.334
 Vibration     6          0.615              1.913              2.794
 Vibration     7          0.628              1.870              2.354
 Vibration     8          0.631              1.862              2.293
 Vibration     9          0.638              1.839              2.128
 Vibration    10          0.659              1.775              1.784
 Vibration    11          0.669              1.744              1.655
 Vibration    12          0.690              1.680              1.437
 Vibration    13          0.715              1.609              1.244
 Vibration    14          0.773              1.452              0.932
 Vibration    15          0.782              1.428              0.894
 Vibration    16          0.796              1.394              0.842
 Vibration    17          0.819              1.335              0.761
 Vibration    18          0.840              1.285              0.699
 Vibration    19          0.880              1.196              0.599
 Vibration    20          0.944              1.060              0.473

                           ! Non-Optimized Parameters !
 Normal termination of Gaussian 16 at Thu Dec 10 16:43:34 2020.

 ----------------------------------------------------------------------
 # B3LYP/6-311++G(d,p) empiricaldispersion=gd3bj scf=xqc pop=npa geom=c
 heck
 ----------------------------------------------------------------------

 ---------------------------------------
 CID_130595772_JID_5635_Energie_neutraal
 ---------------------------------------
 Structure from the checkpoint file:  "JID_5635.chk"
 Charge =  0 Multiplicity = 1

 SCF Done:  E(RB3LYP) =  -651.867546929     A.U. after   15 cycles
 Normal termination of Gaussian 16 at Thu Dec 10 16:49:04 2020.

 ----------------------------------------------------------------------
 # B3LYP/6-311++G(d,p) empiricaldispersion=gd3bj scf=xqc pop=npa geom=c
 heck
 ----------------------------------------------------------------------

 -------------------------------------
 CID_130595772_JID_5635_Energie_kation
 -------------------------------------
 Structure from the checkpoint file:  "JID_5635.chk"
 Charge =  1 Multiplicity = 2

 SCF Done:  E(UB3LYP) =  -651.570350805     A.U. after   27 cycles
 Normal termination of Gaussian 16 at Thu Dec 10 17:02:45 2020.
 Gaussian 16:  ES64L-G16RevA.03 25-Dec-2016

 ----------------------------------------------------------------------
 # B3LYP/6-311++G(d,p) empiricaldispersion=gd3bj scf=xqc pop=npa geom=c
 heck
 ----------------------------------------------------------------------

 ------------------------------------
 CID_130595772_JID_5635_Energie_anion
 ------------------------------------
 Structure from the checkpoint file:  "JID_5635.chk"
 Charge = -1 Multiplicity = 2

                         Standard orientation:
 ---------------------------------------------------------------------
 Center     Atomic      Atomic             Coordinates (Angstroms)
 Number     Number       Type             X           Y           Z
 ---------------------------------------------------------------------
      1          6           0       -2.088706    2.772985   -0.579202
      2          6           0       -1.881530    1.259352   -0.518962
      3          6           0       -0.722917    0.881695    0.414018
      4          6           0       -0.575646   -0.609545    0.592549
      5          6           0       -1.604679   -1.449352    0.378268
      6          6           0       -2.954538   -0.985895    0.006679
      7          8           0       -3.872815   -1.770934   -0.183091
      8          6           0       -3.153525    0.521809   -0.083621
      9          6           0        0.778523   -1.121842    1.035230
     10          6           0        1.875630   -0.732386    0.086936
     11          7           0        2.044653   -1.244847   -1.118426
     12          6           0        3.122289   -0.582240   -1.658996
     13          6           0        3.608526    0.345731   -0.773534
     14          7           0        2.803143    0.249878    0.348032
     15          6           0        2.941531    1.034287    1.563398
     16          1           0       -2.889967    3.032924   -1.279732
     17          1           0       -1.176130    3.285383   -0.905977
     18          1           0       -2.364098    3.170561    0.406011
     19          1           0       -1.613439    0.902413   -1.523462
     20          1           0        0.214730    1.298690    0.026199
     21          1           0       -0.879105    1.346371    1.402705
     22          1           0       -1.487693   -2.524581    0.486032
     23          1           0       -3.454813    0.875345    0.915708
     24          1           0       -3.994591    0.716939   -0.756228
     25          1           0        0.999063   -0.730996    2.038037
     26          1           0        0.749294   -2.212428    1.114268
     27          1           0        3.485970   -0.813149   -2.650898
     28          1           0        4.430000    1.045004   -0.818623
     29          1           0        3.776843    1.725600    1.440831
     30          1           0        2.035440    1.615461    1.761005
     31          1           0        3.146695    0.391116    2.425037
 ---------------------------------------------------------------------

 SCF Done:  E(UB3LYP) =  -651.871763495     A.U. after   31 cycles

 The electronic state is 2-A.
 Alpha  occ. eigenvalues --  -18.95625 -14.27030 -14.18637 -10.12278 -10.11500
 Alpha  occ. eigenvalues --  -10.10460 -10.09588 -10.08267 -10.07569 -10.07294
 Alpha  occ. eigenvalues --  -10.06560 -10.06246 -10.05870 -10.05485 -10.03272
 Alpha  occ. eigenvalues --   -0.91697  -0.89259  -0.78453  -0.73351  -0.69074
 Alpha  occ. eigenvalues --   -0.65044  -0.62376  -0.60906  -0.58308  -0.57222
 Alpha  occ. eigenvalues --   -0.50120  -0.47761  -0.46588  -0.44357  -0.41629
 Alpha  occ. eigenvalues --   -0.39938  -0.38167  -0.36345  -0.35797  -0.34932
 Alpha  occ. eigenvalues --   -0.33491  -0.32523  -0.31462  -0.30921  -0.30526
 Alpha  occ. eigenvalues --   -0.29552  -0.29174  -0.28659  -0.27863  -0.27384
 Alpha  occ. eigenvalues --   -0.26964  -0.24643  -0.22583  -0.21767  -0.21308
 Alpha  occ. eigenvalues --   -0.17272  -0.16953  -0.13996  -0.12603  -0.11023
 Alpha  occ. eigenvalues --    0.03658
 Alpha virt. eigenvalues --    0.05775   0.07414   0.07559   0.08623   0.09249
 Alpha virt. eigenvalues --    0.10038   0.10265   0.10612   0.11242   0.11805
 Alpha virt. eigenvalues --    0.12422   0.12441   0.12957   0.13327   0.14005

  Beta  occ. eigenvalues --  -18.95339 -14.27022 -14.18629 -10.12255 -10.11437
  Beta  occ. eigenvalues --  -10.10287 -10.09565 -10.08270 -10.07589 -10.07288
  Beta  occ. eigenvalues --  -10.06556 -10.06261 -10.05526 -10.05498 -10.03270
  Beta  occ. eigenvalues --   -0.91679  -0.88742  -0.78429  -0.73116  -0.68948
  Beta  occ. eigenvalues --   -0.64889  -0.62265  -0.60727  -0.58259  -0.57148
  Beta  occ. eigenvalues --   -0.50089  -0.47626  -0.46328  -0.44112  -0.41495
  Beta  occ. eigenvalues --   -0.39767  -0.38092  -0.36277  -0.35701  -0.34841
  Beta  occ. eigenvalues --   -0.33438  -0.32367  -0.31218  -0.30731  -0.30373
  Beta  occ. eigenvalues --   -0.29358  -0.29114  -0.28596  -0.27779  -0.27191
  Beta  occ. eigenvalues --   -0.26830  -0.24057  -0.22473  -0.21353  -0.21041
  Beta  occ. eigenvalues --   -0.17210  -0.16937  -0.13016  -0.12266  -0.10788
  Beta virt. eigenvalues --    0.06523   0.07571   0.07922   0.08700   0.09058
  Beta virt. eigenvalues --    0.09584   0.10084   0.10329   0.10752   0.11429
  Beta virt. eigenvalues --    0.11977   0.12471   0.12743   0.13036   0.13627

 Mulliken charges and spin densities:
               1          2
     1  C   -0.412779  -0.287544
     2  C    0.370426   0.180388
     3  C   -0.896115  -0.365118
     4  C    1.347927   0.284374
     5  C   -0.312703  -0.102405
     6  C   -0.516714   0.140757
     7  O   -0.364338   0.094330
     8  C   -0.387150   0.011440
     9  C   -0.381965  -0.269225
    10  C   -0.826968   0.356718
    11  N   -0.076656   0.012963
    12  C    0.345272  -0.328893
    13  C   -0.157217   0.112883
    14  N    0.022632   0.159937
    15  C    1.276890  -1.582711
    16  H    0.124213   0.011468
    17  H    0.022169   0.107158
    18  H    0.098432   0.039258
    19  H    0.156118   0.013232
    20  H    0.426233  -0.296207
    21  H   -0.055256   0.253865
    22  H    0.162647   0.000017
    23  H    0.152892   0.000178
    24  H    0.142889   0.015213
    25  H    0.021235   0.138471
    26  H    0.136337   0.054578
    27  H    0.133522   0.011475
    28  H   -0.268015   0.420122
    29  H   -0.580457   0.733940
    30  H   -0.346911   0.540819
    31  H   -0.356590   0.538516
 Sum of Mulliken charges =  -1.00000   1.00000

 Dipole moment (field-independent basis, Debye):
    X=              0.6709    Y=              1.7569    Z=             -1.8439  Tot=              2.6338
 Quadrupole moment (field-independent basis, Debye-Ang):
   XX=           -161.1588   YY=           -126.9286   ZZ=           -116.8220
   XY=            -22.3102   XZ=             -9.5177   YZ=             -9.6963

 Summary of Natural Population Analysis:

                                       Natural Population
                Natural  -----------------------------------------------
    Atom  No    Charge         Core      Valence    Rydberg      Total
 -----------------------------------------------------------------------
      C    1   -0.28103      0.99965     2.27679    0.00459     3.28103
      C    2   -0.10797      0.99961     2.09997    0.00840     3.10797
      C    3   -0.20869      0.99957     2.19978    0.00934     3.20869
      C    4    0.09634      0.99950     1.89477    0.00940     2.90366
      C    5   -0.16030      0.99942     2.14971    0.01117     3.16030
      C    6    0.28850      0.99963     1.69202    0.01984     2.71150
      O    7   -0.27880      0.99988     3.27163    0.00729     4.27880
      C    8   -0.22976      0.99959     2.22103    0.00914     3.22976
      C    9   -0.22679      0.99956     2.21738    0.00986     3.22679
      C   10    0.20231      0.99959     1.77945    0.01864     2.79769
      N   11   -0.25578      0.99969     2.74784    0.00825     3.75578
      C   12   -0.03953      0.99958     2.02606    0.01389     3.03953
      C   13   -0.03964      0.99955     2.02825    0.01184     3.03964
      N   14   -0.20972      0.99961     2.69948    0.01062     3.70972
      C   15   -0.17466      0.99963     2.16689    0.00814     3.17466
      H   16    0.09559      0.00000     0.40360    0.00081     0.40441
      H   17    0.09802      0.00000     0.40113    0.00085     0.40198
      H   18    0.09550      0.00000     0.40360    0.00090     0.40450
      H   19    0.09473      0.00000     0.40332    0.00195     0.40527
      H   20    0.10213      0.00000     0.39632    0.00155     0.39787
      H   21    0.10462      0.00000     0.39397    0.00140     0.39538
      H   22    0.09888      0.00000     0.39963    0.00150     0.40112
      H   23    0.10217      0.00000     0.39653    0.00129     0.39783
      H   24    0.10412      0.00000     0.39479    0.00109     0.39588
      H   25    0.11158      0.00000     0.38694    0.00148     0.38842
      H   26    0.11325      0.00000     0.38570    0.00105     0.38675
      H   27    0.09347      0.00000     0.40573    0.00080     0.40653
      H   28    0.10184      0.00000     0.39724    0.00093     0.39816
      H   29    0.10499      0.00000     0.39250    0.00250     0.39501
      H   30    0.10381      0.00000     0.39424    0.00195     0.39619
      H   31    0.10083      0.00000     0.39773    0.00144     0.39917
 =======================================================================
   * Total *   -0.00000     14.99406    39.82404    0.18190    55.00000

 Normal termination of Gaussian 16 at Thu Dec 10 17:18:00 2020.
