 Gaussian 16, Revision A.03,

 -----------------------------------------------------------
 # opt freq B3LYP/6-31G(d) empiricaldispersion=gd3bj scf=xqc
 -----------------------------------------------------------

 ------------------------------
 CID_17848307_JID_3852_neutraal
 ------------------------------
 Symbolic Z-matrix:
 Charge =  0 Multiplicity = 1

 SCF Done:  E(RB3LYP) =  -550.774514880     A.U. after   14 cycles
 SCF Done:  E(RB3LYP) =  -550.777086495     A.U. after   12 cycles
 SCF Done:  E(RB3LYP) =  -550.777333903     A.U. after   12 cycles
 SCF Done:  E(RB3LYP) =  -550.777413094     A.U. after   11 cycles
 SCF Done:  E(RB3LYP) =  -550.777441384     A.U. after   11 cycles
 SCF Done:  E(RB3LYP) =  -550.777491235     A.U. after   12 cycles
 SCF Done:  E(RB3LYP) =  -550.777500802     A.U. after   11 cycles
 SCF Done:  E(RB3LYP) =  -550.777502931     A.U. after    9 cycles
 SCF Done:  E(RB3LYP) =  -550.777503600     A.U. after   10 cycles
 SCF Done:  E(RB3LYP) =  -550.777504072     A.U. after    8 cycles
 SCF Done:  E(RB3LYP) =  -550.777504349     A.U. after    8 cycles
 SCF Done:  E(RB3LYP) =  -550.777504376     A.U. after    7 cycles
 Optimization completed.
    -- Stationary point found.

 1\1\GINC-NODE217\FOpt\RB3LYP\6-31G(d)\C10H9N3\VSC10255\14-Dec-2020\0\\
 # opt freq B3LYP/6-31G(d) empiricaldispersion=gd3bj scf=xqc\\CID_17848
 307_JID_3852_neutraal\\0,1\C,1.3168938649,0.0939384291,0.2337233306\C,
 0.96476341,1.2393073796,-0.4809953429\C,-0.2738058237,1.2581688736,-1.
 1187324659\N,-1.1455442542,0.2418138237,-1.0836058618\C,-0.8004592243,
 -0.854808716,-0.395356347\C,0.4229003542,-0.9708301847,0.2783675956\C,
 -1.8123683578,-1.9901215946,-0.3806533674\C,-2.267246174,-2.3293892514
 ,1.0187859763\N,-1.4518582655,-3.1042707334,1.7551430968\C,-1.84516385

 Normal termination of Gaussian 16 at Mon Dec 14 16:28:57 2020.

 --------------------------------------------------------------------
 #N Geom=AllCheck Guess=TCheck SCRF=Check GenChk RB3LYP/6-31G(d) Freq
 --------------------------------------------------------------------

 Structure from the checkpoint file:  "JID_3852.chk"
 ------------------------------
 CID_17848307_JID_3852_neutraal
 ------------------------------
 Charge =  0 Multiplicity = 1

 SCF Done:  E(RB3LYP) =  -550.777504376     A.U. after    1 cycles

  Exact polarizability: 147.223  -6.612 115.196  -1.696   4.188  74.282
 Approx polarizability: 201.940 -14.357 214.305  -3.518  11.806 125.220

                      1                      2                      3
                      A                      A                      A
 Frequencies --     23.5776                37.3684                74.0564
 Red. masses --      4.8488                 4.7329                 4.7457
 Frc consts  --      0.0016                 0.0039                 0.0153
 IR Inten    --      0.6172                 1.1129                 1.3395

                      4                      5                      6
                      A                      A                      A
 Frequencies --    165.4954               236.9108               282.8071
 Red. masses --      5.3093                 5.1831                 5.5825
 Frc consts  --      0.0857                 0.1714                 0.2631
 IR Inten    --      3.7233                 4.2307                 1.5773

                      7                      8                      9
                      A                      A                      A
 Frequencies --    380.8671               410.9371               418.3721
 Red. masses --      1.9611                 4.1184                 3.5692
 Frc consts  --      0.1676                 0.4098                 0.3681
 IR Inten    --      4.8943                 0.4225                 4.2022

                     10                     11                     12
                      A                      A                      A
 Frequencies --    467.9296               482.6032               606.0739
 Red. masses --      3.7088                 3.0616                 4.7402
 Frc consts  --      0.4785                 0.4201                 1.0259
 IR Inten    --      0.4133                 1.4336                10.0866

                     13                     14                     15
                      A                      A                      A
 Frequencies --    634.0760               647.2998               653.2262
 Red. masses --      5.7191                 6.2884                 4.8652
 Frc consts  --      1.3548                 1.5524                 1.2232
 IR Inten    --     10.0002                 6.9250                14.2007

                     16                     17                     18
                      A                      A                      A
 Frequencies --    763.9367               780.1419               794.3785
 Red. masses --      3.2749                 1.4560                 3.8242
 Frc consts  --      1.1261                 0.5221                 1.4218
 IR Inten    --      3.7397                25.4782                 7.7668

                     19                     20                     21
                      A                      A                      A
 Frequencies --    821.8803               863.4065               887.3785
 Red. masses --      1.4794                 3.8443                 4.1417
 Frc consts  --      0.5888                 1.6885                 1.9215
 IR Inten    --      4.8367                 3.2735                 4.4610

                     22                     23                     24
                      A                      A                      A
 Frequencies --    918.5869               951.7744               978.8636
 Red. masses --      1.3691                 1.9158                 1.4676
 Frc consts  --      0.6807                 1.0225                 0.8285
 IR Inten    --      2.6717                 4.3404                 0.4051

                     25                     26                     27
                      A                      A                      A
 Frequencies --   1000.3513              1002.8594              1009.7797
 Red. masses --      1.3865                 1.4355                 1.3201
 Frc consts  --      0.8175                 0.8506                 0.7931
 IR Inten    --      0.0094                 0.1260                 0.4082

                     28                     29                     30
                      A                      A                      A
 Frequencies --   1013.8793              1014.0628              1080.6806
 Red. masses --      9.3137                 6.3193                 2.3027
 Frc consts  --      5.6409                 3.8287                 1.5845
 IR Inten    --      3.3143                 4.1587                 4.6808

                     31                     32                     33
                      A                      A                      A
 Frequencies --   1106.0054              1107.6062              1131.8545
 Red. masses --      2.2850                 1.6629                 1.4526
 Frc consts  --      1.6468                 1.2020                 1.0964
 IR Inten    --      1.0927                 1.5726                 1.2546

                     34                     35                     36
                      A                      A                      A
 Frequencies --   1181.0946              1188.3707              1248.1887
 Red. masses --      1.2616                 1.1271                 2.7610
 Frc consts  --      1.0369                 0.9378                 2.5344
 IR Inten    --      2.7593                 0.4362                18.6780

                     37                     38                     39
                      A                      A                      A
 Frequencies --   1258.5685              1299.5566              1313.1222
 Red. masses --      5.0714                 1.9380                 3.7709
 Frc consts  --      4.7329                 1.9284                 3.8309
 IR Inten    --      2.4309                 1.4553                 0.5391

                     40                     41                     42
                      A                      A                      A
 Frequencies --   1325.0131              1336.6418              1370.0257
 Red. masses --      1.5650                 1.9537                 1.5975
 Frc consts  --      1.6188                 2.0566                 1.7667
 IR Inten    --      2.7193                 9.3882                 4.8411

                     43                     44                     45
                      A                      A                      A
 Frequencies --   1466.6758              1480.2960              1484.1385
 Red. masses --      2.3278                 2.1449                 2.0406
 Frc consts  --      2.9503                 2.7692                 2.6483
 IR Inten    --    180.6143                 9.3030                 2.8430

                     46                     47                     48
                      A                      A                      A
 Frequencies --   1495.8841              1524.8924              1617.2723
 Red. masses --      1.1845                 2.2296                 5.9341
 Frc consts  --      1.5616                 3.0546                 9.1448
 IR Inten    --     21.7969                36.3470                81.4483

                     49                     50                     51
                      A                      A                      A
 Frequencies --   1631.2930              1634.9581              1651.0182
 Red. masses --      5.5882                 5.2494                 5.4129
 Frc consts  --      8.7617                 8.2675                 8.6933
 IR Inten    --     55.2438                79.0695                34.8084

                     52                     53                     54
                      A                      A                      A
 Frequencies --   3072.5583              3164.1175              3170.4163
 Red. masses --      1.0663                 1.0977                 1.0889
 Frc consts  --      5.9312                 6.4751                 6.4484
 IR Inten    --      8.8621                 2.1046                27.2948

                     55                     56                     57
                      A                      A                      A
 Frequencies --   3173.6796              3176.0441              3191.6809
 Red. masses --      1.0897                 1.0916                 1.0885
 Frc consts  --      6.4668                 6.4875                 6.5329
 IR Inten    --     16.4093                31.5528                13.1111

                     58                     59                     60
                      A                      A                      A
 Frequencies --   3212.5475              3222.0807              3226.2796
 Red. masses --      1.0947                 1.0951                 1.0960
 Frc consts  --      6.6566                 6.6985                 6.7215
 IR Inten    --     25.0122                 4.4104                14.0490

 - Thermochemistry -
 -------------------
 Temperature   298.150 Kelvin.  Pressure   1.00000 Atm.
 Atom     1 has atomic number  6 and mass  12.00000

 Molecular mass:   171.07965 amu.
 Principal axes and moments of inertia in atomic units:
                           1         2         3
     Eigenvalues --   894.594133847.795794180.77779
           X            1.00000   0.00054   0.00055
           Y           -0.00053   0.99996  -0.00873
           Z           -0.00055   0.00873   0.99996
 This molecule is an asymmetric top.
 Rotational symmetry number  1.
 Warning -- assumption of classical behavior for rotation
           may cause significant error
 Rotational temperatures (Kelvin)      0.09682     0.02251     0.02072
 Rotational constants (GHZ):           2.01739     0.46903     0.43168
 Zero-point vibrational energy     459757.4 (Joules/Mol)
                                  109.88467 (Kcal/Mol)
 Warning -- explicit consideration of  12 degrees of freedom as
           vibrations may cause significant error
 Vibrational temperatures:     33.92    53.76   106.55   238.11   340.86
          (Kelvin)            406.90   547.98   591.25   601.94   673.25
                              694.36   872.01   912.29   931.32   939.85
                             1099.13  1122.45  1142.93  1182.50  1242.25
                             1276.74  1321.64  1369.39  1408.37  1439.28
                             1442.89  1452.85  1458.75  1459.01  1554.86
                             1591.30  1593.60  1628.49  1699.33  1709.80
                             1795.87  1810.80  1869.77  1889.29  1906.40
                             1923.13  1971.16  2110.22  2129.82  2135.34
                             2152.24  2193.98  2326.89  2347.07  2352.34
                             2375.45  4420.73  4552.46  4561.52  4566.22
                             4569.62  4592.12  4622.14  4635.86  4641.90

 Zero-point correction=                           0.175112 (Hartree/Particle)
 Thermal correction to Energy=                    0.185025
 Thermal correction to Enthalpy=                  0.185970
 Thermal correction to Gibbs Free Energy=         0.137320
 Sum of electronic and zero-point Energies=           -550.602392
 Sum of electronic and thermal Energies=              -550.592479
 Sum of electronic and thermal Enthalpies=            -550.591535
 Sum of electronic and thermal Free Energies=         -550.640184

                     E (Thermal)             CV                S
                      KCal/Mol        Cal/Mol-Kelvin    Cal/Mol-Kelvin
 Total                  116.105             38.117            102.392
 Electronic               0.000              0.000              0.000
 Translational            0.889              2.981             41.319
 Rotational               0.889              2.981             31.043
 Vibrational            114.328             32.156             30.030
 Vibration     1          0.593              1.985              6.307
 Vibration     2          0.594              1.982              5.394
 Vibration     3          0.599              1.966              4.043
 Vibration     4          0.624              1.885              2.486
 Vibration     5          0.656              1.784              1.826
 Vibration     6          0.682              1.706              1.517
 Vibration     7          0.751              1.511              1.036
 Vibration     8          0.775              1.446              0.923
 Vibration     9          0.781              1.430              0.898
 Vibration    10          0.825              1.321              0.743
 Vibration    11          0.839              1.289              0.703
 Vibration    12          0.965              1.019              0.439

 Optimization completed.
    -- Stationary point found.

 1\1\GINC-NODE217\Freq\RB3LYP\6-31G(d)\C10H9N3\VSC10255\14-Dec-2020\0\\
 #N Geom=AllCheck Guess=TCheck SCRF=Check GenChk RB3LYP/6-31G(d) Freq\\
 CID_17848307_JID_3852_neutraal\\0,1\C,1.3168938649,0.0939384291,0.2337
 233306\C,0.96476341,1.2393073796,-0.4809953429\C,-0.2738058237,1.25816
 88736,-1.1187324659\N,-1.1455442542,0.2418138237,-1.0836058618\C,-0.80
 04592243,-0.854808716,-0.395356347\C,0.4229003542,-0.9708301847,0.2783
 675956\C,-1.8123683578,-1.9901215946,-0.3806533674\C,-2.267246174,-2.3
 293892514,1.0187859763\N,-1.4518582655,-3.1042707334,1.7551430968\C,-1

 Normal termination of Gaussian 16 at Mon Dec 14 16:33:49 2020.

 ----------------------------------------------------------------------
 # B3LYP/6-311++G(d,p) empiricaldispersion=gd3bj scf=xqc pop=npa geom=c
 heck
 ----------------------------------------------------------------------

 --------------------------------------
 CID_17848307_JID_3852_Energie_neutraal
 --------------------------------------
 Structure from the checkpoint file:  "JID_3852.chk"
 Charge =  0 Multiplicity = 1

 SCF Done:  E(RB3LYP) =  -550.918097694     A.U. after   15 cycles
 Normal termination of Gaussian 16 at Mon Dec 14 16:35:52 2020.

 ----------------------------------------------------------------------
 # B3LYP/6-311++G(d,p) empiricaldispersion=gd3bj scf=xqc pop=npa geom=c
 heck
 ----------------------------------------------------------------------

 ------------------------------------
 CID_17848307_JID_3852_Energie_kation
 ------------------------------------
 Structure from the checkpoint file:  "JID_3852.chk"
 Charge =  1 Multiplicity = 2

 SCF Done:  E(UB3LYP) =  -550.597031445     A.U. after   33 cycles
 SCF Done:  E(UB3LYP) =  -550.597031445     a.u. after    3 cycles
 Normal termination of Gaussian 16 at Mon Dec 14 16:52:32 2020.
 Gaussian 16:  ES64L-G16RevA.03 25-Dec-2016

 -----------------------------------
 CID_17848307_JID_3852_Energie_anion
 -----------------------------------
 Structure from the checkpoint file:  "JID_3852.chk"
 Charge = -1 Multiplicity = 2

                         Standard orientation:
 ---------------------------------------------------------------------
 Center     Atomic      Atomic             Coordinates (Angstroms)
 Number     Number       Type             X           Y           Z
 ---------------------------------------------------------------------
      1          6           0        2.633951    1.452806   -0.328449
      2          6           0        3.525790    0.469977   -0.758983
      3          6           0        3.205462   -0.861793   -0.504237
      4          7           0        2.090986   -1.252335    0.127872
      5          6           0        1.239310   -0.302901    0.538451
      6          6           0        1.472740    1.063270    0.330945
      7          6           0       -0.013002   -0.782398    1.256024
      8          6           0       -1.275035   -0.363889    0.540084
      9          7           0       -1.698417    0.897160    0.735079
     10          6           0       -2.795754    1.270046    0.069588
     11          6           0       -3.482061    0.408754   -0.782448
     12          6           0       -2.958304   -0.875477   -0.906989
     13          7           0       -1.860376   -1.271893   -0.255077
     14          1           0        2.841176    2.505178   -0.502926
     15          1           0        4.444600    0.726196   -1.277402
     16          1           0        3.873855   -1.660231   -0.822203
     17          1           0        0.744246    1.788599    0.677642
     18          1           0        0.027434   -1.870447    1.310804
     19          1           0       -0.035971   -0.365061    2.269058
     20          1           0       -3.134306    2.292299    0.230692
     21          1           0       -4.374014    0.719442   -1.315468
     22          1           0       -3.430951   -1.616860   -1.549228
 ---------------------------------------------------------------------

 SCF Done:  E(UB3LYP) =  -550.912218988     A.U. after   33 cycles
 SCF Done:  E(UB3LYP) =  -550.912219839     a.u. after    3 cycles

 The electronic state is 2-A.
 Alpha  occ. eigenvalues --  -14.17005 -14.14027 -14.13788 -10.08528 -10.08039
 Alpha  occ. eigenvalues --  -10.06971 -10.05496 -10.05366 -10.04164 -10.04147
 Alpha  occ. eigenvalues --  -10.03630 -10.03224 -10.02934  -0.82110  -0.80904
 Alpha  occ. eigenvalues --   -0.72074  -0.67215  -0.66200  -0.62596  -0.57104
 Alpha  occ. eigenvalues --   -0.50248  -0.49393  -0.48897  -0.45554  -0.38800
 Alpha  occ. eigenvalues --   -0.36449  -0.36009  -0.34679  -0.33036  -0.31124
 Alpha  occ. eigenvalues --   -0.29766  -0.28524  -0.26907  -0.25934  -0.25734
 Alpha  occ. eigenvalues --   -0.23872  -0.23220  -0.22817  -0.16313  -0.15934
 Alpha  occ. eigenvalues --   -0.14636  -0.13208  -0.12676  -0.11870  -0.08876
 Alpha  occ. eigenvalues --    0.06323
 Alpha virt. eigenvalues --    0.07831   0.09014   0.09248   0.09902   0.10193
 Alpha virt. eigenvalues --    0.10931   0.11312   0.12180   0.12687   0.12921
 Alpha virt. eigenvalues --    0.13885   0.15522   0.15788   0.16370   0.17514

  Beta  occ. eigenvalues --  -14.16901 -14.13739 -14.13472 -10.08593 -10.08071
  Beta  occ. eigenvalues --  -10.06833 -10.05425 -10.05356 -10.03783 -10.03781
  Beta  occ. eigenvalues --  -10.03517 -10.03219 -10.03058  -0.81645  -0.80672
  Beta  occ. eigenvalues --   -0.71334  -0.67008  -0.65999  -0.62294  -0.56990
  Beta  occ. eigenvalues --   -0.49865  -0.48918  -0.48472  -0.45409  -0.38704
  Beta  occ. eigenvalues --   -0.36271  -0.35806  -0.34467  -0.32911  -0.30940
  Beta  occ. eigenvalues --   -0.29560  -0.28356  -0.26559  -0.25642  -0.24943
  Beta  occ. eigenvalues --   -0.23559  -0.23079  -0.22488  -0.15450  -0.14195
  Beta  occ. eigenvalues --   -0.13711  -0.12745  -0.12277  -0.11179  -0.08518
  Beta virt. eigenvalues --    0.07848   0.09171   0.09792   0.09973   0.10433
  Beta virt. eigenvalues --    0.10940   0.11299   0.12160   0.12650   0.12858
  Beta virt. eigenvalues --    0.13121   0.13877   0.15458   0.15724   0.16307

 Mulliken charges and spin densities:
               1          2
     1  C   -0.725505   0.112974
     2  C    0.180080  -0.113459
     3  C   -0.192277   0.066771
     4  N    0.021780   0.046118
     5  C    0.040535  -0.072790
     6  C    0.200199   0.101132
     7  C   -0.999261  -0.005964
     8  C   -0.213777  -0.011733
     9  N   -0.059848   0.127079
    10  C   -0.082777   0.300146
    11  C   -0.183053  -0.078317
    12  C   -0.055139   0.291088
    13  N   -0.047886   0.132856
    14  H    0.122143   0.004467
    15  H    0.017235   0.113682
    16  H    0.133414   0.007724
    17  H    0.222075  -0.002017
    18  H    0.157589  -0.003105
    19  H    0.119283   0.023950
    20  H    0.119215  -0.023644
    21  H    0.094572   0.007650
    22  H    0.131403  -0.024607
 Sum of Mulliken charges =  -1.00000   1.00000

 Dipole moment (field-independent basis, Debye):
    X=              1.8035    Y=              1.9544    Z=             -0.1286  Tot=              2.6625
 Quadrupole moment (field-independent basis, Debye-Ang):
   XX=           -109.4827   YY=            -92.1679   ZZ=            -86.3533
   XY=              0.8586   XZ=              0.7005   YZ=             -2.4100

 Summary of Natural Population Analysis:

                                       Natural Population
                Natural  -----------------------------------------------
    Atom  No    Charge         Core      Valence    Rydberg      Total
 -----------------------------------------------------------------------
      C    1   -0.06852      0.99957     2.05991    0.00903     3.06852
      C    2   -0.14464      0.99957     2.13592    0.00916     3.14464
      C    3    0.04272      0.99960     1.94289    0.01479     2.95728
      N    4   -0.22966      0.99968     2.71819    0.01179     3.72966
      C    5    0.11726      0.99953     1.86911    0.01410     2.88274
      C    6   -0.10432      0.99950     2.09680    0.00802     3.10432
      C    7   -0.21921      0.99956     2.20990    0.00975     3.21921
      C    8    0.20956      0.99961     1.77223    0.01861     2.79044
      N    9   -0.23671      0.99967     2.72374    0.01330     3.73671
      C   10    0.10120      0.99961     1.88448    0.01472     2.89880
      C   11   -0.17950      0.99956     2.17183    0.00811     3.17950
      C   12    0.09854      0.99961     1.88699    0.01486     2.90146
      N   13   -0.22427      0.99967     2.71103    0.01356     3.72427
      H   14    0.09188      0.00000     0.40712    0.00100     0.40812
      H   15    0.09437      0.00000     0.40420    0.00143     0.40563
      H   16    0.07968      0.00000     0.41860    0.00171     0.42032
      H   17    0.11313      0.00000     0.38532    0.00155     0.38687
      H   18    0.11286      0.00000     0.38553    0.00161     0.38714
      H   19    0.10449      0.00000     0.39429    0.00122     0.39551
      H   20    0.07353      0.00000     0.42516    0.00131     0.42647
      H   21    0.09336      0.00000     0.40543    0.00121     0.40664
      H   22    0.07427      0.00000     0.42441    0.00133     0.42573
 =======================================================================
   * Total *   -0.00000     12.99473    31.83308    0.17219    45.00000

 Normal termination of Gaussian 16 at Mon Dec 14 17:11:20 2020.
