 Gaussian 16, Revision A.03,

 -----------------------------------------------------------
 # opt freq B3LYP/6-31G(d) empiricaldispersion=gd3bj scf=xqc
 -----------------------------------------------------------

 ------------------------------
 CID_59645466_JID_4612_neutraal
 ------------------------------
 Symbolic Z-matrix:
 Charge =  0 Multiplicity = 1

 SCF Done:  E(RB3LYP) =  -591.284649501     A.U. after   15 cycles
 SCF Done:  E(RB3LYP) =  -591.287796149     A.U. after   12 cycles
 SCF Done:  E(RB3LYP) =  -591.288275599     A.U. after   11 cycles
 SCF Done:  E(RB3LYP) =  -591.288321771     A.U. after   11 cycles
 SCF Done:  E(RB3LYP) =  -591.288339022     A.U. after   10 cycles
 SCF Done:  E(RB3LYP) =  -591.288349448     A.U. after   10 cycles
 SCF Done:  E(RB3LYP) =  -591.288352624     A.U. after    9 cycles
 SCF Done:  E(RB3LYP) =  -591.288354044     A.U. after    8 cycles
 SCF Done:  E(RB3LYP) =  -591.288357093     A.U. after   10 cycles
 SCF Done:  E(RB3LYP) =  -591.288378217     A.U. after   12 cycles
 SCF Done:  E(RB3LYP) =  -591.289005101     A.U. after   12 cycles
 SCF Done:  E(RB3LYP) =  -591.289041736     A.U. after   12 cycles
 SCF Done:  E(RB3LYP) =  -591.289051157     A.U. after   10 cycles
 SCF Done:  E(RB3LYP) =  -591.289051797     A.U. after    9 cycles
 SCF Done:  E(RB3LYP) =  -591.289051871     A.U. after    8 cycles
 Optimization completed.
    -- Stationary point found.
 Normal termination of Gaussian 16 at Thu Dec 10 10:17:42 2020.

 --------------------------------------------------------------------
 #N Geom=AllCheck Guess=TCheck SCRF=Check GenChk RB3LYP/6-31G(d) Freq
 --------------------------------------------------------------------

 Structure from the checkpoint file:  "JID_4612.chk"
 ------------------------------
 CID_59645466_JID_4612_neutraal
 ------------------------------
 Charge =  0 Multiplicity = 1

 SCF Done:  E(RB3LYP) =  -591.289051871     A.U. after    1 cycles

  Exact polarizability: 182.978   9.388 140.773  -3.613   4.105  72.623
 Approx polarizability: 264.453  15.338 231.561  -7.855   9.649 107.417

                      1                      2                      3
                      A                      A                      A
 Frequencies --     34.4475                51.0645                91.8143
 Red. masses --      2.9209                 4.0780                 4.5099
 Frc consts  --      0.0020                 0.0063                 0.0224
 IR Inten    --      1.0366                 2.2926                 2.2328

                      4                      5                      6
                      A                      A                      A
 Frequencies --    107.6246               127.3791               205.5098
 Red. masses --      4.1982                 3.3619                 3.2412
 Frc consts  --      0.0287                 0.0321                 0.0807
 IR Inten    --      1.0494                 0.3794                 1.3427

                      7                      8                      9
                      A                      A                      A
 Frequencies --    233.5766               262.3469               274.2850
 Red. masses --      1.0396                 1.4614                 2.1287
 Frc consts  --      0.0334                 0.0593                 0.0944
 IR Inten    --      0.0063                 0.4780                 0.2145

                     10                     11                     12
                      A                      A                      A
 Frequencies --    313.9408               332.2940               373.8073
 Red. masses --      2.7534                 4.5721                 6.4862
 Frc consts  --      0.1599                 0.2975                 0.5340
 IR Inten    --      0.2834                 1.9182                 1.2002

                     13                     14                     15
                      A                      A                      A
 Frequencies --    449.6767               474.0136               484.7918
 Red. masses --      3.9271                 3.4193                 3.5938
 Frc consts  --      0.4679                 0.4527                 0.4976
 IR Inten    --      2.6236                 0.3752                 0.7908

                     16                     17                     18
                      A                      A                      A
 Frequencies --    607.3640               624.1467               663.4762
 Red. masses --      3.3490                 3.5989                 5.9345
 Frc consts  --      0.7279                 0.8260                 1.5392
 IR Inten    --      1.4188                 3.9590                 4.6217

                     19                     20                     21
                      A                      A                      A
 Frequencies --    682.3958               695.1487               750.7474
 Red. masses --      5.8598                 5.1045                 1.2275
 Frc consts  --      1.6077                 1.4533                 0.4076
 IR Inten    --      5.5513                 2.1164                45.7027

                     22                     23                     24
                      A                      A                      A
 Frequencies --    761.3627               820.8708               829.8339
 Red. masses --      1.7759                 2.3659                 3.8227
 Frc consts  --      0.6065                 0.9393                 1.5510
 IR Inten    --     10.5917                25.4246                24.7444

                     25                     26                     27
                      A                      A                      A
 Frequencies --    833.7612               886.8370               900.2917
 Red. masses --      1.2727                 1.3107                 1.3911
 Frc consts  --      0.5213                 0.6074                 0.6643
 IR Inten    --      7.9353                 3.6908                 0.1335

                     28                     29                     30
                      A                      A                      A
 Frequencies --    911.9899               938.7565               946.8600
 Red. masses --      2.7163                 5.9971                 1.1540
 Frc consts  --      1.3311                 3.1139                 0.6096
 IR Inten    --     11.5491                 7.0106                 2.0480

                     31                     32                     33
                      A                      A                      A
 Frequencies --    974.6511               979.4247               992.5428
 Red. masses --      3.0117                 1.5525                 1.2880
 Frc consts  --      1.6856                 0.8775                 0.7476
 IR Inten    --     30.9811                 0.0418                 0.4623

                     34                     35                     36
                      A                      A                      A
 Frequencies --   1011.5912              1069.2256              1076.5765
 Red. masses --      6.6681                 1.5253                 1.8106
 Frc consts  --      4.0203                 1.0274                 1.2364
 IR Inten    --      2.6729                52.1382                10.8282

                     37                     38                     39
                      A                      A                      A
 Frequencies --   1118.4555              1128.9070              1131.6930
 Red. masses --      1.8308                 1.6133                 2.2961
 Frc consts  --      1.3494                 1.2114                 1.7326
 IR Inten    --      4.9158                 3.8005                 0.0733

                     40                     41                     42
                      A                      A                      A
 Frequencies --   1173.4020              1192.2369              1203.2211
 Red. masses --      1.7604                 1.8089                 1.4313
 Frc consts  --      1.4281                 1.5149                 1.2209
 IR Inten    --      8.4122                 7.7008                28.6726

                     43                     44                     45
                      A                      A                      A
 Frequencies --   1234.9353              1250.1617              1313.9942
 Red. masses --      1.5769                 1.8016                 4.4807
 Frc consts  --      1.4169                 1.6590                 4.5581
 IR Inten    --     16.6330                 8.0913                19.9532

                     46                     47                     48
                      A                      A                      A
 Frequencies --   1324.5861              1359.1826              1380.4727
 Red. masses --      5.3501                 1.3269                 2.6510
 Frc consts  --      5.5306                 1.4443                 2.9765
 IR Inten    --      2.1294                 1.7504                35.9270

                     49                     50                     51
                      A                      A                      A
 Frequencies --   1403.6062              1419.9014              1439.1445
 Red. masses --      2.2892                 1.2285                 1.2985
 Frc consts  --      2.6572                 1.4592                 1.5845
 IR Inten    --      6.1873                 3.5452                19.1226

                     52                     53                     54
                      A                      A                      A
 Frequencies --   1442.8016              1454.9952              1497.2988
 Red. masses --      3.5014                 3.0325                 2.6258
 Frc consts  --      4.2945                 3.7825                 3.4684
 IR Inten    --     82.9599                 7.1015                69.6191

                     55                     56                     57
                      A                      A                      A
 Frequencies --   1511.8674              1515.0064              1524.9210
 Red. masses --      4.0075                 1.0415                 1.0494
 Frc consts  --      5.3970                 1.4085                 1.4378
 IR Inten    --    157.4708                 0.6799                 0.9015

                     58                     59                     60
                      A                      A                      A
 Frequencies --   1530.4845              1546.4908              1580.5080
 Red. masses --      1.0466                 1.0840                 4.3982
 Frc consts  --      1.4444                 1.5275                 6.4732
 IR Inten    --     11.1971                 9.8553                51.8511

                     61                     62                     63
                      A                      A                      A
 Frequencies --   1639.1564              1649.9569              3040.7026
 Red. masses --      5.9756                 6.3403                 1.0824
 Frc consts  --      9.4596                10.1696                 5.8966
 IR Inten    --    142.4026                71.8266                23.9054

                     64                     65                     66
                      A                      A                      A
 Frequencies --   3049.4397              3053.3109              3114.6553
 Red. masses --      1.0348                 1.0371                 1.1033
 Frc consts  --      5.6694                 5.6968                 6.3059
 IR Inten    --     34.9974                28.8930                20.0384

                     67                     68                     69
                      A                      A                      A
 Frequencies --   3117.3868              3135.4136              3139.9614
 Red. masses --      1.1025                 1.1025                 1.1018
 Frc consts  --      6.3128                 6.3857                 6.4003
 IR Inten    --     52.3460                 4.3140                34.9428

                     70                     71                     72
                      A                      A                      A
 Frequencies --   3196.1933              3213.1678              3228.2847
 Red. masses --      1.0875                 1.0935                 1.0948
 Frc consts  --      6.5456                 6.6519                 6.7223
 IR Inten    --      7.7446                17.9529                 6.7683

                     73                     74                     75
                      A                      A                      A
 Frequencies --   3256.8778              3277.7954              3296.8705
 Red. masses --      1.0933                 1.0935                 1.1049
 Frc consts  --      6.8327                 6.9222                 7.0759
 IR Inten    --      7.2144                 3.4151                 1.2919

 - Thermochemistry -
 -------------------
 Temperature   298.150 Kelvin.  Pressure   1.00000 Atm.
 Atom     1 has atomic number  6 and mass  12.00000

 Molecular mass:   187.11095 amu.
 Principal axes and moments of inertia in atomic units:
                           1         2         3
     Eigenvalues --  1436.814663972.879514946.52634
           X            0.99973  -0.02338  -0.00090
           Y            0.02338   0.99973   0.00019
           Z            0.00089  -0.00021   1.00000
 This molecule is an asymmetric top.
 Rotational symmetry number  1.
 Warning -- assumption of classical behavior for rotation
           may cause significant error
 Rotational temperatures (Kelvin)      0.06028     0.02180     0.01751
 Rotational constants (GHZ):           1.25607     0.45427     0.36485
 Zero-point vibrational energy     591325.3 (Joules/Mol)
                                  141.33014 (Kcal/Mol)
 Warning -- explicit consideration of  16 degrees of freedom as
           vibrations may cause significant error
 Vibrational temperatures:     49.56    73.47   132.10   154.85   183.27
          (Kelvin)            295.68   336.06   377.46   394.64   451.69
                              478.10   537.83   646.98   682.00   697.51
                              873.86   898.01   954.59   981.82  1000.16
                             1080.16  1095.43  1181.05  1193.95  1199.60
                             1275.96  1295.32  1312.15  1350.66  1362.32
                             1402.31  1409.17  1428.05  1455.45  1538.38
                             1548.95  1609.21  1624.25  1628.25  1688.26
                             1715.36  1731.17  1776.80  1798.70  1890.54
                             1905.78  1955.56  1986.19  2019.48  2042.92
                             2070.61  2075.87  2093.41  2154.28  2175.24
                             2179.76  2194.02  2202.03  2225.06  2274.00
                             2358.38  2373.92  4374.89  4387.46  4393.03
                             4481.29  4485.22  4511.16  4517.70  4598.61
                             4623.03  4644.78  4685.92  4716.02  4743.46

 Zero-point correction=                           0.225224 (Hartree/Particle)
 Thermal correction to Energy=                    0.237539
 Thermal correction to Enthalpy=                  0.238483
 Thermal correction to Gibbs Free Energy=         0.185616
 Sum of electronic and zero-point Energies=           -591.063828
 Sum of electronic and thermal Energies=              -591.051513
 Sum of electronic and thermal Enthalpies=            -591.050568
 Sum of electronic and thermal Free Energies=         -591.103435

                     E (Thermal)             CV                S
                      KCal/Mol        Cal/Mol-Kelvin    Cal/Mol-Kelvin
 Total                  149.058             47.310            111.268
 Electronic               0.000              0.000              0.000
 Translational            0.889              2.981             41.586
 Rotational               0.889              2.981             31.713
 Vibrational            147.281             41.348             37.970
 Vibration     1          0.594              1.983              5.555
 Vibration     2          0.595              1.977              4.776
 Vibration     3          0.602              1.955              3.621
 Vibration     4          0.606              1.943              3.311
 Vibration     5          0.611              1.926              2.985
 Vibration     6          0.640              1.832              2.083
 Vibration     7          0.654              1.790              1.851
 Vibration     8          0.670              1.742              1.646
 Vibration     9          0.677              1.721              1.569
 Vibration    10          0.702              1.647              1.341
 Vibration    11          0.714              1.611              1.249
 Vibration    12          0.745              1.526              1.064
 Vibration    13          0.809              1.362              0.797
 Vibration    14          0.831              1.308              0.726
 Vibration    15          0.841              1.284              0.697
 Vibration    16          0.966              1.016              0.437

                           ! Non-Optimized Parameters !
 Normal termination of Gaussian 16 at Thu Dec 10 10:24:24 2020.

 ----------------------------------------------------------------------
 # B3LYP/6-311++G(d,p) empiricaldispersion=gd3bj scf=xqc pop=npa geom=c
 heck
 ----------------------------------------------------------------------

 --------------------------------------
 CID_59645466_JID_4612_Energie_neutraal
 --------------------------------------
 Structure from the checkpoint file:  "JID_4612.chk"
 Charge =  0 Multiplicity = 1

 SCF Done:  E(RB3LYP) =  -591.442230703     A.U. after   15 cycles
 Normal termination of Gaussian 16 at Thu Dec 10 10:27:54 2020.

 ----------------------------------------------------------------------
 # B3LYP/6-311++G(d,p) empiricaldispersion=gd3bj scf=xqc pop=npa geom=c
 heck
 ----------------------------------------------------------------------

 ------------------------------------
 CID_59645466_JID_4612_Energie_kation
 ------------------------------------
 Structure from the checkpoint file:  "JID_4612.chk"
 Charge =  1 Multiplicity = 2

 SCF Done:  E(UB3LYP) =  -591.136753942     A.U. after   25 cycles
 Normal termination of Gaussian 16 at Thu Dec 10 10:36:11 2020.
 Gaussian 16:  ES64L-G16RevA.03 25-Dec-2016

 ----------------------------------------------------------------------
 # B3LYP/6-311++G(d,p) empiricaldispersion=gd3bj scf=xqc pop=npa geom=c
 heck
 ----------------------------------------------------------------------

 -----------------------------------
 CID_59645466_JID_4612_Energie_anion
 -----------------------------------
 Structure from the checkpoint file:  "JID_4612.chk"
 Charge = -1 Multiplicity = 2

                         Standard orientation:
 ---------------------------------------------------------------------
 Center     Atomic      Atomic             Coordinates (Angstroms)
 Number     Number       Type             X           Y           Z
 ---------------------------------------------------------------------
      1          6           0        2.870292   -1.377762    1.397173
      2          6           0        2.900468   -0.604100    0.068948
      3          6           0        2.870041   -1.565377   -1.130486
      4          6           0        1.735683    0.363222   -0.005564
      5          7           0        0.512856   -0.188449    0.029229
      6          6           0       -0.545667    0.607135   -0.052218
      7          6           0       -0.467324    2.000583   -0.173020
      8          6           0        0.800673    2.570197   -0.180200
      9          6           0        1.922129    1.746042   -0.095765
     10          7           0       -1.815630   -0.020704   -0.007898
     11          6           0       -2.987647    0.520954    0.452938
     12          6           0       -3.957101   -0.442670    0.299964
     13          6           0       -3.271554   -1.545530   -0.269289
     14          7           0       -1.981230   -1.295060   -0.453040
     15          1           0        1.936594   -1.942596    1.478175
     16          1           0        2.933448   -0.698431    2.254726
     17          1           0        3.710337   -2.079127    1.452496
     18          1           0        3.826429   -0.015637    0.026300
     19          1           0        1.930290   -2.125957   -1.134626
     20          1           0        2.944744   -1.020244   -2.078059
     21          1           0        3.703488   -2.274687   -1.075901
     22          1           0       -1.358840    2.606237   -0.286326
     23          1           0        0.912190    3.646897   -0.270778
     24          1           0        2.924331    2.162322   -0.108127
     25          1           0       -3.024052    1.512874    0.876451
     26          1           0       -5.000607   -0.368471    0.568800
     27          1           0       -3.670297   -2.509849   -0.556054
 ---------------------------------------------------------------------

 SCF Done:  E(UB3LYP) =  -591.431051692     A.U. after   33 cycles
 SCF Done:  E(UB3LYP) =  -591.431217810     a.u. after    6 cycles

 The electronic state is 2-A.
 Alpha  occ. eigenvalues --  -14.25117 -14.18295 -14.14249 -10.08456 -10.07011
 Alpha  occ. eigenvalues --  -10.06425 -10.05888 -10.05210 -10.04423 -10.04381
 Alpha  occ. eigenvalues --  -10.04164 -10.03720 -10.03325 -10.02459  -0.91136
 Alpha  occ. eigenvalues --   -0.80320  -0.70763  -0.67472  -0.66237  -0.64314
 Alpha  occ. eigenvalues --   -0.59736  -0.56964  -0.51243  -0.50786  -0.46738
 Alpha  occ. eigenvalues --   -0.44280  -0.43248  -0.40776  -0.36122  -0.35368
 Alpha  occ. eigenvalues --   -0.33526  -0.32328  -0.31549  -0.30697  -0.29892
 Alpha  occ. eigenvalues --   -0.29297  -0.27191  -0.27099  -0.26905  -0.25203
 Alpha  occ. eigenvalues --   -0.24915  -0.22709  -0.21921  -0.21499  -0.16111
 Alpha  occ. eigenvalues --   -0.15620  -0.14186  -0.12213  -0.11278  -0.09776
 Alpha  occ. eigenvalues --    0.06029
 Alpha virt. eigenvalues --    0.07510   0.07950   0.08860   0.09780   0.09913
 Alpha virt. eigenvalues --    0.10438   0.10908   0.11413   0.11625   0.12584
 Alpha virt. eigenvalues --    0.13314   0.14173   0.14803   0.15129   0.15390

  Beta  occ. eigenvalues --  -14.25178 -14.18111 -14.13863 -10.08125 -10.07082
  Beta  occ. eigenvalues --  -10.06256 -10.05885 -10.05172 -10.04420 -10.04380
  Beta  occ. eigenvalues --  -10.04261 -10.03476 -10.03319 -10.02265  -0.90961
  Beta  occ. eigenvalues --   -0.79764  -0.70513  -0.67365  -0.65791  -0.64009
  Beta  occ. eigenvalues --   -0.59511  -0.56957  -0.50992  -0.50483  -0.46616
  Beta  occ. eigenvalues --   -0.43984  -0.43061  -0.40628  -0.35992  -0.35202
  Beta  occ. eigenvalues --   -0.33400  -0.32180  -0.31078  -0.30570  -0.29795
  Beta  occ. eigenvalues --   -0.29182  -0.27127  -0.26957  -0.26784  -0.25041
  Beta  occ. eigenvalues --   -0.24266  -0.22362  -0.21884  -0.21443  -0.15406
  Beta  occ. eigenvalues --   -0.14850  -0.13058  -0.11420  -0.10740  -0.09022
  Beta virt. eigenvalues --    0.07557   0.08363   0.08848   0.09807   0.09930
  Beta virt. eigenvalues --    0.10469   0.10917   0.11394   0.11575   0.11695
  Beta virt. eigenvalues --    0.12580   0.13293   0.14118   0.14748   0.15292

 Mulliken charges and spin densities:
               1          2
     1  C   -0.488524  -0.146987
     2  C    0.115921   0.072616
     3  C   -0.592447  -0.030309
     4  C   -0.045346  -0.101375
     5  N    0.104564   0.181224
     6  C   -0.676729   0.116257
     7  C    0.793403  -0.018668
     8  C   -1.029003   0.227479
     9  C   -0.136671   0.186357
    10  N    0.380603  -0.043653
    11  C    0.028697  -0.083681
    12  C   -0.017387  -0.096966
    13  C    0.115342  -0.373469
    14  N   -0.234480   0.128619
    15  H    0.188186  -0.008277
    16  H    0.085044   0.030481
    17  H    0.053653   0.062062
    18  H    0.079732   0.070906
    19  H    0.184790   0.001867
    20  H    0.115977  -0.005394
    21  H    0.090172   0.024519
    22  H    0.139494   0.001236
    23  H    0.121628  -0.018758
    24  H    0.061645   0.047512
    25  H   -0.046422   0.147367
    26  H   -0.483075   0.628257
    27  H    0.091232   0.000779
 Sum of Mulliken charges =  -1.00000   1.00000

 Dipole moment (field-independent basis, Debye):
    X=              4.0395    Y=              0.8561    Z=             -0.2529  Tot=              4.1370
 Quadrupole moment (field-independent basis, Debye-Ang):
   XX=           -135.6549   YY=           -101.0815   ZZ=            -99.6418
   XY=             -2.9587   XZ=             -0.5345   YZ=             -1.4225

 Summary of Natural Population Analysis:

                                       Natural Population
                Natural  -----------------------------------------------
    Atom  No    Charge         Core      Valence    Rydberg      Total
 -----------------------------------------------------------------------
      C    1   -0.28136      0.99965     2.27670    0.00501     3.28136
      C    2   -0.12145      0.99958     2.11147    0.01040     3.12145
      C    3   -0.28196      0.99966     2.27777    0.00454     3.28196
      C    4    0.10020      0.99953     1.88433    0.01595     2.89980
      N    5   -0.19214      0.99962     2.68375    0.00877     3.69214
      C    6    0.24387      0.99950     1.74194    0.01469     2.75613
      C    7   -0.15639      0.99953     2.14796    0.00889     3.15639
      C    8   -0.04237      0.99958     2.03430    0.00849     3.04237
      C    9   -0.10612      0.99950     2.09686    0.00975     3.10612
      N   10   -0.11666      0.99963     2.60438    0.01265     3.61666
      C   11    0.01483      0.99957     1.97451    0.01109     2.98517
      C   12   -0.17514      0.99957     2.16584    0.00973     3.17514
      C   13   -0.01936      0.99965     2.00291    0.01681     3.01936
      N   14   -0.11474      0.99973     2.60451    0.01050     3.61474
      H   15    0.10836      0.00000     0.39066    0.00098     0.39164
      H   16    0.09743      0.00000     0.40158    0.00099     0.40257
      H   17    0.08843      0.00000     0.41052    0.00105     0.41157
      H   18    0.08826      0.00000     0.40952    0.00222     0.41174
      H   19    0.11074      0.00000     0.38834    0.00092     0.38926
      H   20    0.09673      0.00000     0.40258    0.00069     0.40327
      H   21    0.08803      0.00000     0.41098    0.00098     0.41197
      H   22    0.09855      0.00000     0.40034    0.00111     0.40145
      H   23    0.08914      0.00000     0.41004    0.00083     0.41086
      H   24    0.09224      0.00000     0.40679    0.00097     0.40776
      H   25    0.09889      0.00000     0.40006    0.00105     0.40111
      H   26    0.10253      0.00000     0.39632    0.00115     0.39747
      H   27    0.08948      0.00000     0.40966    0.00085     0.41052
 =======================================================================
   * Total *    0.00000     13.99432    35.84461    0.16107    50.00000

 Normal termination of Gaussian 16 at Thu Dec 10 11:34:05 2020.
