 Gaussian 16, Revision A.03,

 -----------------------------------------------------------
 # opt freq B3LYP/6-31G(d) empiricaldispersion=gd3bj scf=xqc
 -----------------------------------------------------------

 -----------------------------
 CID_24775782_JID_875_neutraal
 -----------------------------
 Symbolic Z-matrix:
 Charge =  0 Multiplicity = 1

 SCF Done:  E(RB3LYP) =  -425.289983855     A.U. after   14 cycles
 SCF Done:  E(RB3LYP) =  -425.311117464     A.U. after   13 cycles
 SCF Done:  E(RB3LYP) =  -425.312206711     A.U. after   13 cycles
 SCF Done:  E(RB3LYP) =  -425.312057007     A.U. after   12 cycles
 SCF Done:  E(RB3LYP) =  -425.311677360     A.U. after   12 cycles
 SCF Done:  E(RB3LYP) =  -425.311156788     A.U. after   12 cycles
 SCF Done:  E(RB3LYP) =  -425.312223405     A.U. after    8 cycles
 SCF Done:  E(RB3LYP) =  -425.312546110     A.U. after   12 cycles
 SCF Done:  E(RB3LYP) =  -425.312593760     A.U. after   11 cycles
 SCF Done:  E(RB3LYP) =  -425.312500833     A.U. after   10 cycles
 SCF Done:  E(RB3LYP) =  -425.312605617     A.U. after   11 cycles
 SCF Done:  E(RB3LYP) =  -425.312607509     A.U. after    9 cycles
 SCF Done:  E(RB3LYP) =  -425.312607755     A.U. after    8 cycles
 SCF Done:  E(RB3LYP) =  -425.312607833     A.U. after    8 cycles
 Optimization completed.
    -- Stationary point found.

 1\1\GINC-NODE364\FOpt\RB3LYP\6-31G(d)\C9H12O1\VSC10255\08-Dec-2020\0\\
 # opt freq B3LYP/6-31G(d) empiricaldispersion=gd3bj scf=xqc\\CID_24775
 782_JID_875_neutraal\\0,1\C,0.9834084175,-0.2242425851,0.0867102131\C,
 0.4626737845,-0.9178948984,1.3261436023\C,-0.3085849953,-0.2913063354,
 2.2354958275\C,-0.8569040794,-0.895261536,3.4954222953\O,-0.4411169007
 ,-0.1595511693,4.6479574416\C,0.9316374357,-0.3704548187,4.9841827027\
 C,1.1654854231,-1.7276311325,5.5871525744\C,1.9740943878,-2.6487322392
 ,5.0635068792\C,0.8355183528,-2.2917024013,1.4709595094\C,1.1925594724

 Normal termination of Gaussian 16 at Tue Dec  8 13:24:05 2020.

 --------------------------------------------------------------------
 #N Geom=AllCheck Guess=TCheck SCRF=Check GenChk RB3LYP/6-31G(d) Freq
 --------------------------------------------------------------------

 Structure from the checkpoint file:  "JID_875.chk"
 -----------------------------
 CID_24775782_JID_875_neutraal
 -----------------------------
 Charge =  0 Multiplicity = 1

 SCF Done:  E(RB3LYP) =  -425.312607833     A.U. after    1 cycles

  Exact polarizability:  94.285   6.301 119.674  -8.859   3.447  65.020
 Approx polarizability: 120.424  21.315 211.537 -14.124   4.177  93.019

                      1                      2                      3
                      A                      A                      A
 Frequencies --     31.6827                61.0309                97.8661
 Red. masses --      3.4894                 4.2767                 2.5846
 Frc consts  --      0.0021                 0.0094                 0.0146
 IR Inten    --      0.2264                 0.1832                 0.2224

                      4                      5                      6
                      A                      A                      A
 Frequencies --    100.5136               146.4064               174.1254
 Red. masses --      3.1565                 3.3989                 1.1199
 Frc consts  --      0.0188                 0.0429                 0.0200
 IR Inten    --      0.2357                 0.8096                 0.8777

                      7                      8                      9
                      A                      A                      A
 Frequencies --    201.5327               263.0011               282.7123
 Red. masses --      2.5360                 3.2474                 2.8781
 Frc consts  --      0.0607                 0.1323                 0.1355
 IR Inten    --      5.9372                 4.0269                 1.0682

                     10                     11                     12
                      A                      A                      A
 Frequencies --    315.0996               400.2900               426.9122
 Red. masses --      2.5724                 2.1589                 3.8142
 Frc consts  --      0.1505                 0.2038                 0.4096
 IR Inten    --      2.2368                 3.6922                 1.3327

                     13                     14                     15
                      A                      A                      A
 Frequencies --    436.0698               500.0492               576.9354
 Red. masses --      2.2483                 2.8122                 1.4951
 Frc consts  --      0.2519                 0.4143                 0.2932
 IR Inten    --      2.8518                10.6714                40.9675

                     16                     17                     18
                      A                      A                      A
 Frequencies --    603.9093               620.7675               622.2851
 Red. masses --      4.8802                 2.5809                 1.2215
 Frc consts  --      1.0486                 0.5860                 0.2787
 IR Inten    --      3.1663                 4.8493                48.0713

                     19                     20                     21
                      A                      A                      A
 Frequencies --    669.6779               771.5330               874.5102
 Red. masses --      1.7698                 3.1600                 1.4565
 Frc consts  --      0.4676                 1.1083                 0.6563
 IR Inten    --      6.8803                 4.4006                11.2783

                     22                     23                     24
                      A                      A                      A
 Frequencies --    926.0724               946.9839               954.0050
 Red. masses --      2.0971                 2.1218                 1.3498
 Frc consts  --      1.0596                 1.1211                 0.7238
 IR Inten    --      4.1388                10.1731                42.8364

                     25                     26                     27
                      A                      A                      A
 Frequencies --    974.1732              1007.0146              1034.8105
 Red. masses --      1.8716                 1.7568                 1.1512
 Frc consts  --      1.0465                 1.0496                 0.7263
 IR Inten    --     10.2365                 8.1991                17.8653

                     28                     29                     30
                      A                      A                      A
 Frequencies --   1062.9671              1081.3766              1086.7108
 Red. masses --      1.6467                 1.7741                 2.6123
 Frc consts  --      1.0962                 1.2223                 1.8176
 IR Inten    --     15.9549                39.1746                61.9186

                     31                     32                     33
                      A                      A                      A
 Frequencies --   1116.3141              1189.8585              1219.5879
 Red. masses --      4.6951                 2.0060                 2.3267
 Frc consts  --      3.4472                 1.6733                 2.0390
 IR Inten    --     69.9517                12.1864                 6.1554

                     34                     35                     36
                      A                      A                      A
 Frequencies --   1297.9957              1328.9800              1331.9493
 Red. masses --      1.2204                 1.2784                 1.1873
 Frc consts  --      1.2114                 1.3303                 1.2411
 IR Inten    --      4.9902                 0.1099                 6.1446

                     37                     38                     39
                      A                      A                      A
 Frequencies --   1363.4949              1396.4139              1422.2056
 Red. masses --      1.4178                 1.2631                 1.3243
 Frc consts  --      1.5530                 1.4512                 1.5783
 IR Inten    --      6.2506                17.6391                 6.6928

                     40                     41                     42
                      A                      A                      A
 Frequencies --   1438.8974              1478.9139              1505.7309
 Red. masses --      1.2415                 1.1892                 1.0446
 Frc consts  --      1.5145                 1.5324                 1.3954
 IR Inten    --      1.1894                 6.0067                 6.8724

                     43                     44                     45
                      A                      A                      A
 Frequencies --   1520.4228              1521.8892              1522.8561
 Red. masses --      1.0905                 1.0848                 1.0729
 Frc consts  --      1.4853                 1.4804                 1.4660
 IR Inten    --      6.3061                 0.7645                 9.1912

                     46                     47                     48
                      A                      A                      A
 Frequencies --   1708.8955              1732.3567              2217.6250
 Red. masses --      6.7761                 4.4094                 6.1462
 Frc consts  --     11.6589                 7.7967                17.8086
 IR Inten    --      4.2583                 1.0849                 0.2821

                     49                     50                     51
                      A                      A                      A
 Frequencies --   3025.9975              3049.4326              3051.7591
 Red. masses --      1.0629                 1.0358                 1.0568
 Frc consts  --      5.7344                 5.6747                 5.7989
 IR Inten    --     42.3233                25.2793                24.2037

                     52                     53                     54
                      A                      A                      A
 Frequencies --   3085.8156              3096.1758              3105.7928
 Red. masses --      1.1000                 1.1075                 1.1012
 Frc consts  --      6.1715                 6.2553                 6.2583
 IR Inten    --     30.5124                17.2086                16.2534

                     55                     56                     57
                      A                      A                      A
 Frequencies --   3137.2432              3154.9352              3166.8216
 Red. masses --      1.1027                 1.0662                 1.0840
 Frc consts  --      6.3945                 6.2529                 6.4049
 IR Inten    --     14.7515                15.6998                 8.9104

                     58                     59                     60
                      A                      A                      A
 Frequencies --   3172.8072              3240.1711              3496.3020
 Red. masses --      1.0892                 1.1162                 1.1561
 Frc consts  --      6.4602                 6.9045                 8.3265
 IR Inten    --     15.8780                19.1132                61.9843

 - Thermochemistry -
 -------------------
 Temperature   298.150 Kelvin.  Pressure   1.00000 Atm.
 Atom     1 has atomic number  6 and mass  12.00000

 Molecular mass:   136.08882 amu.
 Principal axes and moments of inertia in atomic units:
                           1         2         3
     Eigenvalues --  1038.468301933.636192566.47406
           X            0.99919  -0.03823  -0.01267
           Y            0.03836   0.99921   0.01001
           Z            0.01228  -0.01049   0.99987
 This molecule is an asymmetric top.
 Rotational symmetry number  1.
 Warning -- assumption of classical behavior for rotation
           may cause significant error
 Rotational temperatures (Kelvin)      0.08341     0.04479     0.03375
 Rotational constants (GHZ):           1.73789     0.93334     0.70320
 Zero-point vibrational energy     486573.1 (Joules/Mol)
                                  116.29376 (Kcal/Mol)
 Warning -- explicit consideration of  17 degrees of freedom as
           vibrations may cause significant error
 Vibrational temperatures:     45.58    87.81   140.81   144.62   210.65
          (Kelvin)            250.53   289.96   378.40   406.76   453.36
                              575.93   614.23   627.41   719.46   830.08
                              868.89   893.15   895.33   963.52  1110.06
                             1258.23  1332.41  1362.50  1372.60  1401.62
                             1448.87  1488.86  1529.37  1555.86  1563.53
                             1606.13  1711.94  1754.71  1867.53  1912.11
                             1916.38  1961.77  2009.13  2046.24  2070.25
                             2127.83  2166.41  2187.55  2189.66  2191.05
                             2458.72  2492.47  3190.67  4353.74  4387.45
                             4390.80  4439.80  4454.71  4468.54  4513.79
                             4539.25  4556.35  4564.96  4661.88  5030.40

 Zero-point correction=                           0.185326 (Hartree/Particle)
 Thermal correction to Energy=                    0.196905
 Thermal correction to Enthalpy=                  0.197850
 Thermal correction to Gibbs Free Energy=         0.147260
 Sum of electronic and zero-point Energies=           -425.127282
 Sum of electronic and thermal Energies=              -425.115702
 Sum of electronic and thermal Enthalpies=            -425.114758
 Sum of electronic and thermal Free Energies=         -425.165348

                     E (Thermal)             CV                S
                      KCal/Mol        Cal/Mol-Kelvin    Cal/Mol-Kelvin
 Total                  123.560             41.544            106.475
 Electronic               0.000              0.000              0.000
 Translational            0.889              2.981             40.637
 Rotational               0.889              2.981             30.023
 Vibrational            121.783             35.582             35.816
 Vibration     1          0.594              1.983              5.721
 Vibration     2          0.597              1.973              4.424
 Vibration     3          0.603              1.951              3.496
 Vibration     4          0.604              1.949              3.444
 Vibration     5          0.617              1.907              2.718
 Vibration     6          0.627              1.874              2.390
 Vibration     7          0.638              1.838              2.119
 Vibration     8          0.670              1.741              1.642
 Vibration     9          0.682              1.706              1.517
 Vibration    10          0.702              1.645              1.335
 Vibration    11          0.766              1.469              0.962
 Vibration    12          0.789              1.412              0.869
 Vibration    13          0.797              1.392              0.839
 Vibration    14          0.855              1.250              0.658
 Vibration    15          0.933              1.081              0.491
 Vibration    16          0.962              1.024              0.443
 Vibration    17          0.981              0.988              0.415

                           ! Non-Optimized Parameters !

 1\1\GINC-NODE364\Freq\RB3LYP\6-31G(d)\C9H12O1\VSC10255\08-Dec-2020\0\\
 #N Geom=AllCheck Guess=TCheck SCRF=Check GenChk RB3LYP/6-31G(d) Freq\\
 CID_24775782_JID_875_neutraal\\0,1\C,0.9834084175,-0.2242425851,0.0867
 102131\C,0.4626737845,-0.9178948984,1.3261436023\C,-0.3085849953,-0.29
 13063354,2.2354958275\C,-0.8569040794,-0.895261536,3.4954222953\O,-0.4
 411169007,-0.1595511693,4.6479574416\C,0.9316374357,-0.3704548187,4.98
 41827027\C,1.1654854231,-1.7276311325,5.5871525744\C,1.9740943878,-2.6
 487322392,5.0635068792\C,0.8355183528,-2.2917024013,1.4709595094\C,1.1

 Normal termination of Gaussian 16 at Tue Dec  8 13:29:50 2020.

 ----------------------------------------------------------------------
 # B3LYP/6-311++G(d,p) empiricaldispersion=gd3bj scf=xqc pop=npa geom=c
 heck
 ----------------------------------------------------------------------

 -------------------------------------
 CID_24775782_JID_875_Energie_neutraal
 -------------------------------------
 Structure from the checkpoint file:  "JID_875.chk"
 Charge =  0 Multiplicity = 1

 SCF Done:  E(RB3LYP) =  -425.438537878     A.U. after   14 cycles
 Normal termination of Gaussian 16 at Tue Dec  8 13:33:03 2020.

 ----------------------------------------------------------------------
 # B3LYP/6-311++G(d,p) empiricaldispersion=gd3bj scf=xqc pop=npa geom=c
 heck
 ----------------------------------------------------------------------

 -----------------------------------
 CID_24775782_JID_875_Energie_kation
 -----------------------------------
 Structure from the checkpoint file:  "JID_875.chk"
 Charge =  1 Multiplicity = 2

 SCF Done:  E(UB3LYP) =  -425.119297197     A.U. after   23 cycles
 Normal termination of Gaussian 16 at Tue Dec  8 13:39:48 2020.
 Gaussian 16:  ES64L-G16RevA.03 25-Dec-2016

 ----------------------------------
 CID_24775782_JID_875_Energie_anion
 ----------------------------------
 Structure from the checkpoint file:  "JID_875.chk"
 Charge = -1 Multiplicity = 2

                         Standard orientation:
 ---------------------------------------------------------------------
 Center     Atomic      Atomic             Coordinates (Angstroms)
 Number     Number       Type             X           Y           Z
 ---------------------------------------------------------------------
      1          6           0        3.034579   -0.465005   -0.860929
      2          6           0        1.775415   -0.232949   -0.055219
      3          6           0        0.934201   -1.231580    0.275646
      4          6           0       -0.338994   -1.091657    1.058094
      5          8           0       -1.459497   -1.582585    0.319211
      6          6           0       -1.857654   -0.712447   -0.742067
      7          6           0       -2.549433    0.521776   -0.233814
      8          6           0       -2.112077    1.763317   -0.443039
      9          6           0        1.534581    1.120024    0.343270
     10          6           0        1.383034    2.283606    0.640952
     11          1           0        3.131795   -1.518546   -1.138199
     12          1           0        3.922504   -0.170216   -0.289388
     13          1           0        3.026661    0.139660   -1.775318
     14          1           0        1.164982   -2.237614   -0.070837
     15          1           0       -0.300683   -1.716720    1.957727
     16          1           0       -0.494126   -0.051125    1.367818
     17          1           0       -0.995918   -0.436419   -1.366837
     18          1           0       -2.541251   -1.313370   -1.352685
     19          1           0       -3.450577    0.346851    0.353700
     20          1           0       -2.641363    2.631695   -0.059131
     21          1           0       -1.199854    1.956012   -1.002523
     22          1           0        1.231898    3.299956    0.924622
 ---------------------------------------------------------------------

 SCF Done:  E(UB3LYP) =  -425.421826843     A.U. after   33 cycles
 SCF Done:  E(UB3LYP) =  -425.421826843     a.u. after    1 cycles

 The electronic state is 2-A.
 Alpha  occ. eigenvalues --  -19.00245 -10.09799 -10.09006 -10.05972 -10.05867
 Alpha  occ. eigenvalues --  -10.05242 -10.05182 -10.04238 -10.03221 -10.03159
 Alpha  occ. eigenvalues --   -0.91110  -0.69721  -0.67110  -0.61677  -0.60558
 Alpha  occ. eigenvalues --   -0.56284  -0.50988  -0.46902  -0.44280  -0.39158
 Alpha  occ. eigenvalues --   -0.37839  -0.36760  -0.35224  -0.32459  -0.31447
 Alpha  occ. eigenvalues --   -0.30605  -0.30185  -0.27081  -0.26068  -0.25090
 Alpha  occ. eigenvalues --   -0.23714  -0.19609  -0.19259  -0.15924  -0.15353
 Alpha  occ. eigenvalues --   -0.13934  -0.11434   0.05636
 Alpha virt. eigenvalues --    0.07790   0.07995   0.08596   0.09886   0.09947
 Alpha virt. eigenvalues --    0.10364   0.10662   0.11536   0.12206   0.13166
 Alpha virt. eigenvalues --    0.13549   0.13977   0.15172   0.15858   0.16918

  Beta  occ. eigenvalues --  -19.00204 -10.09780 -10.09018 -10.05858 -10.05831
  Beta  occ. eigenvalues --  -10.05238 -10.05148 -10.04214 -10.03025 -10.02974
  Beta  occ. eigenvalues --   -0.91028  -0.69354  -0.67054  -0.61441  -0.60436
  Beta  occ. eigenvalues --   -0.56139  -0.50841  -0.46508  -0.44182  -0.38940
  Beta  occ. eigenvalues --   -0.37753  -0.36663  -0.35087  -0.32343  -0.31353
  Beta  occ. eigenvalues --   -0.30465  -0.29998  -0.27017  -0.25955  -0.25009
  Beta  occ. eigenvalues --   -0.23613  -0.19517  -0.18541  -0.15852  -0.15260
  Beta  occ. eigenvalues --   -0.13831  -0.10267
  Beta virt. eigenvalues --    0.08007   0.08553   0.08935   0.09776   0.10120
  Beta virt. eigenvalues --    0.10294   0.10715   0.10992   0.11748   0.12430
  Beta virt. eigenvalues --    0.13174   0.13884   0.14208   0.15273   0.15851

 Mulliken charges and spin densities:
               1          2
     1  C    0.725911  -1.356713
     2  C   -0.832583   0.981736
     3  C   -0.684347   0.553113
     4  C   -0.146251  -0.318295
     5  O   -0.080129   0.021017
     6  C    0.624422  -1.135901
     7  C   -0.554595   0.834361
     8  C    0.518209  -0.982191
     9  C    1.484606  -0.796809
    10  C   -0.866939   0.363397
    11  H   -0.219491   0.352504
    12  H    0.159137  -0.031485
    13  H   -0.177224   0.332740
    14  H   -0.010602   0.123311
    15  H   -0.054013   0.217998
    16  H    0.302372  -0.187932
    17  H   -0.026605   0.169332
    18  H   -0.119362   0.267994
    19  H   -0.176763   0.327180
    20  H   -0.544467   0.664804
    21  H    0.079392   0.036440
    22  H   -0.400678   0.563397
 Sum of Mulliken charges =  -1.00000   1.00000

 Dipole moment (field-independent basis, Debye):
    X=              0.9502    Y=             -2.8846    Z=              1.5395  Tot=              3.4049
 Quadrupole moment (field-independent basis, Debye-Ang):
   XX=           -102.8966   YY=           -104.7978   ZZ=            -83.8247
   XY=              2.9225   XZ=              4.7146   YZ=             -0.1605

 Summary of Natural Population Analysis:

                                       Natural Population
                Natural  -----------------------------------------------
    Atom  No    Charge         Core      Valence    Rydberg      Total
 -----------------------------------------------------------------------
      C    1   -0.28415      0.99964     2.27868    0.00583     3.28415
      C    2   -0.04520      0.99943     2.03614    0.00964     3.04520
      C    3   -0.04537      0.99948     2.03652    0.00936     3.04537
      C    4   -0.03293      0.99955     2.02055    0.01283     3.03293
      O    5   -0.29717      0.99989     3.28768    0.00960     4.29717
      C    6   -0.02973      0.99955     2.01705    0.01313     3.02973
      C    7   -0.10856      0.99956     2.09820    0.01079     3.10856
      C    8   -0.17685      0.99956     2.16859    0.00870     3.17685
      C    9   -0.01154      0.99937     2.00369    0.00848     3.01154
      C   10   -0.10318      0.99928     2.09957    0.00433     3.10318
      H   11    0.09822      0.00000     0.40095    0.00082     0.40178
      H   12    0.09770      0.00000     0.40133    0.00097     0.40230
      H   13    0.10392      0.00000     0.39442    0.00167     0.39608
      H   14    0.08801      0.00000     0.41087    0.00112     0.41199
      H   15    0.09028      0.00000     0.40854    0.00118     0.40972
      H   16    0.09193      0.00000     0.40634    0.00172     0.40807
      H   17    0.08695      0.00000     0.41057    0.00248     0.41305
      H   18    0.08960      0.00000     0.40892    0.00148     0.41040
      H   19    0.09075      0.00000     0.40809    0.00116     0.40925
      H   20    0.09295      0.00000     0.40539    0.00165     0.40705
      H   21    0.09764      0.00000     0.40063    0.00173     0.40236
      H   22    0.10672      0.00000     0.39192    0.00136     0.39328
 =======================================================================
   * Total *    0.00000      9.99531    26.89464    0.11004    37.00000

 Normal termination of Gaussian 16 at Tue Dec  8 13:49:05 2020.
