 Gaussian 16, Revision A.03,

 -----------------------------------------------------------
 # opt freq B3LYP/6-31G(d) empiricaldispersion=gd3bj scf=xqc
 -----------------------------------------------------------

 -------------------------------
 CID_152060371_JID_5854_neutraal
 -------------------------------
 Symbolic Z-matrix:
 Charge =  0 Multiplicity = 1

 SCF Done:  E(RB3LYP) =  -660.202650523     A.U. after   17 cycles
 SCF Done:  E(RB3LYP) =  -660.207733380     A.U. after   14 cycles
 SCF Done:  E(RB3LYP) =  -660.207944033     A.U. after   13 cycles
 SCF Done:  E(RB3LYP) =  -660.208408019     A.U. after   12 cycles
 SCF Done:  E(RB3LYP) =  -660.208450741     A.U. after   12 cycles
 SCF Done:  E(RB3LYP) =  -660.208507397     A.U. after   12 cycles
 SCF Done:  E(RB3LYP) =  -660.208551717     A.U. after   12 cycles
 SCF Done:  E(RB3LYP) =  -660.208586043     A.U. after   12 cycles
 SCF Done:  E(RB3LYP) =  -660.208673661     A.U. after   13 cycles
 SCF Done:  E(RB3LYP) =  -660.208693814     A.U. after   12 cycles
 SCF Done:  E(RB3LYP) =  -660.208792760     A.U. after   12 cycles
 SCF Done:  E(RB3LYP) =  -660.208796856     A.U. after   10 cycles
 SCF Done:  E(RB3LYP) =  -660.208801903     A.U. after   12 cycles
 SCF Done:  E(RB3LYP) =  -660.208802845     A.U. after   10 cycles
 SCF Done:  E(RB3LYP) =  -660.208803002     A.U. after    9 cycles
 Optimization completed.
    -- Stationary point found.

 1\1\GINC-NODE309\FOpt\RB3LYP\6-31G(d)\C10H9N5\VSC10255\10-Dec-2020\0\\
 # opt freq B3LYP/6-31G(d) empiricaldispersion=gd3bj scf=xqc\\CID_15206
 0371_JID_5854_neutraal\\0,1\C,1.4964038753,0.2686023216,-0.3683986856\
 C,0.7228655267,1.3968461263,-0.6354699972\C,-0.6568974303,1.2315280674
 ,-0.7515103139\N,-1.2790064537,0.0543359522,-0.624689172\C,-0.53030090
 71,-1.031166864,-0.3666909329\C,0.8607818134,-0.962719838,-0.231264688
 6\C,-1.278933863,-2.3350814935,-0.1916488918\C,-1.9437757119,-2.436509
 1647,1.1598641426\C,-2.7588561087,-1.4868247739,1.7446221416\N,-3.1585

 Normal termination of Gaussian 16 at Thu Dec 10 17:26:05 2020.

 --------------------------------------------------------------------
 #N Geom=AllCheck Guess=TCheck SCRF=Check GenChk RB3LYP/6-31G(d) Freq
 --------------------------------------------------------------------

 Structure from the checkpoint file:  "JID_5854.chk"
 -------------------------------
 CID_152060371_JID_5854_neutraal
 -------------------------------
 Charge =  0 Multiplicity = 1

 SCF Done:  E(RB3LYP) =  -660.208803002     A.U. after    1 cycles

  Exact polarizability: 194.216 -28.771 130.133 -10.123   3.992  78.625
 Approx polarizability: 275.719 -72.788 258.294 -20.657  12.010 131.017

                      1                      2                      3
                      A                      A                      A
 Frequencies --     13.0417                25.9816                65.3195
 Red. masses --      6.1415                 4.5971                 6.0704
 Frc consts  --      0.0006                 0.0018                 0.0153
 IR Inten    --      0.8133                 3.1063                 0.2757

                      4                      5                      6
                      A                      A                      A
 Frequencies --     75.5416               104.5718               172.8868
 Red. masses --      5.4216                 8.2493                 5.8196
 Frc consts  --      0.0182                 0.0531                 0.1025
 IR Inten    --      1.7612                 0.3731                 1.8434

                      7                      8                      9
                      A                      A                      A
 Frequencies --    231.2058               260.4987               317.2392
 Red. masses --      5.4253                 6.9898                 8.4988
 Frc consts  --      0.1709                 0.2795                 0.5039
 IR Inten    --      1.3361                 1.3736                 0.6934

                     10                     11                     12
                      A                      A                      A
 Frequencies --    350.5345               416.0568               421.5742
 Red. masses --      2.1572                 3.6133                 4.3493
 Frc consts  --      0.1562                 0.3685                 0.4554
 IR Inten    --      0.9072                 2.1493                11.1993

                     13                     14                     15
                      A                      A                      A
 Frequencies --    457.8330               479.3805               500.2408
 Red. masses --      1.3228                 3.6334                13.6073
 Frc consts  --      0.1634                 0.4920                 2.0062
 IR Inten    --     83.5148                 0.9438                 7.0478

                     16                     17                     18
                      A                      A                      A
 Frequencies --    542.0565               599.2599               637.8214
 Red. masses --      6.4961                 4.2490                 4.9115
 Frc consts  --      1.1246                 0.8990                 1.1772
 IR Inten    --      9.9916                 6.1433                 3.1654

                     19                     20                     21
                      A                      A                      A
 Frequencies --    648.6153               656.8431               701.2252
 Red. masses --      3.3587                 3.8448                 3.0193
 Frc consts  --      0.8325                 0.9773                 0.8747
 IR Inten    --      0.2768                 6.7404                19.8638

                     22                     23                     24
                      A                      A                      A
 Frequencies --    741.6143               764.7895               775.1382
 Red. masses --      1.4348                 1.5832                 6.5669
 Frc consts  --      0.4649                 0.5456                 2.3247
 IR Inten    --      2.2235                14.6355                20.3590

                     25                     26                     27
                      A                      A                      A
 Frequencies --    784.9482               811.5002               860.6034
 Red. masses --      1.3888                 3.1481                 3.5823
 Frc consts  --      0.5042                 1.2214                 1.5632
 IR Inten    --     42.4934                10.4053                 4.6237

                     28                     29                     30
                      A                      A                      A
 Frequencies --    905.6911               942.8326               974.9889
 Red. masses --      1.4203                 1.8898                 1.4216
 Frc consts  --      0.6864                 0.9898                 0.7962
 IR Inten    --      0.3858                 4.7644                 0.2545

                     31                     32                     33
                      A                      A                      A
 Frequencies --   1002.0827              1003.5962              1011.1631
 Red. masses --      3.1791                 1.2900                 4.5487
 Frc consts  --      1.8809                 0.7655                 2.7402
 IR Inten    --     22.8165                 0.2402                10.8755

                     34                     35                     36
                      A                      A                      A
 Frequencies --   1015.0435              1080.8258              1122.8748
 Red. masses --      6.9638                 2.3065                 1.5678
 Frc consts  --      4.2273                 1.5875                 1.1647
 IR Inten    --      5.4955                 3.6061                 2.0604

                     37                     38                     39
                      A                      A                      A
 Frequencies --   1130.5341              1157.5232              1183.6251
 Red. masses --      1.4720                 1.5958                 1.2975
 Frc consts  --      1.1084                 1.2598                 1.0710
 IR Inten    --     28.3942                 3.2587                 3.7820

                     40                     41                     42
                      A                      A                      A
 Frequencies --   1188.9341              1258.3628              1271.3271
 Red. masses --      1.1823                 2.5420                 1.8704
 Frc consts  --      0.9847                 2.3715                 1.7812
 IR Inten    --      0.5480                 7.8225                 6.9517

                     43                     44                     45
                      A                      A                      A
 Frequencies --   1296.4560              1315.9942              1345.4553
 Red. masses --      2.9105                 3.9120                 1.5214
 Frc consts  --      2.8823                 3.9917                 1.6227
 IR Inten    --      0.8041                 0.8446                 2.3910

                     46                     47                     48
                      A                      A                      A
 Frequencies --   1357.2785              1395.8562              1455.9370
 Red. masses --      1.8911                 4.1890                 3.5530
 Frc consts  --      2.0526                 4.8089                 4.4374
 IR Inten    --     10.2765                47.3608                 1.9996

                     49                     50                     51
                      A                      A                      A
 Frequencies --   1482.8983              1490.4402              1507.1342
 Red. masses --      2.2996                 4.3422                 1.1353
 Frc consts  --      2.9793                 5.6832                 1.5194
 IR Inten    --     17.9204                41.7445                 1.1972

                     52                     53                     54
                      A                      A                      A
 Frequencies --   1524.3604              1540.5978              1625.2499
 Red. masses --      2.2999                 5.3393                 4.1975
 Frc consts  --      3.1488                 7.4664                 6.5326
 IR Inten    --     29.4702                 9.6808                73.1542

                     55                     56                     57
                      A                      A                      A
 Frequencies --   1633.1148              1652.3900              2275.5112
 Red. masses --      5.7336                 5.4566                13.9888
 Frc consts  --      9.0097                 8.7780                42.6766
 IR Inten    --     14.7343                54.7822               874.4238

                     58                     59                     60
                      A                      A                      A
 Frequencies --   3053.5293              3099.0566              3167.9593
 Red. masses --      1.0616                 1.1018                 1.0891
 Frc consts  --      5.8317                 6.2348                 6.4396
 IR Inten    --     24.3293                12.1830                28.6483

                     61                     62                     63
                      A                      A                      A
 Frequencies --   3190.3486              3205.8019              3216.5896
 Red. masses --      1.0874                 1.0927                 1.0978
 Frc consts  --      6.5210                 6.6166                 6.6918
 IR Inten    --      5.8719                22.0309                19.4862

                     64                     65                     66
                      A                      A                      A
 Frequencies --   3257.9012              3302.3101              3669.1955
 Red. masses --      1.0958                 1.0971                 1.0805
 Frc consts  --      6.8525                 7.0488                 8.5708
 IR Inten    --      2.3602                 0.9740                73.2911

 - Thermochemistry -
 -------------------
 Temperature   298.150 Kelvin.  Pressure   1.00000 Atm.
 Atom     1 has atomic number  6 and mass  12.00000

 Molecular mass:   199.08580 amu.
 Principal axes and moments of inertia in atomic units:
                           1         2         3
     Eigenvalues --  1037.388527000.530887402.13146
           X            0.99997   0.00459  -0.00623
           Y           -0.00443   0.99966   0.02571
           Z            0.00634  -0.02568   0.99965
 This molecule is an asymmetric top.
 Rotational symmetry number  1.
 Warning -- assumption of classical behavior for rotation
           may cause significant error
 Rotational temperatures (Kelvin)      0.08349     0.01237     0.01170
 Rotational constants (GHZ):           1.73970     0.25780     0.24381
 Zero-point vibrational energy     482855.2 (Joules/Mol)
                                  115.40517 (Kcal/Mol)
 Warning -- explicit consideration of  17 degrees of freedom as
           vibrations may cause significant error
 Vibrational temperatures:     18.76    37.38    93.98   108.69   150.46
          (Kelvin)            248.75   332.65   374.80   456.44   504.34
                              598.61   606.55   658.72   689.72   719.73
                              779.90   862.20   917.68   933.21   945.05
                             1008.91  1067.02  1100.36  1115.25  1129.37
                             1167.57  1238.22  1303.09  1356.53  1402.79
                             1441.77  1443.95  1454.84  1460.42  1555.07
                             1615.57  1626.59  1665.42  1702.97  1710.61
                             1810.50  1829.16  1865.31  1893.42  1935.81
                             1952.82  2008.33  2094.77  2133.56  2144.41
                             2168.43  2193.21  2216.58  2338.37  2349.69
                             2377.42  3273.95  4393.35  4458.85  4557.99
                             4590.20  4612.43  4627.96  4687.39  4751.29
                             5279.15

 Zero-point correction=                           0.183910 (Hartree/Particle)
 Thermal correction to Energy=                    0.196396
 Thermal correction to Enthalpy=                  0.197340
 Thermal correction to Gibbs Free Energy=         0.141850
 Sum of electronic and zero-point Energies=           -660.024893
 Sum of electronic and thermal Energies=              -660.012407
 Sum of electronic and thermal Enthalpies=            -660.011463
 Sum of electronic and thermal Free Energies=         -660.066953

                     E (Thermal)             CV                S
                      KCal/Mol        Cal/Mol-Kelvin    Cal/Mol-Kelvin
 Total                  123.240             46.889            116.790
 Electronic               0.000              0.000              0.000
 Translational            0.889              2.981             41.770
 Rotational               0.889              2.981             32.353
 Vibrational            121.463             40.928             42.667
 Vibration     1          0.593              1.987              7.483
 Vibration     2          0.593              1.985              6.115
 Vibration     3          0.597              1.971              4.290
 Vibration     4          0.599              1.965              4.003
 Vibration     5          0.605              1.946              3.367
 Vibration     6          0.626              1.876              2.404
 Vibration     7          0.653              1.793              1.870
 Vibration     8          0.669              1.745              1.658
 Vibration     9          0.704              1.641              1.324
 Vibration    10          0.727              1.574              1.164
 Vibration    11          0.779              1.435              0.905
 Vibration    12          0.784              1.423              0.887
 Vibration    13          0.816              1.344              0.772
 Vibration    14          0.836              1.296              0.712
 Vibration    15          0.856              1.249              0.658
 Vibration    16          0.897              1.157              0.561
 Vibration    17          0.957              1.033              0.451

 Optimization completed.
    -- Stationary point found.

 1\1\GINC-NODE309\Freq\RB3LYP\6-31G(d)\C10H9N5\VSC10255\10-Dec-2020\0\\
 #N Geom=AllCheck Guess=TCheck SCRF=Check GenChk RB3LYP/6-31G(d) Freq\\
 CID_152060371_JID_5854_neutraal\\0,1\C,1.4964038753,0.2686023216,-0.36
 83986856\C,0.7228655267,1.3968461263,-0.6354699972\C,-0.6568974303,1.2
 315280674,-0.7515103139\N,-1.2790064537,0.0543359522,-0.624689172\C,-0
 .5303009071,-1.031166864,-0.3666909329\C,0.8607818134,-0.962719838,-0.
 2312646886\C,-1.278933863,-2.3350814935,-0.1916488918\C,-1.9437757119,
 -2.4365091647,1.1598641426\C,-2.7588561087,-1.4868247739,1.7446221416\

 Normal termination of Gaussian 16 at Thu Dec 10 17:32:18 2020.

 ----------------------------------------------------------------------
 # B3LYP/6-311++G(d,p) empiricaldispersion=gd3bj scf=xqc pop=npa geom=c
 heck
 ----------------------------------------------------------------------

 ---------------------------------------
 CID_152060371_JID_5854_Energie_neutraal
 ---------------------------------------
 Structure from the checkpoint file:  "JID_5854.chk"
 Charge =  0 Multiplicity = 1

 SCF Done:  E(RB3LYP) =  -660.384159143     A.U. after   16 cycles
 Normal termination of Gaussian 16 at Thu Dec 10 17:34:56 2020.

 ----------------------------------------------------------------------
 # B3LYP/6-311++G(d,p) empiricaldispersion=gd3bj scf=xqc pop=npa geom=c
 heck
 ----------------------------------------------------------------------

 -------------------------------------
 CID_152060371_JID_5854_Energie_kation
 -------------------------------------
 Structure from the checkpoint file:  "JID_5854.chk"
 Charge =  1 Multiplicity = 2

 SCF Done:  E(UB3LYP) =  -660.113892060     A.U. after   24 cycles
 Normal termination of Gaussian 16 at Thu Dec 10 17:40:08 2020.
 Gaussian 16:  ES64L-G16RevA.03 25-Dec-2016

 ------------------------------------
 CID_152060371_JID_5854_Energie_anion
 ------------------------------------
 Structure from the checkpoint file:  "JID_5854.chk"
 Charge = -1 Multiplicity = 2

                         Standard orientation:
 ---------------------------------------------------------------------
 Center     Atomic      Atomic             Coordinates (Angstroms)
 Number     Number       Type             X           Y           Z
 ---------------------------------------------------------------------
      1          6           0        3.690749    1.329556   -0.875115
      2          6           0        4.323821    0.089435   -0.937897
      3          6           0        3.770789   -0.964868   -0.211853
      4          7           0        2.671810   -0.853813    0.542333
      5          6           0        2.063724    0.342986    0.600150
      6          6           0        2.544010    1.457993   -0.095711
      7          6           0        0.801797    0.413623    1.433117
      8          6           0       -0.386865   -0.188629    0.723706
      9          6           0       -0.437628   -1.430518    0.120934
     10          7           0       -1.700541   -1.594067   -0.405054
     11          6           0       -2.450862   -0.476047   -0.148652
     12          6           0       -1.665535    0.421899    0.551823
     13          7           0       -3.771850   -0.466464   -0.618540
     14          7           0       -4.449242    0.542275   -0.391480
     15          7           0       -5.173930    1.413638   -0.245571
     16          1           0        4.083249    2.182061   -1.422713
     17          1           0        5.221270   -0.060151   -1.529901
     18          1           0        4.235275   -1.949555   -0.232427
     19          1           0        2.021099    2.407023   -0.024973
     20          1           0        0.987632   -0.113000    2.376972
     21          1           0        0.580544    1.456712    1.682718
     22          1           0        0.323934   -2.188089    0.025328
     23          1           0       -2.039713   -2.396787   -0.912511
     24          1           0       -1.971014    1.398235    0.902674
 ---------------------------------------------------------------------

 SCF Done:  E(UB3LYP) =  -660.380398975     A.U. after   33 cycles
 SCF Done:  E(UB3LYP) =  -660.380398978     a.u. after    2 cycles

 The electronic state is 2-A.
 Alpha  occ. eigenvalues --  -14.33113 -14.24017 -14.24009 -14.23906 -14.18179
 Alpha  occ. eigenvalues --  -10.11758 -10.09571 -10.09066 -10.06926 -10.06848
 Alpha  occ. eigenvalues --  -10.06670 -10.06515 -10.06482 -10.05149 -10.04113
 Alpha  occ. eigenvalues --   -1.00676  -0.87896  -0.84136  -0.82678  -0.69374
 Alpha  occ. eigenvalues --   -0.68774  -0.65375  -0.62856  -0.58914  -0.51965
 Alpha  occ. eigenvalues --   -0.51058  -0.49968  -0.46378  -0.44181  -0.40296
 Alpha  occ. eigenvalues --   -0.38066  -0.38002  -0.37542  -0.35877  -0.35031
 Alpha  occ. eigenvalues --   -0.32801  -0.32025  -0.31462  -0.30138  -0.29888
 Alpha  occ. eigenvalues --   -0.29624  -0.27949  -0.26679  -0.25902  -0.24353
 Alpha  occ. eigenvalues --   -0.19176  -0.17832  -0.17605  -0.14769  -0.14427
 Alpha  occ. eigenvalues --   -0.12894  -0.07317   0.04733
 Alpha virt. eigenvalues --    0.06297   0.06900   0.07900   0.08268   0.08844
 Alpha virt. eigenvalues --    0.09527   0.10225   0.10960   0.10994   0.11903
 Alpha virt. eigenvalues --    0.12726   0.13148   0.14482   0.14723   0.15263

  Beta  occ. eigenvalues --  -14.32747 -14.24081 -14.23870 -14.23584 -14.17948
  Beta  occ. eigenvalues --  -10.11691 -10.09535 -10.09032 -10.06848 -10.06740
  Beta  occ. eigenvalues --  -10.06661 -10.06518 -10.06479 -10.05142 -10.04119
  Beta  occ. eigenvalues --   -1.00021  -0.87761  -0.83900  -0.82370  -0.69280
  Beta  occ. eigenvalues --   -0.68495  -0.65275  -0.62681  -0.58824  -0.51755
  Beta  occ. eigenvalues --   -0.50908  -0.49763  -0.46232  -0.44066  -0.40210
  Beta  occ. eigenvalues --   -0.37795  -0.37705  -0.36407  -0.35674  -0.34898
  Beta  occ. eigenvalues --   -0.32452  -0.31700  -0.30974  -0.30045  -0.29742
  Beta  occ. eigenvalues --   -0.29371  -0.27840  -0.26243  -0.25852  -0.24249
  Beta  occ. eigenvalues --   -0.18376  -0.17542  -0.16767  -0.14430  -0.14177
  Beta  occ. eigenvalues --   -0.12854  -0.07240
  Beta virt. eigenvalues --    0.06805   0.08165   0.08247   0.08587   0.08941
  Beta virt. eigenvalues --    0.09536   0.10256   0.10700   0.10934   0.11284
  Beta virt. eigenvalues --    0.11904   0.13068   0.13143   0.14364   0.14707

 Mulliken charges and spin densities:
               1          2
     1  C   -0.525974  -0.054829
     2  C    0.426528  -0.357232
     3  C   -0.329808   0.113594
     4  N   -0.018359   0.124983
     5  C   -0.006586   0.133948
     6  C   -0.102441   0.308069
     7  C   -0.287118  -0.519356
     8  C    0.159725  -0.535974
     9  C   -0.490441   0.353176
    10  N   -0.054692  -0.033741
    11  C   -0.553539  -0.475145
    12  C    0.839881   0.183146
    13  N   -0.581064   0.523879
    14  N    0.590780  -0.164319
    15  N   -0.198511  -0.046174
    16  H   -0.019982   0.152300
    17  H   -0.048243   0.193433
    18  H    0.015512   0.133414
    19  H    0.103304   0.045881
    20  H    0.120154   0.055085
    21  H    0.119048   0.000576
    22  H   -0.079618   0.289942
    23  H   -0.251512   0.568280
    24  H    0.172954   0.007065
 Sum of Mulliken charges =  -1.00000   1.00000

 Dipole moment (field-independent basis, Debye):
    X=              4.2147    Y=              1.6867    Z=              1.4383  Tot=              4.7621
 Quadrupole moment (field-independent basis, Debye-Ang):
   XX=           -170.5230   YY=           -108.4932   ZZ=           -102.6221
   XY=              3.9609   XZ=             -4.1836   YZ=             -0.3269

 Summary of Natural Population Analysis:

                                       Natural Population
                Natural  -----------------------------------------------
    Atom  No    Charge         Core      Valence    Rydberg      Total
 -----------------------------------------------------------------------
      C    1   -0.05414      0.99957     2.04421    0.01036     3.05414
      C    2   -0.13530      0.99956     2.12645    0.00929     3.13530
      C    3    0.03212      0.99959     1.95380    0.01449     2.96788
      N    4   -0.22030      0.99968     2.70840    0.01222     3.72030
      C    5    0.12483      0.99954     1.86190    0.01373     2.87517
      C    6   -0.12543      0.99950     2.11745    0.00848     3.12543
      C    7   -0.20648      0.99957     2.19765    0.00927     3.20648
      C    8   -0.04844      0.99952     2.03851    0.01041     3.04844
      C    9   -0.02999      0.99951     2.01748    0.01300     3.02999
      N   10   -0.26543      0.99966     2.75604    0.00973     3.76543
      C   11    0.15802      0.99946     1.82712    0.01540     2.84198
      C   12   -0.17294      0.99946     2.16495    0.00853     3.17294
      N   13   -0.20255      0.99964     2.68917    0.01374     3.70255
      N   14    0.15070      0.99971     2.33471    0.01488     3.34930
      N   15   -0.00300      0.99982     2.49013    0.01305     3.50300
      H   16    0.09437      0.00000     0.40473    0.00090     0.40563
      H   17    0.09815      0.00000     0.40087    0.00097     0.40185
      H   18    0.08457      0.00000     0.41431    0.00112     0.41543
      H   19    0.09884      0.00000     0.40019    0.00097     0.40116
      H   20    0.10897      0.00000     0.38975    0.00128     0.39103
      H   21    0.09757      0.00000     0.40104    0.00138     0.40243
      H   22    0.10739      0.00000     0.39120    0.00141     0.39261
      H   23    0.20433      0.00000     0.28914    0.00654     0.29567
      H   24    0.10413      0.00000     0.39505    0.00082     0.39587
 =======================================================================
   * Total *    0.00000     14.99379    36.81423    0.19198    52.00000

 Normal termination of Gaussian 16 at Thu Dec 10 17:53:15 2020.
