 Gaussian 16, Revision A.03,

 -----------------------------------------------------------
 # opt freq B3LYP/6-31G(d) empiricaldispersion=gd3bj scf=xqc
 -----------------------------------------------------------

 -------------------------------
 CID_138335734_JID_9903_neutraal
 -------------------------------
 Symbolic Z-matrix:
 Charge =  0 Multiplicity = 1

 SCF Done:  E(RB3LYP) =  -1324.81386643     A.U. after   16 cycles
 SCF Done:  E(RB3LYP) =  -1324.85327617     A.U. after   16 cycles
 SCF Done:  E(RB3LYP) =  -1324.86124091     A.U. after   16 cycles
 SCF Done:  E(RB3LYP) =  -1324.87583282     A.U. after   15 cycles
 SCF Done:  E(RB3LYP) =  -1324.87779162     A.U. after   15 cycles
 SCF Done:  E(RB3LYP) =  -1324.87046524     A.U. after   16 cycles
 SCF Done:  E(RB3LYP) =  -1324.87993824     A.U. after   15 cycles
 SCF Done:  E(RB3LYP) =  -1324.88050214     A.U. after   14 cycles
 SCF Done:  E(RB3LYP) =  -1324.88077352     A.U. after   13 cycles
 SCF Done:  E(RB3LYP) =  -1324.88084125     A.U. after   12 cycles
 SCF Done:  E(RB3LYP) =  -1324.88088338     A.U. after   10 cycles
 SCF Done:  E(RB3LYP) =  -1324.88088419     A.U. after    9 cycles
 SCF Done:  E(RB3LYP) =  -1324.88088442     A.U. after    8 cycles
 SCF Done:  E(RB3LYP) =  -1324.88088452     A.U. after    8 cycles
 SCF Done:  E(RB3LYP) =  -1324.88088463     A.U. after    8 cycles
 SCF Done:  E(RB3LYP) =  -1324.88088466     A.U. after    8 cycles
 Optimization completed.
    -- Stationary point found.
 Normal termination of Gaussian 16 at Sun Dec 13 12:45:01 2020.

 --------------------------------------------------------------------
 #N Geom=AllCheck Guess=TCheck SCRF=Check GenChk RB3LYP/6-31G(d) Freq
 --------------------------------------------------------------------

 Structure from the checkpoint file:  "JID_9903.chk"
 -------------------------------
 CID_138335734_JID_9903_neutraal
 -------------------------------
 Charge =  0 Multiplicity = 1

 SCF Done:  E(RB3LYP) =  -1324.88088466     A.U. after    1 cycles

  Exact polarizability: 209.125   0.507 161.168 -10.896   7.568  89.978
 Approx polarizability: 312.139   3.268 309.652 -26.392  20.383 141.891

                      1                      2                      3
                      A                      A                      A
 Frequencies --     22.0956                26.2908                49.4055
 Red. masses --      6.8106                 7.6197                10.6641
 Frc consts  --      0.0020                 0.0031                 0.0153
 IR Inten    --      1.9121                 0.8192                 0.0577

                      4                      5                      6
                      A                      A                      A
 Frequencies --     62.5717                74.2550                87.4423
 Red. masses --      8.9117                 6.4046                10.8429
 Frc consts  --      0.0206                 0.0208                 0.0488
 IR Inten    --      3.0390                 0.5373                 0.5786

                      7                      8                      9
                      A                      A                      A
 Frequencies --    103.7199               124.7766               164.5668
 Red. masses --      4.2429                 7.6210                 8.4817
 Frc consts  --      0.0269                 0.0699                 0.1353
 IR Inten    --      0.6534                 3.7144                 8.8313

                     10                     11                     12
                      A                      A                      A
 Frequencies --    199.1273               210.5056               240.9819
 Red. masses --      3.9320                 4.3100                 6.4319
 Frc consts  --      0.0919                 0.1125                 0.2201
 IR Inten    --      5.8186                 0.4695                 1.9948

                     13                     14                     15
                      A                      A                      A
 Frequencies --    251.1728               257.4163               275.4723
 Red. masses --      5.2228                 4.5266                 5.0864
 Frc consts  --      0.1941                 0.1767                 0.2274
 IR Inten    --      1.2822                 2.5174                 1.2077

                     16                     17                     18
                      A                      A                      A
 Frequencies --    340.0423               362.1985               368.1767
 Red. masses --      7.0301                 7.6967                 5.9695
 Frc consts  --      0.4789                 0.5949                 0.4768
 IR Inten    --      3.6467                 1.2790                 8.8637

                     19                     20                     21
                      A                      A                      A
 Frequencies --    371.2363               412.7927               448.7270
 Red. masses --      3.0071                 6.0519                 5.0163
 Frc consts  --      0.2442                 0.6076                 0.5951
 IR Inten    --      0.0157                18.6435                 7.2555

                     22                     23                     24
                      A                      A                      A
 Frequencies --    463.2630               494.0872               509.3989
 Red. masses --      7.2392                 3.7719                 4.1513
 Frc consts  --      0.9154                 0.5425                 0.6347
 IR Inten    --      4.4453                16.0951                20.5002

                     25                     26                     27
                      A                      A                      A
 Frequencies --    533.7177               555.0180               582.9799
 Red. masses --      4.3922                 5.3768                 5.0566
 Frc consts  --      0.7372                 0.9759                 1.0125
 IR Inten    --     22.6215                 6.6441                16.9227

                     28                     29                     30
                      A                      A                      A
 Frequencies --    628.7514               641.8493               656.7389
 Red. masses --      1.2145                 6.4738                 2.2030
 Frc consts  --      0.2829                 1.5714                 0.5598
 IR Inten    --     47.5735                17.8991                29.3267

                     31                     32                     33
                      A                      A                      A
 Frequencies --    689.9038               693.8845               746.3460
 Red. masses --      7.3047                 4.3408                 5.3579
 Frc consts  --      2.0485                 1.2314                 1.7584
 IR Inten    --     31.6243                25.4922                93.1145

                     34                     35                     36
                      A                      A                      A
 Frequencies --    752.9606               757.7847               816.0347
 Red. masses --      6.1773                 5.0173                 4.4178
 Frc consts  --      2.0635                 1.6975                 1.7333
 IR Inten    --     54.7495                 6.9074               163.1521

                     37                     38                     39
                      A                      A                      A
 Frequencies --    832.7684               854.6287               921.1838
 Red. masses --      7.9700                 1.5393                 6.2880
 Frc consts  --      3.2566                 0.6624                 3.1438
 IR Inten    --      6.7021                14.9134                24.4316

                     40                     41                     42
                      A                      A                      A
 Frequencies --    943.1000               946.1134               984.4983
 Red. masses --      3.5216                 1.5479                 1.1632
 Frc consts  --      1.8455                 0.8164                 0.6642
 IR Inten    --      3.6637                13.4653                 2.9107

                     43                     44                     45
                      A                      A                      A
 Frequencies --    986.8394              1020.1540              1033.3294
 Red. masses --      1.3070                 1.2176                 1.3453
 Frc consts  --      0.7499                 0.7466                 0.8463
 IR Inten    --      0.6531                47.2018                 1.9441

                     46                     47                     48
                      A                      A                      A
 Frequencies --   1048.5884              1072.9231              1125.6258
 Red. masses --      2.2739                 3.3824                 2.6165
 Frc consts  --      1.4731                 2.2941                 1.9533
 IR Inten    --      6.1325                39.3781                73.9057

                     49                     50                     51
                      A                      A                      A
 Frequencies --   1134.2315              1151.4633              1209.8672
 Red. masses --      9.1660                 1.5301                 1.8966
 Frc consts  --      6.9476                 1.1953                 1.6357
 IR Inten    --    102.1114                 8.6248               109.2594

                     52                     53                     54
                      A                      A                      A
 Frequencies --   1262.1429              1284.4251              1306.3518
 Red. masses --      2.0092                 1.4113                 2.0618
 Frc consts  --      1.8857                 1.3718                 2.0731
 IR Inten    --     52.7391                10.4571                76.9198

                     55                     56                     57
                      A                      A                      A
 Frequencies --   1325.9941              1350.4216              1356.1283
 Red. masses --      1.2723                 3.3262                 5.8182
 Frc consts  --      1.3180                 3.5738                 6.3043
 IR Inten    --      8.2255                88.8582               142.3887

                     58                     59                     60
                      A                      A                      A
 Frequencies --   1390.9664              1396.2378              1415.3364
 Red. masses --      1.3534                10.6409                 2.9885
 Frc consts  --      1.5428                12.2221                 3.5271
 IR Inten    --      9.0927               411.8686                16.1926

                     61                     62                     63
                      A                      A                      A
 Frequencies --   1433.6494              1488.0955              1492.6681
 Red. masses --      1.1976                 2.1876                 1.3998
 Frc consts  --      1.4503                 2.8542                 1.8376
 IR Inten    --     16.9648                 5.5722                13.2585

                     64                     65                     66
                      A                      A                      A
 Frequencies --   1540.2078              1628.3155              1651.6572
 Red. masses --      3.2350                 8.7890                 7.1081
 Frc consts  --      4.5215                13.7298                11.4247
 IR Inten    --    109.9676               113.6887               103.5982

                     67                     68                     69
                      A                      A                      A
 Frequencies --   1680.3972              1690.5376              2378.1729
 Red. masses --      7.4767                 4.2795                12.5988
 Frc consts  --     12.4390                 7.2060                41.9822
 IR Inten    --     79.4390                 2.0560                 0.2216

                     70                     71                     72
                      A                      A                      A
 Frequencies --   3080.6202              3124.5369              3178.5757
 Red. masses --      1.0593                 1.1049                 1.0577
 Frc consts  --      5.9232                 6.3553                 6.2963
 IR Inten    --      5.2123                 0.9222                 1.8248

                     73                     74                     75
                      A                      A                      A
 Frequencies --   3225.8143              3231.0633              3256.7653
 Red. masses --      1.0969                 1.0908                 1.0928
 Frc consts  --      6.7248                 6.7097                 6.8289
 IR Inten    --      0.0556                 1.6020                 7.8764

                     76                     77                     78
                      A                      A                      A
 Frequencies --   3256.9649              3270.8426              3612.8373
 Red. masses --      1.0926                 1.1178                 1.0635
 Frc consts  --      6.8289                 7.0458                 8.1790
 IR Inten    --      2.2851                 1.0139               128.6397

 - Thermochemistry -
 -------------------
 Temperature   298.150 Kelvin.  Pressure   1.00000 Atm.
 Atom     1 has atomic number  6 and mass  12.00000

 Molecular mass:   283.02629 amu.
 Principal axes and moments of inertia in atomic units:
                           1         2         3
     Eigenvalues --  3176.663767220.566908268.17608
           X            0.99996   0.00883  -0.00146
           Y           -0.00881   0.99987   0.01334
           Z            0.00157  -0.01332   0.99991
 This molecule is an asymmetric top.
 Rotational symmetry number  1.
 Warning -- assumption of classical behavior for rotation
           may cause significant error
 Rotational temperatures (Kelvin)      0.02727     0.01200     0.01048
 Rotational constants (GHZ):           0.56812     0.24994     0.21828
 Zero-point vibrational energy     511707.0 (Joules/Mol)
                                  122.30091 (Kcal/Mol)
 Warning -- explicit consideration of  27 degrees of freedom as
           vibrations may cause significant error
 Vibrational temperatures:     31.79    37.83    71.08    90.03   106.84
          (Kelvin)            125.81   149.23   179.53   236.77   286.50
                              302.87   346.72   361.38   370.36   396.34
                              489.25   521.12   529.72   534.13   593.92
                              645.62   666.53   710.88   732.91   767.90
                              798.55   838.78   904.63   923.48   944.90
                              992.62   998.35  1073.83  1083.34  1090.28
                             1174.09  1198.17  1229.62  1325.38  1356.91
                             1361.25  1416.47  1419.84  1467.77  1486.73
                             1508.68  1543.70  1619.52  1631.91  1656.70
                             1740.73  1815.94  1848.00  1879.55  1907.81
                             1942.96  1951.17  2001.29  2008.87  2036.35
                             2062.70  2141.04  2147.62  2216.02  2342.78
                             2376.37  2417.72  2432.31  3421.66  4432.33
                             4495.51  4573.26  4641.23  4648.78  4685.76
                             4686.05  4706.01  5198.07

 Zero-point correction=                           0.194899 (Hartree/Particle)
 Thermal correction to Energy=                    0.212646
 Thermal correction to Enthalpy=                  0.213590
 Thermal correction to Gibbs Free Energy=         0.147044
 Sum of electronic and zero-point Energies=          -1324.685986
 Sum of electronic and thermal Energies=             -1324.668239
 Sum of electronic and thermal Enthalpies=           -1324.667294
 Sum of electronic and thermal Free Energies=        -1324.733840

                     E (Thermal)             CV                S
                      KCal/Mol        Cal/Mol-Kelvin    Cal/Mol-Kelvin
 Total                  133.437             65.035            140.057
 Electronic               0.000              0.000              0.000
 Translational            0.889              2.981             42.819
 Rotational               0.889              2.981             33.605
 Vibrational            131.660             59.073             63.633
 Vibration     1          0.593              1.985              6.436
 Vibration     2          0.593              1.985              6.091
 Vibration     3          0.595              1.978              4.841
 Vibration     4          0.597              1.972              4.374
 Vibration     5          0.599              1.966              4.037
 Vibration     6          0.601              1.958              3.716
 Vibration     7          0.605              1.946              3.383
 Vibration     8          0.610              1.928              3.025
 Vibration     9          0.623              1.886              2.497
 Vibration    10          0.637              1.841              2.141
 Vibration    11          0.643              1.825              2.039
 Vibration    12          0.658              1.778              1.796
 Vibration    13          0.663              1.761              1.722
 Vibration    14          0.667              1.750              1.679
 Vibration    15          0.677              1.719              1.562
 Vibration    16          0.720              1.595              1.212
 Vibration    17          0.736              1.550              1.113
 Vibration    18          0.741              1.538              1.087
 Vibration    19          0.743              1.531              1.075
 Vibration    20          0.777              1.442              0.917
 Vibration    21          0.808              1.364              0.800
 Vibration    22          0.821              1.332              0.757
 Vibration    23          0.850              1.263              0.673
 Vibration    24          0.865              1.229              0.635
 Vibration    25          0.889              1.175              0.579
 Vibration    26          0.910              1.129              0.534
 Vibration    27          0.940              1.068              0.480

 Optimization completed.
    -- Stationary point found.
 Normal termination of Gaussian 16 at Sun Dec 13 12:59:44 2020.

 ----------------------------------------------------------------------
 # B3LYP/6-311++G(d,p) empiricaldispersion=gd3bj scf=xqc pop=npa geom=c
 heck
 ----------------------------------------------------------------------

 ---------------------------------------
 CID_138335734_JID_9903_Energie_neutraal
 ---------------------------------------
 Structure from the checkpoint file:  "JID_9903.chk"
 Charge =  0 Multiplicity = 1

 SCF Done:  E(RB3LYP) =  -1325.17811095     A.U. after   17 cycles
 Normal termination of Gaussian 16 at Sun Dec 13 13:06:11 2020.

 ----------------------------------------------------------------------
 # B3LYP/6-311++G(d,p) empiricaldispersion=gd3bj scf=xqc pop=npa geom=c
 heck
 ----------------------------------------------------------------------

 -------------------------------------
 CID_138335734_JID_9903_Energie_kation
 -------------------------------------
 Structure from the checkpoint file:  "JID_9903.chk"
 Charge =  1 Multiplicity = 2

 SCF Done:  E(UB3LYP) =  -1324.83702857     A.U. after   30 cycles
 Normal termination of Gaussian 16 at Sun Dec 13 13:22:30 2020.
 Gaussian 16:  ES64L-G16RevA.03 25-Dec-2016

 ----------------------------------------------------------------------
 # B3LYP/6-311++G(d,p) empiricaldispersion=gd3bj scf=xqc pop=npa geom=c
 heck
 ----------------------------------------------------------------------

 ------------------------------------
 CID_138335734_JID_9903_Energie_anion
 ------------------------------------
 Structure from the checkpoint file:  "JID_9903.chk"
 Charge = -1 Multiplicity = 2

                         Standard orientation:
 ---------------------------------------------------------------------
 Center     Atomic      Atomic             Coordinates (Angstroms)
 Number     Number       Type             X           Y           Z
 ---------------------------------------------------------------------
      1          6           0       -4.612225   -0.240077   -0.411653
      2          6           0       -3.565975    0.568730   -0.551956
      3         16           0       -1.955693   -0.101242   -0.905690
      4          8           0       -2.055053   -1.559940   -0.963780
      5          8           0       -1.340024    0.683044   -1.970370
      6          7           0       -1.115018    0.366364    0.542875
      7          6           0       -1.492125   -0.391178    1.747924
      8          6           0       -0.919339   -1.743219    1.853515
      9          7           0       -0.450034   -2.796551    1.974045
     10          6           0        0.290005    0.628911    0.359942
     11          6           0        0.694022    1.963033    0.569534
     12          6           0        2.042887    2.313830    0.439598
     13          6           0        2.969311    1.346572    0.080929
     14          6           0        2.546159    0.034802   -0.146283
     15          6           0        1.213165   -0.341303   -0.013332
     16          7           0        3.530222   -0.973880   -0.540629
     17          8           0        4.706058   -0.617074   -0.631448
     18          8           0        3.123807   -2.114667   -0.756771
     19          8           0       -0.210058    2.903076    0.906638
     20          1           0       -4.496027   -1.318099   -0.475325
     21          1           0       -5.607867    0.159547   -0.243127
     22          1           0       -3.599860    1.653408   -0.529175
     23          1           0       -1.164113    0.192718    2.613805
     24          1           0       -2.583772   -0.456039    1.790352
     25          1           0        2.337518    3.342926    0.610398
     26          1           0        4.018446    1.587378   -0.034311
     27          1           0        0.917378   -1.366091   -0.199558
     28          1           0       -1.079952    2.456488    0.880479
 ---------------------------------------------------------------------

 SCF Done:  E(UB3LYP) =  -1325.22331970     A.U. after   30 cycles

 The electronic state is 2-A.
 Alpha  occ. eigenvalues --  -88.96761 -19.06017 -19.02780 -19.02638 -18.98767
 Alpha  occ. eigenvalues --  -18.98654 -14.37034 -14.27476 -14.22958 -10.17747
 Alpha  occ. eigenvalues --  -10.13225 -10.12674 -10.11445 -10.10920 -10.09554
 Alpha  occ. eigenvalues --  -10.09183 -10.07986 -10.07403 -10.07078  -8.02968
 Alpha  occ. eigenvalues --   -5.99272  -5.99205  -5.99038  -1.06589  -1.02887
 Alpha  occ. eigenvalues --   -0.97899  -0.92115  -0.89412  -0.86909  -0.82119
 Alpha  occ. eigenvalues --   -0.76088  -0.71381  -0.68619  -0.66746  -0.64484
 Alpha  occ. eigenvalues --   -0.58333  -0.56827  -0.52944  -0.49248  -0.48478
 Alpha  occ. eigenvalues --   -0.46732  -0.44915  -0.42432  -0.42120  -0.41305
 Alpha  occ. eigenvalues --   -0.39624  -0.38716  -0.38423  -0.38032  -0.36576
 Alpha  occ. eigenvalues --   -0.35300  -0.35039  -0.33641  -0.32320  -0.31435
 Alpha  occ. eigenvalues --   -0.31289  -0.29951  -0.28586  -0.27493  -0.25870
 Alpha  occ. eigenvalues --   -0.24898  -0.24764  -0.24332  -0.23876  -0.23223
 Alpha  occ. eigenvalues --   -0.22030  -0.21544  -0.19044  -0.17159  -0.16011
 Alpha  occ. eigenvalues --   -0.15951  -0.13996  -0.13477   0.00902
 Alpha virt. eigenvalues --    0.02797   0.05938   0.07218   0.07576   0.08376
 Alpha virt. eigenvalues --    0.08992   0.09470   0.10278   0.10773   0.11394
 Alpha virt. eigenvalues --    0.11908   0.12389   0.12723   0.13720   0.14046

  Beta  occ. eigenvalues --  -88.96750 -19.05947 -19.02769 -19.02608 -18.98499
  Beta  occ. eigenvalues --  -18.98310 -14.36597 -14.27442 -14.22949 -10.17751
  Beta  occ. eigenvalues --  -10.12973 -10.12676 -10.11497 -10.10800 -10.09549
  Beta  occ. eigenvalues --  -10.08884 -10.07939 -10.07485 -10.06887  -8.02957
  Beta  occ. eigenvalues --   -5.99241  -5.99187  -5.99034  -1.05890  -1.02808
  Beta  occ. eigenvalues --   -0.97719  -0.92063  -0.88834  -0.86868  -0.82104
  Beta  occ. eigenvalues --   -0.75910  -0.70930  -0.68542  -0.66447  -0.64276
  Beta  occ. eigenvalues --   -0.57973  -0.56196  -0.52716  -0.49048  -0.48311
  Beta  occ. eigenvalues --   -0.46540  -0.44746  -0.42378  -0.41883  -0.41178
  Beta  occ. eigenvalues --   -0.39446  -0.38491  -0.37861  -0.36510  -0.36405
  Beta  occ. eigenvalues --   -0.35037  -0.34809  -0.33588  -0.31717  -0.31215
  Beta  occ. eigenvalues --   -0.31103  -0.29842  -0.28560  -0.27426  -0.25802
  Beta  occ. eigenvalues --   -0.24741  -0.24712  -0.24151  -0.23564  -0.22852
  Beta  occ. eigenvalues --   -0.21863  -0.20899  -0.18615  -0.16152  -0.15666
  Beta  occ. eigenvalues --   -0.14516  -0.13689  -0.12733
  Beta virt. eigenvalues --    0.05297   0.05947   0.06356   0.07466   0.07603
  Beta virt. eigenvalues --    0.08501   0.08982   0.09486   0.10363   0.10762
  Beta virt. eigenvalues --    0.11415   0.12255   0.12719   0.13347   0.13781

 Mulliken charges and spin densities:
               1          2
     1  C   -0.362260   0.316613
     2  C   -0.156166   0.066011
     3  S   -0.123571   0.018274
     4  O   -0.063518  -0.005204
     5  O   -0.090447  -0.016126
     6  N    0.263833   0.009600
     7  C    0.035130   0.002137
     8  C   -0.069248  -0.002733
     9  N   -0.230696   0.003655
    10  C   -0.231612  -0.024080
    11  C   -0.504045   0.148712
    12  C    0.135151  -0.061061
    13  C    0.378894   0.179826
    14  C   -0.745592  -0.038380
    15  C   -0.373730   0.041737
    16  N   -0.260942   0.142434
    17  O   -0.133807   0.104075
    18  O   -0.093603   0.130578
    19  O   -0.240650   0.018095
    20  H    0.176568  -0.013459
    21  H    0.117743  -0.009793
    22  H    0.231158  -0.002710
    23  H    0.201552   0.000873
    24  H    0.207040  -0.002100
    25  H    0.163099   0.004317
    26  H    0.226452  -0.011378
    27  H    0.267006  -0.000032
    28  H    0.276261   0.000119
 Sum of Mulliken charges =  -1.00000   1.00000

 Dipole moment (field-independent basis, Debye):
    X=             -8.6195    Y=              6.2067    Z=              4.3979  Tot=             11.4961
 Quadrupole moment (field-independent basis, Debye-Ang):
   XX=           -169.7397   YY=           -150.5753   ZZ=           -131.7111
   XY=              9.9612   XZ=             -0.5666   YZ=              2.0331

 Summary of Natural Population Analysis:

                                       Natural Population
                Natural  -----------------------------------------------
    Atom  No    Charge         Core      Valence    Rydberg      Total
 -----------------------------------------------------------------------
      C    1   -0.10554      0.99956     2.09774    0.00824     3.10554
      C    2   -0.21981      0.99947     2.20772    0.01262     3.21981
      S    3    1.09554      4.99919     1.80434    0.10093     6.90446
      O    4   -0.45558      0.99991     3.44902    0.00665     4.45558
      O    5   -0.44528      0.99990     3.44006    0.00531     4.44528
      N    6   -0.37278      0.99970     2.85624    0.01684     3.87278
      C    7   -0.14314      0.99952     2.13229    0.01134     3.14314
      C    8    0.14099      0.99966     1.84228    0.01707     2.85901
      N    9   -0.15830      0.99979     2.64770    0.01081     3.65830
      C   10    0.00771      0.99943     1.97740    0.01545     2.99229
      C   11    0.21025      0.99936     1.77817    0.01222     2.78975
      C   12   -0.14846      0.99954     2.14060    0.00833     3.14846
      C   13   -0.04332      0.99954     2.03507    0.00871     3.04332
      C   14    0.02232      0.99940     1.96356    0.01472     2.97768
      C   15   -0.07624      0.99948     2.06782    0.00894     3.07624
      N   16    0.28749      0.99971     2.18636    0.02643     3.21251
      O   17   -0.20582      0.99990     3.19854    0.00738     4.20582
      O   18   -0.18562      0.99990     3.17829    0.00743     4.18562
      O   19   -0.33314      0.99987     3.32717    0.00609     4.33314
      H   20    0.10328      0.00000     0.39552    0.00120     0.39672
      H   21    0.09179      0.00000     0.40716    0.00106     0.40821
      H   22    0.10598      0.00000     0.39294    0.00108     0.39402
      H   23    0.11879      0.00000     0.38015    0.00106     0.38121
      H   24    0.12383      0.00000     0.37497    0.00120     0.37617
      H   25    0.10262      0.00000     0.39642    0.00096     0.39738
      H   26    0.11415      0.00000     0.38477    0.00107     0.38585
      H   27    0.12902      0.00000     0.36901    0.00197     0.37098
      H   28    0.23926      0.00000     0.25843    0.00231     0.26074
 =======================================================================
   * Total *    0.00000     22.99283    49.68975    0.31742    73.00000

 Normal termination of Gaussian 16 at Sun Dec 13 13:39:35 2020.
