 Gaussian 16, Revision A.03,

 -----------------------------------------------------------
 # opt freq B3LYP/6-31G(d) empiricaldispersion=gd3bj scf=xqc
 -----------------------------------------------------------

 -------------------------------
 CID_127017558_JID_1061_neutraal
 -------------------------------
 Symbolic Z-matrix:
 Charge =  0 Multiplicity = 1

 SCF Done:  E(RB3LYP) =  -533.866675355     A.U. after   15 cycles
 SCF Done:  E(RB3LYP) =  -533.889612994     A.U. after   13 cycles
 SCF Done:  E(RB3LYP) =  -533.890464744     A.U. after   13 cycles
 SCF Done:  E(RB3LYP) =  -533.890900103     A.U. after   14 cycles
 SCF Done:  E(RB3LYP) =  -533.891576883     A.U. after   13 cycles
 SCF Done:  E(RB3LYP) =  -533.892184106     A.U. after   12 cycles
 SCF Done:  E(RB3LYP) =  -533.892672777     A.U. after   13 cycles
 SCF Done:  E(RB3LYP) =  -533.892853970     A.U. after   11 cycles
 SCF Done:  E(RB3LYP) =  -533.892931565     A.U. after   11 cycles
 SCF Done:  E(RB3LYP) =  -533.892971944     A.U. after   11 cycles
 SCF Done:  E(RB3LYP) =  -533.893014390     A.U. after   10 cycles
 SCF Done:  E(RB3LYP) =  -533.893018034     A.U. after   10 cycles
 SCF Done:  E(RB3LYP) =  -533.893023443     A.U. after   10 cycles
 SCF Done:  E(RB3LYP) =  -533.893025839     A.U. after    9 cycles
 SCF Done:  E(RB3LYP) =  -533.893026082     A.U. after    8 cycles
 SCF Done:  E(RB3LYP) =  -533.893026155     A.U. after    7 cycles
 Optimization completed.
    -- Stationary point found.
 Normal termination of Gaussian 16 at Tue Dec  8 19:14:43 2020.

 --------------------------------------------------------------------
 #N Geom=AllCheck Guess=TCheck SCRF=Check GenChk RB3LYP/6-31G(d) Freq
 --------------------------------------------------------------------

 Structure from the checkpoint file:  "JID_1061.chk"
 -------------------------------
 CID_127017558_JID_1061_neutraal
 -------------------------------
 Charge =  0 Multiplicity = 1

 SCF Done:  E(RB3LYP) =  -533.893026155     A.U. after    1 cycles

  Exact polarizability: 101.479  -5.462  94.285  -2.011  -0.434  71.960
 Approx polarizability: 136.446 -11.102 149.732  -5.367  -0.932 108.695

                      1                      2                      3
                      A                      A                      A
 Frequencies --     55.7942                75.7612                96.4522
 Red. masses --      2.4410                 2.8316                 5.2218
 Frc consts  --      0.0045                 0.0096                 0.0286
 IR Inten    --      2.3513                 1.7157                 6.2488

                      4                      5                      6
                      A                      A                      A
 Frequencies --    137.8676               157.7817               167.2939
 Red. masses --      2.0363                 4.0768                 4.0999
 Frc consts  --      0.0228                 0.0598                 0.0676
 IR Inten    --      0.9938                 1.9525                 2.8225

                      7                      8                      9
                      A                      A                      A
 Frequencies --    206.5907               226.4576               235.8950
 Red. masses --      1.5246                 1.9623                 1.4631
 Frc consts  --      0.0383                 0.0593                 0.0480
 IR Inten    --      0.3347                 7.3958                 0.5015

                     10                     11                     12
                      A                      A                      A
 Frequencies --    268.0249               308.9593               318.7410
 Red. masses --      2.1620                 2.3518                 2.1929
 Frc consts  --      0.0915                 0.1323                 0.1313
 IR Inten    --      0.9074                 1.5591                 1.1794

                     13                     14                     15
                      A                      A                      A
 Frequencies --    334.1331               395.0850               430.9663
 Red. masses --      2.5675                 4.6855                 3.7544
 Frc consts  --      0.1689                 0.4309                 0.4108
 IR Inten    --      3.5837                 6.9279                28.2792

                     16                     17                     18
                      A                      A                      A
 Frequencies --    467.5815               476.8782               502.3325
 Red. masses --      2.4624                 1.5906                 5.5644
 Frc consts  --      0.3172                 0.2131                 0.8273
 IR Inten    --     37.8425                57.0015                 0.3671

                     19                     20                     21
                      A                      A                      A
 Frequencies --    572.5383               595.3886               706.1095
 Red. masses --      5.8203                 3.8453                 6.0852
 Frc consts  --      1.1241                 0.8031                 1.7876
 IR Inten    --      1.3177                10.3223                14.3355

                     22                     23                     24
                      A                      A                      A
 Frequencies --    730.3587               779.3281               857.7421
 Red. masses --      6.3460                 1.3445                 2.3187
 Frc consts  --      1.9944                 0.4811                 1.0051
 IR Inten    --     10.5247                 3.5784                17.4501

                     25                     26                     27
                      A                      A                      A
 Frequencies --    929.3710               989.2109              1016.9600
 Red. masses --      2.0666                 2.7086                 2.0748
 Frc consts  --      1.0517                 1.5616                 1.2643
 IR Inten    --      0.5141                23.1313                12.2668

                     28                     29                     30
                      A                      A                      A
 Frequencies --   1042.0642              1088.2312              1128.8252
 Red. masses --      2.0618                 1.7524                 1.8026
 Frc consts  --      1.3191                 1.2227                 1.3534
 IR Inten    --      3.1304                18.2575                18.4271

                     31                     32                     33
                      A                      A                      A
 Frequencies --   1163.3818              1176.7570              1201.3286
 Red. masses --      1.2988                 2.8142                 2.5378
 Frc consts  --      1.0357                 2.2960                 2.1579
 IR Inten    --      4.4560                 0.1016                14.3188

                     34                     35                     36
                      A                      A                      A
 Frequencies --   1224.3221              1242.4909              1347.1965
 Red. masses --      2.3731                 4.1072                 1.1855
 Frc consts  --      2.0958                 3.7358                 1.2677
 IR Inten    --      4.9083                62.9459                 7.9196

                     37                     38                     39
                      A                      A                      A
 Frequencies --   1391.4430              1400.3007              1437.3916
 Red. masses --      1.5279                 1.9216                 1.2639
 Frc consts  --      1.7430                 2.2201                 1.5386
 IR Inten    --     50.1531                94.8293                 7.4222

                     40                     41                     42
                      A                      A                      A
 Frequencies --   1443.9321              1481.9526              1496.3376
 Red. masses --      1.2196                 1.1913                 1.0498
 Frc consts  --      1.4982                 1.5414                 1.3849
 IR Inten    --     13.9386                 6.7921                13.2082

                     43                     44                     45
                      A                      A                      A
 Frequencies --   1507.1757              1520.3150              1527.9315
 Red. masses --      1.0729                 1.0643                 1.0586
 Frc consts  --      1.4359                 1.4494                 1.4561
 IR Inten    --      3.8175                20.1431                12.0132

                     46                     47                     48
                      A                      A                      A
 Frequencies --   1530.3168              1540.5793              1544.9660
 Red. masses --      1.1095                 1.0521                 1.0486
 Frc consts  --      1.5309                 1.4712                 1.4747
 IR Inten    --     30.7837                17.9305                 3.1002

                     49                     50                     51
                      A                      A                      A
 Frequencies --   1591.2297              1706.7026              2354.6439
 Red. masses --      1.6717                 8.3238                12.6959
 Frc consts  --      2.4939                14.2853                41.4729
 IR Inten    --     43.4921               255.0929                10.2323

                     52                     53                     54
                      A                      A                      A
 Frequencies --   3065.3110              3067.9971              3070.3508
 Red. masses --      1.0437                 1.0599                 1.0389
 Frc consts  --      5.7780                 5.8779                 5.7705
 IR Inten    --     23.1482                17.8781                29.0371

                     55                     56                     57
                      A                      A                      A
 Frequencies --   3079.8625              3116.6576              3131.9329
 Red. masses --      1.0365                 1.1009                 1.0990
 Frc consts  --      5.7926                 6.3003                 6.3515
 IR Inten    --     12.0730                 9.1263                25.8531

                     58                     59                     60
                      A                      A                      A
 Frequencies --   3132.7514              3154.2870              3166.2597
 Red. masses --      1.1047                 1.1019                 1.1013
 Frc consts  --      6.3879                 6.4595                 6.5048
 IR Inten    --     14.9620                14.2317                10.9057

                     61                     62                     63
                      A                      A                      A
 Frequencies --   3167.8550              3220.4273              3475.1469
 Red. masses --      1.1031                 1.0972                 1.0634
 Frc consts  --      6.5222                 6.7045                 7.5667
 IR Inten    --     13.8892                 3.6388                69.5294

 - Thermochemistry -
 -------------------
 Temperature   298.150 Kelvin.  Pressure   1.00000 Atm.
 Atom     1 has atomic number  6 and mass  12.00000

 Molecular mass:   156.08988 amu.
 Principal axes and moments of inertia in atomic units:
                           1         2         3
     Eigenvalues --  1289.327181882.419212551.98583
           X            0.99641  -0.08467   0.00239
           Y            0.08457   0.99600   0.02896
           Z           -0.00483  -0.02866   0.99958
 This molecule is an asymmetric top.
 Rotational symmetry number  1.
 Warning -- assumption of classical behavior for rotation
           may cause significant error
 Rotational temperatures (Kelvin)      0.06718     0.04601     0.03394
 Rotational constants (GHZ):           1.39975     0.95874     0.70719
 Zero-point vibrational energy     502301.5 (Joules/Mol)
                                  120.05295 (Kcal/Mol)
 Warning -- explicit consideration of  20 degrees of freedom as
           vibrations may cause significant error
 Vibrational temperatures:     80.28   109.00   138.77   198.36   227.01
          (Kelvin)            240.70   297.24   325.82   339.40   385.63
                              444.52   458.60   480.74   568.44   620.06
                              672.75   686.12   722.74   823.75   856.63
                             1015.93  1050.82  1121.28  1234.10  1337.16
                             1423.25  1463.18  1499.30  1565.72  1624.13
                             1673.85  1693.09  1728.44  1761.53  1787.67
                             1938.32  2001.98  2014.72  2068.09  2077.50
                             2132.20  2152.90  2168.49  2187.39  2198.35
                             2201.78  2216.55  2222.86  2289.42  2455.56
                             3387.81  4410.30  4414.16  4417.55  4431.24
                             4484.18  4506.15  4507.33  4538.32  4555.54
                             4557.84  4633.48  4999.96

 Zero-point correction=                           0.191317 (Hartree/Particle)
 Thermal correction to Energy=                    0.203997
 Thermal correction to Enthalpy=                  0.204942
 Thermal correction to Gibbs Free Energy=         0.152976
 Sum of electronic and zero-point Energies=           -533.701710
 Sum of electronic and thermal Energies=              -533.689029
 Sum of electronic and thermal Enthalpies=            -533.688085
 Sum of electronic and thermal Free Energies=         -533.740051

                     E (Thermal)             CV                S
                      KCal/Mol        Cal/Mol-Kelvin    Cal/Mol-Kelvin
 Total                  128.010             45.610            109.372
 Electronic               0.000              0.000              0.000
 Translational            0.889              2.981             41.045
 Rotational               0.889              2.981             30.205
 Vibrational            126.233             39.648             38.121
 Vibration     1          0.596              1.975              4.601
 Vibration     2          0.599              1.965              3.998
 Vibration     3          0.603              1.952              3.525
 Vibration     4          0.614              1.915              2.833
 Vibration     5          0.621              1.894              2.576
 Vibration     6          0.624              1.883              2.466
 Vibration     7          0.641              1.830              2.074
 Vibration     8          0.650              1.801              1.907
 Vibration     9          0.655              1.786              1.834
 Vibration    10          0.673              1.732              1.609
 Vibration    11          0.698              1.657              1.368
 Vibration    12          0.705              1.638              1.317
 Vibration    13          0.716              1.607              1.240
 Vibration    14          0.762              1.481              0.981
 Vibration    15          0.792              1.403              0.856
 Vibration    16          0.825              1.322              0.744
 Vibration    17          0.833              1.301              0.719
 Vibration    18          0.858              1.245              0.652
 Vibration    19          0.929              1.091              0.499
 Vibration    20          0.953              1.042              0.458

 Optimization completed.
    -- Stationary point found.
 Normal termination of Gaussian 16 at Tue Dec  8 19:19:21 2020.

 ----------------------------------------------------------------------
 # B3LYP/6-311++G(d,p) empiricaldispersion=gd3bj scf=xqc pop=npa geom=c
 heck
 ----------------------------------------------------------------------

 ---------------------------------------
 CID_127017558_JID_1061_Energie_neutraal
 ---------------------------------------
 Structure from the checkpoint file:  "JID_1061.chk"
 Charge =  0 Multiplicity = 1

 SCF Done:  E(RB3LYP) =  -534.057080930     A.U. after   14 cycles
 Normal termination of Gaussian 16 at Tue Dec  8 19:21:11 2020.

 ----------------------------------------------------------------------
 # B3LYP/6-311++G(d,p) empiricaldispersion=gd3bj scf=xqc pop=npa geom=c
 heck
 ----------------------------------------------------------------------

 -------------------------------------
 CID_127017558_JID_1061_Energie_kation
 -------------------------------------
 Structure from the checkpoint file:  "JID_1061.chk"
 Charge =  1 Multiplicity = 2

 SCF Done:  E(UB3LYP) =  -533.720237219     A.U. after   22 cycles
 Normal termination of Gaussian 16 at Tue Dec  8 19:25:06 2020.
 Gaussian 16:  ES64L-G16RevA.03 25-Dec-2016

 ----------------------------------------------------------------------
 # B3LYP/6-311++G(d,p) empiricaldispersion=gd3bj scf=xqc pop=npa geom=c
 heck
 ----------------------------------------------------------------------

 ------------------------------------
 CID_127017558_JID_1061_Energie_anion
 ------------------------------------
 Structure from the checkpoint file:  "JID_1061.chk"
 Charge = -1 Multiplicity = 2

                         Standard orientation:
 ---------------------------------------------------------------------
 Center     Atomic      Atomic             Coordinates (Angstroms)
 Number     Number       Type             X           Y           Z
 ---------------------------------------------------------------------
      1          6           0        2.753984   -1.263105    0.205650
      2          6           0        2.092662   -0.083929   -0.511109
      3          6           0        0.744638    0.401638    0.106704
      4          6           0        0.872168    0.606570    1.636554
      5          6           0        0.417590    1.684721   -0.538382
      6          7           0        0.172898    2.699476   -1.047199
      7          6           0       -0.369292   -0.630335   -0.208577
      8          8           0       -0.112710   -1.720854   -0.734163
      9          7           0       -1.642504   -0.373995    0.177100
     10          6           0       -2.346571    0.851338    0.488477
     11          8           0       -2.558473   -1.381549   -0.165879
     12          1           0        3.070017   -1.002257    1.220891
     13          1           0        3.650663   -1.562243   -0.347218
     14          1           0        2.081603   -2.121668    0.250496
     15          1           0        2.771433    0.776648   -0.508257
     16          1           0        1.904394   -0.343999   -1.555867
     17          1           0        1.733717    1.244939    1.853355
     18          1           0       -0.016622    1.072731    2.065283
     19          1           0        1.019391   -0.359718    2.123698
     20          1           0       -2.904847    1.195122   -0.388882
     21          1           0       -3.043661    0.652406    1.307119
     22          1           0       -1.644831    1.625641    0.785866
     23          1           0       -1.955627   -2.038129   -0.591349
 ---------------------------------------------------------------------

 SCF Done:  E(UB3LYP) =  -534.045423861     A.U. after   30 cycles

 The electronic state is 2-A.
 Alpha  occ. eigenvalues --  -19.07622 -19.01319 -14.31155 -14.21883 -10.19541
 Alpha  occ. eigenvalues --  -10.14451 -10.11887 -10.11775 -10.08445 -10.07584
 Alpha  occ. eigenvalues --  -10.05738  -1.02517  -0.93995  -0.82062  -0.79386
 Alpha  occ. eigenvalues --   -0.73693  -0.65040  -0.63119  -0.58442  -0.52546
 Alpha  occ. eigenvalues --   -0.49640  -0.46936  -0.41412  -0.39742  -0.38653
 Alpha  occ. eigenvalues --   -0.35735  -0.34747  -0.33123  -0.32371  -0.31793
 Alpha  occ. eigenvalues --   -0.30941  -0.29503  -0.28907  -0.28817  -0.26954
 Alpha  occ. eigenvalues --   -0.25939  -0.25573  -0.24684  -0.24283  -0.22697
 Alpha  occ. eigenvalues --   -0.18822  -0.14717   0.04611
 Alpha virt. eigenvalues --    0.07013   0.07724   0.08768   0.08912   0.09419
 Alpha virt. eigenvalues --    0.10218   0.10764   0.11371   0.11824   0.12332
 Alpha virt. eigenvalues --    0.12812   0.13526   0.13641   0.14269   0.15028

  Beta  occ. eigenvalues --  -19.07609 -19.01290 -14.31135 -14.21840 -10.19518
  Beta  occ. eigenvalues --  -10.14447 -10.11847 -10.11771 -10.08428 -10.07492
  Beta  occ. eigenvalues --  -10.05702  -1.02480  -0.93946  -0.82000  -0.79339
  Beta  occ. eigenvalues --   -0.73637  -0.64985  -0.63053  -0.58322  -0.52481
  Beta  occ. eigenvalues --   -0.49577  -0.46859  -0.41357  -0.39656  -0.38595
  Beta  occ. eigenvalues --   -0.35693  -0.34693  -0.33073  -0.32315  -0.31753
  Beta  occ. eigenvalues --   -0.30863  -0.29438  -0.28841  -0.28758  -0.26901
  Beta  occ. eigenvalues --   -0.25873  -0.25503  -0.24634  -0.24177  -0.22640
  Beta  occ. eigenvalues --   -0.18783  -0.14621
  Beta virt. eigenvalues --    0.07171   0.07832   0.08357   0.09267   0.09373
  Beta virt. eigenvalues --    0.10163   0.10839   0.11262   0.11608   0.12409
  Beta virt. eigenvalues --    0.12752   0.13090   0.13916   0.14068   0.14503

 Mulliken charges and spin densities:
               1          2
     1  C    0.828232  -1.456590
     2  C   -1.355201   0.860409
     3  C   -0.309180   1.712804
     4  C    2.265099  -2.824312
     5  C    0.479349  -0.828393
     6  N   -0.303887   0.039443
     7  C   -0.145145  -0.292209
     8  O   -0.354694   0.017213
     9  N   -0.402887   0.160232
    10  C    0.915310  -1.243478
    11  O    0.065945  -0.032185
    12  H   -0.238011   0.391409
    13  H   -0.361183   0.498819
    14  H   -0.003528   0.187743
    15  H   -0.108894   0.292508
    16  H    0.094939   0.109305
    17  H   -0.607549   0.808259
    18  H   -0.612210   0.768928
    19  H   -0.434278   0.631875
    20  H    0.020297   0.156957
    21  H   -0.554007   0.744040
    22  H   -0.039178   0.210486
    23  H    0.160662   0.086736
 Sum of Mulliken charges =  -1.00000   1.00000

 Dipole moment (field-independent basis, Debye):
    X=             -2.1685    Y=             -2.2149    Z=             -4.8553  Tot=              5.7604
 Quadrupole moment (field-independent basis, Debye-Ang):
   XX=           -119.6207   YY=           -108.1356   ZZ=           -110.2810
   XY=              1.6792   XZ=             -0.1823   YZ=             -2.4423

 Summary of Natural Population Analysis:

                                       Natural Population
                Natural  -----------------------------------------------
    Atom  No    Charge         Core      Valence    Rydberg      Total
 -----------------------------------------------------------------------
      C    1   -0.29064      0.99965     2.28540    0.00559     3.29064
      C    2   -0.17772      0.99962     2.16669    0.01141     3.17772
      C    3   -0.11778      0.99945     2.10453    0.01379     3.11778
      C    4   -0.27675      0.99963     2.26794    0.00918     3.27675
      C    5    0.16449      0.99962     1.81537    0.02052     2.83551
      N    6   -0.17637      0.99979     2.66495    0.01163     3.67637
      C    7    0.33747      0.99960     1.63941    0.02352     2.66253
      O    8   -0.33493      0.99988     3.32893    0.00612     4.33493
      N    9   -0.08110      0.99959     2.56841    0.01311     3.58110
      C   10   -0.17883      0.99962     2.17013    0.00907     3.17883
      O   11   -0.27902      0.99990     3.27217    0.00695     4.27902
      H   12    0.10073      0.00000     0.39782    0.00145     0.39927
      H   13    0.10155      0.00000     0.39746    0.00100     0.39845
      H   14    0.10821      0.00000     0.39060    0.00119     0.39179
      H   15    0.10300      0.00000     0.39546    0.00154     0.39700
      H   16    0.10567      0.00000     0.39308    0.00124     0.39433
      H   17    0.11046      0.00000     0.38589    0.00365     0.38954
      H   18    0.10870      0.00000     0.38800    0.00330     0.39130
      H   19    0.11106      0.00000     0.38639    0.00255     0.38894
      H   20    0.09881      0.00000     0.40001    0.00118     0.40119
      H   21    0.10705      0.00000     0.39097    0.00198     0.39295
      H   22    0.11159      0.00000     0.38670    0.00171     0.38841
      H   23    0.24434      0.00000     0.25225    0.00341     0.25566
 =======================================================================
   * Total *   -0.00000     10.99635    30.84856    0.15509    42.00000

 Normal termination of Gaussian 16 at Tue Dec  8 19:30:51 2020.
