 Gaussian 16, Revision A.03,

 -----------------------------------------------------------
 # opt freq B3LYP/6-31G(d) empiricaldispersion=gd3bj scf=xqc
 -----------------------------------------------------------

 -------------------------------
 CID_147356028_JID_5057_neutraal
 -------------------------------
 Symbolic Z-matrix:
 Charge =  0 Multiplicity = 1

 SCF Done:  E(RB3LYP) =  -760.612103997     A.U. after   14 cycles
 SCF Done:  E(RB3LYP) =  -760.618545782     A.U. after   13 cycles
 SCF Done:  E(RB3LYP) =  -760.619527951     A.U. after   12 cycles
 SCF Done:  E(RB3LYP) =  -760.618614086     A.U. after   13 cycles
 SCF Done:  E(RB3LYP) =  -760.619703208     A.U. after   12 cycles
 SCF Done:  E(RB3LYP) =  -760.619766790     A.U. after   11 cycles
 SCF Done:  E(RB3LYP) =  -760.619781452     A.U. after   10 cycles
 SCF Done:  E(RB3LYP) =  -760.619787971     A.U. after    9 cycles
 SCF Done:  E(RB3LYP) =  -760.619792942     A.U. after    9 cycles
 SCF Done:  E(RB3LYP) =  -760.619794616     A.U. after    8 cycles
 SCF Done:  E(RB3LYP) =  -760.619796003     A.U. after    8 cycles
 SCF Done:  E(RB3LYP) =  -760.619796011     A.U. after    7 cycles
 SCF Done:  E(RB3LYP) =  -760.619796020     A.U. after    7 cycles
 SCF Done:  E(RB3LYP) =  -760.619796029     A.U. after    7 cycles
 SCF Done:  E(RB3LYP) =  -760.619796034     A.U. after    7 cycles
 Optimization completed.
    -- Stationary point found.
 Normal termination of Gaussian 16 at Thu Dec 10 14:47:20 2020.

 --------------------------------------------------------------------
 #N Geom=AllCheck Guess=TCheck SCRF=Check GenChk RB3LYP/6-31G(d) Freq
 --------------------------------------------------------------------

 Structure from the checkpoint file:  "JID_5057.chk"
 -------------------------------
 CID_147356028_JID_5057_neutraal
 -------------------------------
 Charge =  0 Multiplicity = 1

 SCF Done:  E(RB3LYP) =  -760.619796034     A.U. after    1 cycles

  Exact polarizability: 147.522   3.741 119.893  17.322  -5.587  80.213
 Approx polarizability: 211.651   2.319 202.858  39.650 -16.216 129.338

                      1                      2                      3
                      A                      A                      A
 Frequencies --     20.4088                40.7631                66.8938
 Red. masses --      7.2359                 6.3499                 7.0799
 Frc consts  --      0.0018                 0.0062                 0.0187
 IR Inten    --      2.6083                 1.6732                 0.4032

                      4                      5                      6
                      A                      A                      A
 Frequencies --     70.8828               151.7389               185.4385
 Red. masses --      5.4604                 5.4921                 1.1882
 Frc consts  --      0.0162                 0.0745                 0.0241
 IR Inten    --      1.3087                 4.8535                22.0471

                      7                      8                      9
                      A                      A                      A
 Frequencies --    198.5348               237.0279               253.8425
 Red. masses --      4.4656                 1.0731                 4.3684
 Frc consts  --      0.1037                 0.0355                 0.1658
 IR Inten    --      6.2292               150.9626                 8.3796

                     10                     11                     12
                      A                      A                      A
 Frequencies --    260.0046               291.3287               311.7467
 Red. masses --      4.2637                 3.5379                 4.8498
 Frc consts  --      0.1698                 0.1769                 0.2777
 IR Inten    --      3.1390                 9.5727                 5.5592

                     13                     14                     15
                      A                      A                      A
 Frequencies --    315.1967               335.4642               374.8056
 Red. masses --      2.4016                 1.5139                 4.3087
 Frc consts  --      0.1406                 0.1004                 0.3566
 IR Inten    --     23.9170                71.0605                 3.5877

                     16                     17                     18
                      A                      A                      A
 Frequencies --    390.2069               435.2544               452.6922
 Red. masses --      3.2282                 1.2256                 3.8131
 Frc consts  --      0.2896                 0.1368                 0.4604
 IR Inten    --      8.6574                55.2921                11.4068

                     19                     20                     21
                      A                      A                      A
 Frequencies --    462.4074               476.5202               517.6797
 Red. masses --      2.5365                 3.1161                 4.5303
 Frc consts  --      0.3196                 0.4169                 0.7153
 IR Inten    --     17.7694                 4.8923                15.9405

                     22                     23                     24
                      A                      A                      A
 Frequencies --    563.1374               592.3539               601.7586
 Red. masses --      4.6009                 4.2873                 5.3377
 Frc consts  --      0.8596                 0.8863                 1.1388
 IR Inten    --     15.0819                 9.6807                19.8928

                     25                     26                     27
                      A                      A                      A
 Frequencies --    626.1578               667.1936               704.8849
 Red. masses --      3.1182                 1.5781                 4.7982
 Frc consts  --      0.7203                 0.4139                 1.4046
 IR Inten    --     21.0319               114.2364                12.6612

                     28                     29                     30
                      A                      A                      A
 Frequencies --    734.8623               769.8156               798.3513
 Red. masses --      3.5813                 4.9766                 4.0240
 Frc consts  --      1.1395                 1.7376                 1.5111
 IR Inten    --     26.6400                 9.1480                32.9363

                     31                     32                     33
                      A                      A                      A
 Frequencies --    810.8574               840.4651               854.9198
 Red. masses --      4.2799                 1.3600                 1.6404
 Frc consts  --      1.6580                 0.5660                 0.7064
 IR Inten    --      2.7278                 5.3968                39.9668

                     34                     35                     36
                      A                      A                      A
 Frequencies --    893.5004               914.2232               937.4609
 Red. masses --      1.8249                 2.0447                 1.5333
 Frc consts  --      0.8584                 1.0069                 0.7939
 IR Inten    --     71.0844                77.9375                93.2699

                     37                     38                     39
                      A                      A                      A
 Frequencies --    948.1855               978.4530              1037.5612
 Red. masses --      1.3116                 3.0478                 2.1930
 Frc consts  --      0.6948                 1.7192                 1.3910
 IR Inten    --     23.5104                18.7645                 7.7222

                     40                     41                     42
                      A                      A                      A
 Frequencies --   1075.1847              1132.2675              1141.7065
 Red. masses --      2.0063                 1.7257                 2.0593
 Frc consts  --      1.3665                 1.3035                 1.5815
 IR Inten    --    111.2961                92.1696               106.4068

                     43                     44                     45
                      A                      A                      A
 Frequencies --   1179.4009              1184.0877              1200.0228
 Red. masses --      1.6623                 1.7062                 1.3970
 Frc consts  --      1.3623                 1.4094                 1.1853
 IR Inten    --     51.5592               112.7152                25.0732

                     46                     47                     48
                      A                      A                      A
 Frequencies --   1226.4651              1235.7674              1296.0099
 Red. masses --      1.5632                 1.4569                 1.6211
 Frc consts  --      1.3854                 1.3108                 1.6043
 IR Inten    --     13.9054                73.3063                45.4571

                     49                     50                     51
                      A                      A                      A
 Frequencies --   1304.8136              1333.6304              1370.6389
 Red. masses --      2.5702                 2.9718                 2.2592
 Frc consts  --      2.5782                 3.1142                 2.5007
 IR Inten    --     98.8485               198.4921                31.8353

                     52                     53                     54
                      A                      A                      A
 Frequencies --   1374.6712              1385.5023              1404.1295
 Red. masses --      2.0735                 1.6340                 1.8094
 Frc consts  --      2.3086                 1.8481                 2.1019
 IR Inten    --      7.7260                 2.8486                26.0720

                     55                     56                     57
                      A                      A                      A
 Frequencies --   1430.9055              1497.6619              1505.9596
 Red. masses --      2.3075                 3.2276                 1.1176
 Frc consts  --      2.7836                 4.2653                 1.4934
 IR Inten    --     27.9514                92.2627                 7.5711

                     58                     59                     60
                      A                      A                      A
 Frequencies --   1580.8321              1667.0786              1677.9423
 Red. masses --      3.1857                 5.8773                 1.1373
 Frc consts  --      4.6905                 9.6237                 1.8866
 IR Inten    --    114.3217                26.0281                30.3536

                     61                     62                     63
                      A                      A                      A
 Frequencies --   1679.4762              1718.6950              1818.5268
 Red. masses --      5.2248                 1.1015                 9.9485
 Frc consts  --      8.6829                 1.9170                19.3842
 IR Inten    --     21.2593                44.4443               182.6061

                     64                     65                     66
                      A                      A                      A
 Frequencies --   3083.7283              3135.9086              3170.1668
 Red. masses --      1.0599                 1.1050                 1.0902
 Frc consts  --      5.9382                 6.4026                 6.4552
 IR Inten    --     15.8801                 5.8307                 9.3718

                     67                     68                     69
                      A                      A                      A
 Frequencies --   3202.5386              3218.8798              3459.8953
 Red. masses --      1.0880                 1.0942                 1.0496
 Frc consts  --      6.5745                 6.6794                 7.4032
 IR Inten    --      4.8276                 6.3614                 0.9836

                     70                     71                     72
                      A                      A                      A
 Frequencies --   3473.6870              3550.7585              3554.6502
 Red. masses --      1.0512                 1.0919                 1.0903
 Frc consts  --      7.4734                 8.1110                 8.1167
 IR Inten    --      5.0035                 1.4441                 4.5690

                     73                     74                     75
                      A                      A                      A
 Frequencies --   3669.0757              3716.1070              3771.5232
 Red. masses --      1.0639                 1.0651                 1.0662
 Frc consts  --      8.4387                 8.6658                 8.9358
 IR Inten    --     40.4924                86.4274                57.2131

 - Thermochemistry -
 -------------------
 Temperature   298.150 Kelvin.  Pressure   1.00000 Atm.
 Atom     1 has atomic number  6 and mass  12.00000

 Molecular mass:   212.07971 amu.
 Principal axes and moments of inertia in atomic units:
                           1         2         3
     Eigenvalues --  1535.508175075.185275661.61293
           X            0.99998   0.00538   0.00193
           Y           -0.00536   0.99995  -0.00805
           Z           -0.00198   0.00804   0.99997
 This molecule is an asymmetric top.
 Rotational symmetry number  1.
 Warning -- assumption of classical behavior for rotation
           may cause significant error
 Rotational temperatures (Kelvin)      0.05641     0.01707     0.01530
 Rotational constants (GHZ):           1.17534     0.35560     0.31877
 Zero-point vibrational energy     565542.2 (Joules/Mol)
                                  135.16783 (Kcal/Mol)
 Warning -- explicit consideration of  24 degrees of freedom as
           vibrations may cause significant error
 Vibrational temperatures:     29.36    58.65    96.25   101.98   218.32
          (Kelvin)            266.80   285.65   341.03   365.22   374.09
                              419.16   448.53   453.50   482.66   539.26
                              561.42   626.23   651.32   665.30   685.61
                              744.83   810.23   852.27   865.80   900.90
                              959.94  1014.17  1057.30  1107.59  1148.65
                             1166.64  1209.24  1230.04  1285.55  1315.36
                             1348.80  1364.23  1407.78  1492.82  1546.95
                             1629.08  1642.66  1696.89  1703.64  1726.57
                             1764.61  1777.99  1864.67  1877.34  1918.80
                             1972.04  1977.85  1993.43  2020.23  2058.75
                             2154.80  2166.74  2274.46  2398.55  2414.18
                             2416.39  2472.82  2616.45  4436.80  4511.87
                             4561.16  4607.74  4631.25  4978.02  4997.86
                             5108.75  5114.35  5278.98  5346.65  5426.38

 Zero-point correction=                           0.215404 (Hartree/Particle)
 Thermal correction to Energy=                    0.230219
 Thermal correction to Enthalpy=                  0.231164
 Thermal correction to Gibbs Free Energy=         0.172833
 Sum of electronic and zero-point Energies=           -760.404392
 Sum of electronic and thermal Energies=              -760.389577
 Sum of electronic and thermal Enthalpies=            -760.388633
 Sum of electronic and thermal Free Energies=         -760.446963

                     E (Thermal)             CV                S
                      KCal/Mol        Cal/Mol-Kelvin    Cal/Mol-Kelvin
 Total                  144.465             56.519            122.767
 Electronic               0.000              0.000              0.000
 Translational            0.889              2.981             41.959
 Rotational               0.889              2.981             32.156
 Vibrational            142.687             50.557             48.651
 Vibration     1          0.593              1.986              6.594
 Vibration     2          0.594              1.981              5.222
 Vibration     3          0.598              1.970              4.243
 Vibration     4          0.598              1.968              4.129
 Vibration     5          0.619              1.901              2.650
 Vibration     6          0.632              1.860              2.273
 Vibration     7          0.637              1.842              2.147
 Vibration     8          0.656              1.784              1.825
 Vibration     9          0.665              1.756              1.704
 Vibration    10          0.668              1.746              1.662
 Vibration    11          0.687              1.690              1.466
 Vibration    12          0.700              1.651              1.353
 Vibration    13          0.703              1.645              1.335
 Vibration    14          0.717              1.605              1.234
 Vibration    15          0.746              1.524              1.060
 Vibration    16          0.758              1.491              0.999
 Vibration    17          0.796              1.393              0.842
 Vibration    18          0.811              1.355              0.788
 Vibration    19          0.820              1.333              0.759
 Vibration    20          0.833              1.302              0.720
 Vibration    21          0.873              1.211              0.615
 Vibration    22          0.919              1.111              0.518
 Vibration    23          0.950              1.048              0.463
 Vibration    24          0.960              1.028              0.447

 Optimization completed.
    -- Stationary point found.
 Normal termination of Gaussian 16 at Thu Dec 10 14:55:34 2020.

 ----------------------------------------------------------------------
 # B3LYP/6-311++G(d,p) empiricaldispersion=gd3bj scf=xqc pop=npa geom=c
 heck
 ----------------------------------------------------------------------

 ---------------------------------------
 CID_147356028_JID_5057_Energie_neutraal
 ---------------------------------------
 Structure from the checkpoint file:  "JID_5057.chk"
 Charge =  0 Multiplicity = 1

 SCF Done:  E(RB3LYP) =  -760.876535542     A.U. after   15 cycles
 Normal termination of Gaussian 16 at Thu Dec 10 14:58:26 2020.

 ----------------------------------------------------------------------
 # B3LYP/6-311++G(d,p) empiricaldispersion=gd3bj scf=xqc pop=npa geom=c
 heck
 ----------------------------------------------------------------------

 -------------------------------------
 CID_147356028_JID_5057_Energie_kation
 -------------------------------------
 Structure from the checkpoint file:  "JID_5057.chk"
 Charge =  1 Multiplicity = 2

 SCF Done:  E(UB3LYP) =  -760.586315588     A.U. after   25 cycles
 Normal termination of Gaussian 16 at Thu Dec 10 15:05:44 2020.
 Gaussian 16:  ES64L-G16RevA.03 25-Dec-2016

 ----------------------------------------------------------------------
 # B3LYP/6-311++G(d,p) empiricaldispersion=gd3bj scf=xqc pop=npa geom=c
 heck
 ----------------------------------------------------------------------

 ------------------------------------
 CID_147356028_JID_5057_Energie_anion
 ------------------------------------
 Structure from the checkpoint file:  "JID_5057.chk"
 Charge = -1 Multiplicity = 2

                         Standard orientation:
 ---------------------------------------------------------------------
 Center     Atomic      Atomic             Coordinates (Angstroms)
 Number     Number       Type             X           Y           Z
 ---------------------------------------------------------------------
      1          6           0        0.588687    1.152425   -0.863617
      2          6           0        1.859668    1.561170   -0.454928
      3          6           0        2.787525    0.624559   -0.011186
      4          6           0        2.428301   -0.732824    0.017022
      5          6           0        1.163233   -1.137826   -0.388687
      6          6           0        0.221245   -0.197073   -0.835913
      7          6           0       -1.166942   -0.641751   -1.226380
      8          6           0       -2.177547   -0.633810   -0.052132
      9          6           0       -2.333536    0.835749    0.414792
     10          8           0       -2.737833    1.732247   -0.297913
     11          8           0       -2.006701    1.036698    1.712583
     12          7           0       -3.466636   -1.104253   -0.571458
     13          7           0       -1.729903   -1.552141    0.980356
     14          8           0        3.413503   -1.585340    0.465646
     15          8           0        4.031532    1.018212    0.384628
     16          1           0       -0.126615    1.892634   -1.208750
     17          1           0        2.150842    2.606298   -0.481112
     18          1           0        0.898334   -2.193318   -0.361702
     19          1           0       -1.567637    0.009469   -2.009084
     20          1           0       -1.166253   -1.667242   -1.604647
     21          1           0       -2.148459    1.988289    1.880413
     22          1           0       -4.108384   -1.271855    0.203383
     23          1           0       -3.876748   -0.358980   -1.133481
     24          1           0       -0.800715   -1.266612    1.284201
     25          1           0       -2.324680   -1.459465    1.803112
     26          1           0        3.097236   -2.499573    0.414452
     27          1           0        4.521031    0.216869    0.637555
 ---------------------------------------------------------------------

 SCF Done:  E(UB3LYP) =  -760.870207788     A.U. after   33 cycles
 SCF Done:  E(UB3LYP) =  -760.870207788     a.u. after    1 cycles

 The electronic state is 2-A.
 Alpha  occ. eigenvalues --  -19.07869 -19.06008 -19.05789 -19.02367 -14.20959
 Alpha  occ. eigenvalues --  -14.19914 -10.20963 -10.15537 -10.13909 -10.13659
 Alpha  occ. eigenvalues --  -10.08534 -10.08055 -10.07874 -10.07872 -10.07477
 Alpha  occ. eigenvalues --   -1.01887  -0.98202  -0.95436  -0.92927  -0.84132
 Alpha  occ. eigenvalues --   -0.76267  -0.75362  -0.68154  -0.65080  -0.61695
 Alpha  occ. eigenvalues --   -0.57173  -0.54555  -0.51281  -0.47873  -0.45692
 Alpha  occ. eigenvalues --   -0.44597  -0.43400  -0.41026  -0.39799  -0.39419
 Alpha  occ. eigenvalues --   -0.38807  -0.35455  -0.34870  -0.34117  -0.33759
 Alpha  occ. eigenvalues --   -0.32641  -0.32034  -0.31145  -0.30498  -0.28915
 Alpha  occ. eigenvalues --   -0.27673  -0.27573  -0.26042  -0.25218  -0.23504
 Alpha  occ. eigenvalues --   -0.22871  -0.21649  -0.17180  -0.15259  -0.14570
 Alpha  occ. eigenvalues --   -0.11940   0.03998
 Alpha virt. eigenvalues --    0.05620   0.07296   0.07640   0.08249   0.08647
 Alpha virt. eigenvalues --    0.09109   0.09570   0.09795   0.10880   0.11342
 Alpha virt. eigenvalues --    0.12206   0.13274   0.13594   0.14027   0.15172

  Beta  occ. eigenvalues --  -19.07814 -19.05925 -19.05771 -19.02344 -14.20933
  Beta  occ. eigenvalues --  -14.19882 -10.20960 -10.15528 -10.13904 -10.13655
  Beta  occ. eigenvalues --  -10.08531 -10.08054 -10.07872 -10.07853 -10.07472
  Beta  occ. eigenvalues --   -1.01818  -0.98117  -0.95325  -0.92863  -0.84092
  Beta  occ. eigenvalues --   -0.76239  -0.75307  -0.68127  -0.65041  -0.61649
  Beta  occ. eigenvalues --   -0.57103  -0.54475  -0.51233  -0.47811  -0.45633
  Beta  occ. eigenvalues --   -0.44530  -0.43346  -0.40986  -0.39760  -0.39376
  Beta  occ. eigenvalues --   -0.38754  -0.35403  -0.34834  -0.34073  -0.33720
  Beta  occ. eigenvalues --   -0.32607  -0.31987  -0.31095  -0.30467  -0.28882
  Beta  occ. eigenvalues --   -0.27627  -0.27542  -0.26010  -0.25186  -0.23450
  Beta  occ. eigenvalues --   -0.22832  -0.21603  -0.17152  -0.15231  -0.14536
  Beta  occ. eigenvalues --   -0.11913
  Beta virt. eigenvalues --    0.06547   0.07303   0.07687   0.08063   0.08339
  Beta virt. eigenvalues --    0.09150   0.09172   0.09899   0.10031   0.11105
  Beta virt. eigenvalues --    0.11453   0.12359   0.13352   0.13923   0.14254

 Mulliken charges and spin densities:
               1          2
     1  C   -0.892231   0.616055
     2  C   -0.560129   0.379255
     3  C    1.337074  -1.744496
     4  C    0.262415  -0.716726
     5  C   -1.634666   1.588905
     6  C    0.886767   0.119320
     7  C    1.024846  -1.323762
     8  C    0.650974  -1.073242
     9  C   -0.155509  -0.237944
    10  O   -0.268731   0.027146
    11  O   -0.124118   0.031273
    12  N   -0.269291   0.095972
    13  N   -0.231540  -0.109769
    14  O   -0.287908   0.000435
    15  O   -0.252762  -0.009730
    16  H    0.101405   0.084228
    17  H    0.059495   0.119479
    18  H   -0.310214   0.491329
    19  H    0.092223   0.107067
    20  H    0.211010   0.003951
    21  H   -0.408591   0.709218
    22  H   -0.056723   0.297492
    23  H    0.193411   0.035590
    24  H    0.172639   0.102566
    25  H   -0.020353   0.296229
    26  H   -0.681818   0.989071
    27  H    0.162325   0.121086
 Sum of Mulliken charges =  -1.00000   1.00000

 Dipole moment (field-independent basis, Debye):
    X=             -1.0640    Y=              3.3393    Z=             -3.2238  Tot=              4.7619
 Quadrupole moment (field-independent basis, Debye-Ang):
   XX=           -153.3058   YY=           -136.2734   ZZ=           -115.2431
   XY=             11.9350   XZ=              1.6605   YZ=             -0.2082

 Summary of Natural Population Analysis:

                                       Natural Population
                Natural  -----------------------------------------------
    Atom  No    Charge         Core      Valence    Rydberg      Total
 -----------------------------------------------------------------------
      C    1   -0.10870      0.99952     2.10081    0.00838     3.10870
      C    2   -0.11831      0.99953     2.10993    0.00885     3.11831
      C    3    0.13517      0.99935     1.85057    0.01491     2.86483
      C    4    0.13349      0.99934     1.85405    0.01312     2.86651
      C    5   -0.13325      0.99947     2.12355    0.01022     3.13325
      C    6   -0.03016      0.99951     2.02015    0.01049     3.03016
      C    7   -0.19923      0.99956     2.18849    0.01119     3.19923
      C    8    0.10979      0.99956     1.87363    0.01703     2.89021
      C    9    0.39786      0.99964     1.57374    0.02876     2.60214
      O   10   -0.31898      0.99987     3.31250    0.00661     4.31898
      O   11   -0.34081      0.99987     3.33296    0.00797     4.34081
      N   12   -0.41272      0.99975     2.90233    0.01064     3.91272
      N   13   -0.41788      0.99975     2.90758    0.01056     3.91788
      O   14   -0.35517      0.99987     3.34693    0.00837     4.35517
      O   15   -0.34196      0.99988     3.33564    0.00644     4.34196
      H   16    0.10530      0.00000     0.39349    0.00122     0.39470
      H   17    0.10435      0.00000     0.39479    0.00086     0.39565
      H   18    0.10921      0.00000     0.38945    0.00135     0.39079
      H   19    0.10847      0.00000     0.39054    0.00099     0.39153
      H   20    0.11342      0.00000     0.38508    0.00150     0.38658
      H   21    0.24361      0.00000     0.24329    0.01310     0.25639
      H   22    0.17708      0.00000     0.32105    0.00186     0.32292
      H   23    0.18011      0.00000     0.31813    0.00176     0.31989
      H   24    0.18588      0.00000     0.31154    0.00258     0.31412
      H   25    0.17885      0.00000     0.31866    0.00249     0.32115
      H   26    0.25013      0.00000     0.21355    0.03631     0.24987
      H   27    0.24444      0.00000     0.25252    0.00304     0.25556
 =======================================================================
   * Total *   -0.00000     14.99447    40.76494    0.24058    56.00000

 Normal termination of Gaussian 16 at Thu Dec 10 15:16:41 2020.
