 Gaussian 16, Revision A.03,

 -----------------------------------------------------------
 # opt freq B3LYP/6-31G(d) empiricaldispersion=gd3bj scf=xqc
 -----------------------------------------------------------

 -------------------------------
 CID_131307065_JID_6578_neutraal
 -------------------------------
 Symbolic Z-matrix:
 Charge =  0 Multiplicity = 1

 SCF Done:  E(RB3LYP) =  -1463.22517968     A.U. after   16 cycles
 SCF Done:  E(RB3LYP) =  -1463.22952157     A.U. after   14 cycles
 SCF Done:  E(RB3LYP) =  -1463.22843126     A.U. after   14 cycles
 SCF Done:  E(RB3LYP) =  -1463.23163596     A.U. after   14 cycles
 SCF Done:  E(RB3LYP) =  -1463.23312030     A.U. after   15 cycles
 SCF Done:  E(RB3LYP) =  -1463.23503295     A.U. after   14 cycles
 SCF Done:  E(RB3LYP) =  -1463.23579045     A.U. after   15 cycles
 SCF Done:  E(RB3LYP) =  -1463.23781958     A.U. after   14 cycles
 SCF Done:  E(RB3LYP) =  -1463.23792454     A.U. after   13 cycles
 SCF Done:  E(RB3LYP) =  -1463.23812507     A.U. after   14 cycles
 SCF Done:  E(RB3LYP) =  -1463.23870407     A.U. after   12 cycles
 SCF Done:  E(RB3LYP) =  -1463.23878191     A.U. after   12 cycles
 SCF Done:  E(RB3LYP) =  -1463.23880602     A.U. after   11 cycles
 SCF Done:  E(RB3LYP) =  -1463.23881184     A.U. after   10 cycles
 SCF Done:  E(RB3LYP) =  -1463.23881287     A.U. after    9 cycles
 SCF Done:  E(RB3LYP) =  -1463.23881304     A.U. after    8 cycles
 Optimization completed.
    -- Stationary point found.
 Normal termination of Gaussian 16 at Thu Dec 10 23:44:11 2020.

 --------------------------------------------------------------------
 #N Geom=AllCheck Guess=TCheck SCRF=Check GenChk RB3LYP/6-31G(d) Freq
 --------------------------------------------------------------------

 Structure from the checkpoint file:  "JID_6578.chk"
 -------------------------------
 CID_131307065_JID_6578_neutraal
 -------------------------------
 Charge =  0 Multiplicity = 1

 SCF Done:  E(RB3LYP) =  -1463.23881304     A.U. after    1 cycles

  Exact polarizability: 200.505  -5.687 173.220  -0.068   4.822  85.326
 Approx polarizability: 302.304  -3.280 319.535  -6.855  29.929 144.346

                      1                      2                      3
                      A                      A                      A
 Frequencies --     28.5029                49.7034                79.1529
 Red. masses --      7.9086                 6.6860                 5.3090
 Frc consts  --      0.0038                 0.0097                 0.0196
 IR Inten    --      2.5187                 2.0465                 0.5784

                      4                      5                      6
                      A                      A                      A
 Frequencies --    113.9984               129.1599               142.1084
 Red. masses --      4.2997                 5.9453                 2.7732
 Frc consts  --      0.0329                 0.0584                 0.0330
 IR Inten    --      6.0515                 0.6122                 3.0719

                      7                      8                      9
                      A                      A                      A
 Frequencies --    155.7019               162.5491               190.0377
 Red. masses --      1.8404                 5.9363                 1.1031
 Frc consts  --      0.0263                 0.0924                 0.0235
 IR Inten    --      0.7440                 5.2309                 0.2180

                     10                     11                     12
                      A                      A                      A
 Frequencies --    214.7026               221.9964               249.6569
 Red. masses --      7.0472                 5.0849                 6.6552
 Frc consts  --      0.1914                 0.1476                 0.2444
 IR Inten    --      0.1297                 3.8901                 4.1077

                     13                     14                     15
                      A                      A                      A
 Frequencies --    263.6624               285.7832               290.9882
 Red. masses --      3.7604                 6.0214                 5.4171
 Frc consts  --      0.1540                 0.2897                 0.2702
 IR Inten    --      1.1671                 3.7501                 5.4946

                     16                     17                     18
                      A                      A                      A
 Frequencies --    315.5980               339.0558               385.4340
 Red. masses --      4.4394                 4.8737                 9.3720
 Frc consts  --      0.2605                 0.3301                 0.8203
 IR Inten    --      3.8161                 3.0454                 7.7239

                     19                     20                     21
                      A                      A                      A
 Frequencies --    398.7312               450.9925               482.1830
 Red. masses --      6.4280                 7.1982                 8.0904
 Frc consts  --      0.6021                 0.8626                 1.1083
 IR Inten    --      1.5325                21.1814                24.6670

                     22                     23                     24
                      A                      A                      A
 Frequencies --    515.1320               520.1932               535.9509
 Red. masses --      6.5619                 4.6693                 6.1761
 Frc consts  --      1.0259                 0.7444                 1.0452
 IR Inten    --     29.0296                 6.6866                19.7391

                     25                     26                     27
                      A                      A                      A
 Frequencies --    550.4131               668.0956               701.6452
 Red. masses --      6.4545                10.6890                 6.4288
 Frc consts  --      1.1521                 2.8110                 1.8647
 IR Inten    --     37.4471                 2.3335                 0.7160

                     28                     29                     30
                      A                      A                      A
 Frequencies --    710.3198               729.9113               756.2461
 Red. masses --      6.3260                 6.6457                 5.6389
 Frc consts  --      1.8805                 2.0861                 1.9001
 IR Inten    --      0.1927                37.5113                46.1006

                     31                     32                     33
                      A                      A                      A
 Frequencies --    761.8603               783.4272               832.3567
 Red. masses --      3.0614                 5.2806                 2.0066
 Frc consts  --      1.0469                 1.9095                 0.8191
 IR Inten    --     17.7506                13.8516                 4.9458

                     34                     35                     36
                      A                      A                      A
 Frequencies --    968.7918               992.2409               993.5340
 Red. masses --      1.3547                 1.2098                 1.4290
 Frc consts  --      0.7491                 0.7018                 0.8311
 IR Inten    --      0.2255                 4.2496                 9.7450

                     37                     38                     39
                      A                      A                      A
 Frequencies --    996.7669              1005.2043              1010.1506
 Red. masses --      1.3715                 1.2866                 1.3236
 Frc consts  --      0.8028                 0.7660                 0.7957
 IR Inten    --      2.3077                 8.4361                 2.2438

                     40                     41                     42
                      A                      A                      A
 Frequencies --   1023.7502              1079.8738              1119.4946
 Red. masses --      6.4914                 7.9309                 9.6019
 Frc consts  --      4.0084                 5.4490                 7.0901
 IR Inten    --    164.7788                24.4692               232.8943

                     43                     44                     45
                      A                      A                      A
 Frequencies --   1154.8883              1183.2227              1226.4467
 Red. masses --      2.0423                 1.9857                 1.5125
 Frc consts  --      1.6049                 1.6379                 1.3405
 IR Inten    --      0.7724                 4.5466                 8.3946

                     46                     47                     48
                      A                      A                      A
 Frequencies --   1267.8732              1314.5965              1341.9260
 Red. masses --      2.7936                13.3010                10.6502
 Frc consts  --      2.6459                13.5431                11.2997
 IR Inten    --    155.5690               115.7551                58.9408

                     49                     50                     51
                      A                      A                      A
 Frequencies --   1365.9477              1381.0209              1434.3730
 Red. masses --      1.2069                 1.1697                 2.9960
 Frc consts  --      1.3267                 1.3144                 3.6318
 IR Inten    --     16.8382                 3.9894                82.0861

                     52                     53                     54
                      A                      A                      A
 Frequencies --   1475.1077              1486.8317              1488.1611
 Red. masses --      1.0602                 1.7368                 1.1367
 Frc consts  --      1.3592                 2.2622                 1.4831
 IR Inten    --      3.2920                12.2212                 9.9102

                     55                     56                     57
                      A                      A                      A
 Frequencies --   1492.0500              1519.9334              1598.8096
 Red. masses --      1.0612                 1.0616                 5.5589
 Frc consts  --      1.3919                 1.4449                 8.3721
 IR Inten    --      5.0696                22.2374                63.9731

                     58                     59                     60
                      A                      A                      A
 Frequencies --   1635.9086              1749.5373              2342.8604
 Red. masses --      4.9676                12.5824                12.7299
 Frc consts  --      7.8327                22.6913                41.1688
 IR Inten    --     37.8377               162.8921                20.3082

                     61                     62                     63
                      A                      A                      A
 Frequencies --   3077.8027              3086.3681              3161.3910
 Red. masses --      1.0311                 1.0290                 1.1054
 Frc consts  --      5.7549                 5.7753                 6.5094
 IR Inten    --     12.4875                 0.7727                 4.1034

                     64                     65                     66
                      A                      A                      A
 Frequencies --   3185.1579              3193.5957              3203.8084
 Red. masses --      1.1062                 1.1052                 1.1080
 Frc consts  --      6.6121                 6.6413                 6.7005
 IR Inten    --      0.9511                 2.6108                 1.1957

                     67                     68                     69
                      A                      A                      A
 Frequencies --   3212.3012              3225.3525              3236.8439
 Red. masses --      1.0874                 1.0923                 1.0944
 Frc consts  --      6.6111                 6.6948                 6.7554
 IR Inten    --      1.2866                 4.4091                 6.0603

 - Thermochemistry -
 -------------------
 Temperature   298.150 Kelvin.  Pressure   1.00000 Atm.
 Atom     1 has atomic number  6 and mass  12.00000

 Molecular mass:   255.00239 amu.
 Principal axes and moments of inertia in atomic units:
                           1         2         3
     Eigenvalues --  2239.928145831.796627403.98301
           X            0.99998  -0.00078   0.00667
           Y            0.00093   0.99974  -0.02264
           Z           -0.00665   0.02264   0.99972
 This molecule is an asymmetric top.
 Rotational symmetry number  1.
 Warning -- assumption of classical behavior for rotation
           may cause significant error
 Rotational temperatures (Kelvin)      0.03867     0.01485     0.01170
 Rotational constants (GHZ):           0.80571     0.30947     0.24375
 Zero-point vibrational energy     462040.7 (Joules/Mol)
                                  110.43038 (Kcal/Mol)
 Warning -- explicit consideration of  25 degrees of freedom as
           vibrations may cause significant error
 Vibrational temperatures:     41.01    71.51   113.88   164.02   185.83
          (Kelvin)            204.46   224.02   233.87   273.42   308.91
                              319.40   359.20   379.35   411.18   418.67
                              454.08   487.83   554.55   573.69   648.88
                              693.75   741.16   748.44   771.11   791.92
                              961.24  1009.51  1021.99  1050.18  1088.07
                             1096.15  1127.18  1197.58  1393.88  1427.61
                             1429.47  1434.13  1446.26  1453.38  1472.95
                             1553.70  1610.70  1661.63  1702.39  1764.58
                             1824.19  1891.41  1930.73  1965.29  1986.98
                             2063.74  2122.35  2139.22  2141.13  2146.73
                             2186.85  2300.33  2353.71  2517.19  3370.85
                             4428.27  4440.60  4548.54  4582.73  4594.87
                             4609.57  4621.78  4640.56  4657.10

 Zero-point correction=                           0.175982 (Hartree/Particle)
 Thermal correction to Energy=                    0.192028
 Thermal correction to Enthalpy=                  0.192973
 Thermal correction to Gibbs Free Energy=         0.132013
 Sum of electronic and zero-point Energies=          -1463.062831
 Sum of electronic and thermal Energies=             -1463.046785
 Sum of electronic and thermal Enthalpies=           -1463.045840
 Sum of electronic and thermal Free Energies=        -1463.106800

                     E (Thermal)             CV                S
                      KCal/Mol        Cal/Mol-Kelvin    Cal/Mol-Kelvin
 Total                  120.500             58.565            128.301
 Electronic               0.000              0.000              0.000
 Translational            0.889              2.981             42.508
 Rotational               0.889              2.981             32.936
 Vibrational            118.722             52.603             52.856
 Vibration     1          0.593              1.984              5.931
 Vibration     2          0.595              1.978              4.829
 Vibration     3          0.600              1.963              3.912
 Vibration     4          0.607              1.938              3.200
 Vibration     5          0.612              1.924              2.959
 Vibration     6          0.616              1.911              2.775
 Vibration     7          0.620              1.896              2.601
 Vibration     8          0.623              1.888              2.520
 Vibration     9          0.633              1.854              2.227
 Vibration    10          0.645              1.819              2.003
 Vibration    11          0.648              1.808              1.943
 Vibration    12          0.662              1.763              1.733
 Vibration    13          0.670              1.739              1.637
 Vibration    14          0.684              1.700              1.499
 Vibration    15          0.687              1.691              1.468
 Vibration    16          0.703              1.644              1.333
 Vibration    17          0.719              1.597              1.217
 Vibration    18          0.754              1.501              1.018
 Vibration    19          0.765              1.473              0.967
 Vibration    20          0.810              1.359              0.793
 Vibration    21          0.838              1.290              0.704
 Vibration    22          0.870              1.216              0.621
 Vibration    23          0.875              1.205              0.610
 Vibration    24          0.891              1.171              0.574
 Vibration    25          0.906              1.139              0.543

 Optimization completed.
    -- Stationary point found.
 Normal termination of Gaussian 16 at Thu Dec 10 23:52:12 2020.

 ----------------------------------------------------------------------
 # B3LYP/6-311++G(d,p) empiricaldispersion=gd3bj scf=xqc pop=npa geom=c
 heck
 ----------------------------------------------------------------------

 ---------------------------------------
 CID_131307065_JID_6578_Energie_neutraal
 ---------------------------------------
 Structure from the checkpoint file:  "JID_6578.chk"
 Charge =  0 Multiplicity = 1

 SCF Done:  E(RB3LYP) =  -1463.47521390     A.U. after   17 cycles
 Normal termination of Gaussian 16 at Thu Dec 10 23:55:33 2020.

 ----------------------------------------------------------------------
 # B3LYP/6-311++G(d,p) empiricaldispersion=gd3bj scf=xqc pop=npa geom=c
 heck
 ----------------------------------------------------------------------

 -------------------------------------
 CID_131307065_JID_6578_Energie_kation
 -------------------------------------
 Structure from the checkpoint file:  "JID_6578.chk"
 Charge =  1 Multiplicity = 2

 SCF Done:  E(UB3LYP) =  -1463.15165267     A.U. after   26 cycles
 Normal termination of Gaussian 16 at Fri Dec 11 00:02:29 2020.
 Gaussian 16:  ES64L-G16RevA.03 25-Dec-2016

 ----------------------------------------------------------------------
 # B3LYP/6-311++G(d,p) empiricaldispersion=gd3bj scf=xqc pop=npa geom=c
 heck
 ----------------------------------------------------------------------

 ------------------------------------
 CID_131307065_JID_6578_Energie_anion
 ------------------------------------
 Structure from the checkpoint file:  "JID_6578.chk"
 Charge = -1 Multiplicity = 2

                         Standard orientation:
 ---------------------------------------------------------------------
 Center     Atomic      Atomic             Coordinates (Angstroms)
 Number     Number       Type             X           Y           Z
 ---------------------------------------------------------------------
      1          6           0       -1.082350   -2.603197    0.997932
      2         16           0        0.109371   -1.877171   -0.184520
      3          6           0       -0.179312   -0.127977   -0.055764
      4          6           0       -1.465750    0.480655    0.014057
      5          6           0       -1.575335    1.865510    0.252845
      6          6           0       -0.458400    2.678287    0.343696
      7          6           0        0.803358    2.110193    0.180112
      8          6           0        0.936616    0.736410   -0.004965
      9         16           0        2.651550    0.168139   -0.228061
     10          8           0        2.678459   -0.784194   -1.345548
     11          8           0        3.485690    1.379503   -0.261556
     12          6           0        3.045207   -0.701771    1.302115
     13          6           0       -2.716522   -0.232765   -0.327104
     14          8           0       -2.817354   -1.340042   -0.824346
     15          6           0       -3.977325    0.509938   -0.079175
     16          7           0       -5.004420    1.016773    0.114330
     17          1           0       -0.596699   -3.505340    1.378455
     18          1           0       -2.021467   -2.858194    0.509073
     19          1           0       -1.263263   -1.918117    1.829764
     20          1           0       -2.563730    2.306117    0.331540
     21          1           0       -0.564937    3.743829    0.515740
     22          1           0        1.702997    2.714809    0.205755
     23          1           0        2.983115    0.007871    2.128882
     24          1           0        2.354607   -1.535611    1.426384
     25          1           0        4.070092   -1.062104    1.184493
 ---------------------------------------------------------------------

 SCF Done:  E(UB3LYP) =  -1463.54372491     A.U. after   25 cycles

 The electronic state is 2-A.
 Alpha  occ. eigenvalues --  -88.94666 -88.73592 -19.01253 -19.01101 -18.95335
 Alpha  occ. eigenvalues --  -14.17571 -10.11515 -10.11357 -10.10439 -10.10033
 Alpha  occ. eigenvalues --  -10.08012 -10.07224 -10.07106 -10.06823 -10.06772
 Alpha  occ. eigenvalues --  -10.06708  -8.01092  -7.82187  -5.97356  -5.97255
 Alpha  occ. eigenvalues --   -5.97207  -5.78591  -5.78183  -5.77579  -1.00625
 Alpha  occ. eigenvalues --   -0.90318  -0.90283  -0.77322  -0.76418  -0.69372
 Alpha  occ. eigenvalues --   -0.68552  -0.66015  -0.63463  -0.56969  -0.54485
 Alpha  occ. eigenvalues --   -0.52874  -0.48091  -0.46843  -0.42472  -0.38684
 Alpha  occ. eigenvalues --   -0.37878  -0.37753  -0.36323  -0.35449  -0.33948
 Alpha  occ. eigenvalues --   -0.33538  -0.33129  -0.32679  -0.30919  -0.29602
 Alpha  occ. eigenvalues --   -0.28450  -0.27153  -0.26226  -0.25557  -0.24345
 Alpha  occ. eigenvalues --   -0.23791  -0.22186  -0.21617  -0.20817  -0.20641
 Alpha  occ. eigenvalues --   -0.19938  -0.18953  -0.17287  -0.15825  -0.13186
 Alpha  occ. eigenvalues --   -0.10807  -0.00751
 Alpha virt. eigenvalues --    0.06517   0.06970   0.08555   0.08866   0.10120
 Alpha virt. eigenvalues --    0.10517   0.11268   0.11681   0.12339   0.12889
 Alpha virt. eigenvalues --    0.13290   0.13874   0.14536   0.15361   0.15599

  Beta  occ. eigenvalues --  -88.94664 -88.73578 -19.01251 -19.01104 -18.94539
  Beta  occ. eigenvalues --  -14.17334 -10.11358 -10.11172 -10.10179 -10.10128
  Beta  occ. eigenvalues --  -10.07981 -10.07230 -10.07156 -10.06783 -10.06673
  Beta  occ. eigenvalues --  -10.06489  -8.01090  -7.82173  -5.97354  -5.97253
  Beta  occ. eigenvalues --   -5.97203  -5.78590  -5.78182  -5.77522  -1.00629
  Beta  occ. eigenvalues --   -0.90286  -0.88937  -0.76956  -0.76142  -0.69227
  Beta  occ. eigenvalues --   -0.68410  -0.65711  -0.63253  -0.56508  -0.54096
  Beta  occ. eigenvalues --   -0.52442  -0.47956  -0.46496  -0.42391  -0.38656
  Beta  occ. eigenvalues --   -0.37818  -0.37697  -0.35992  -0.35222  -0.33889
  Beta  occ. eigenvalues --   -0.33465  -0.33064  -0.32317  -0.30612  -0.28448
  Beta  occ. eigenvalues --   -0.27682  -0.27008  -0.25407  -0.24717  -0.23942
  Beta  occ. eigenvalues --   -0.23682  -0.22118  -0.21503  -0.20657  -0.19884
  Beta  occ. eigenvalues --   -0.18968  -0.18681  -0.16723  -0.14411  -0.12369
  Beta  occ. eigenvalues --   -0.10343
  Beta virt. eigenvalues --    0.06048   0.06954   0.07018   0.08571   0.08942
  Beta virt. eigenvalues --    0.10465   0.11160   0.11575   0.11932   0.12613
  Beta virt. eigenvalues --    0.12977   0.13305   0.13900   0.14553   0.15408

 Mulliken charges and spin densities:
               1          2
     1  C   -0.713411   0.005940
     2  S   -0.113980   0.019949
     3  C    0.393381   0.171734
     4  C    1.101836   0.045796
     5  C   -0.394560   0.063336
     6  C   -0.761358  -0.021966
     7  C   -0.004330   0.204830
     8  C   -0.104488  -0.081088
     9  S    0.242736   0.010039
    10  O   -0.091292   0.005550
    11  O   -0.179978  -0.002048
    12  C   -0.559145   0.001161
    13  C   -0.109193   0.200922
    14  O   -0.330471   0.279560
    15  C   -0.626218  -0.016767
    16  N   -0.339987   0.123737
    17  H    0.135475   0.001963
    18  H    0.202797   0.006630
    19  H    0.148710   0.000391
    20  H    0.125034  -0.005278
    21  H    0.145654   0.001505
    22  H    0.217078  -0.015395
    23  H    0.191576   0.000136
    24  H    0.232894  -0.000452
    25  H    0.191241  -0.000183
 Sum of Mulliken charges =  -1.00000   1.00000

 Dipole moment (field-independent basis, Debye):
    X=              7.1041    Y=             -0.7665    Z=              5.1429  Tot=              8.8036
 Quadrupole moment (field-independent basis, Debye-Ang):
   XX=           -184.3968   YY=           -120.5190   ZZ=           -116.9982
   XY=             -2.1735   XZ=              7.3006   YZ=             -6.7905

 Summary of Natural Population Analysis:

                                       Natural Population
                Natural  -----------------------------------------------
    Atom  No    Charge         Core      Valence    Rydberg      Total
 -----------------------------------------------------------------------
      C    1   -0.34747      0.99961     2.34285    0.00500     3.34747
      S    2    0.14172      4.99955     2.83699    0.02174     7.85828
      C    3   -0.01647      0.99932     2.00534    0.01180     3.01647
      C    4   -0.07201      0.99943     2.06083    0.01174     3.07201
      C    5   -0.04468      0.99954     2.03777    0.00737     3.04468
      C    6   -0.12563      0.99956     2.11669    0.00937     3.12563
      C    7   -0.04190      0.99951     2.03234    0.01005     3.04190
      C    8   -0.17126      0.99931     2.15589    0.01606     3.17126
      S    9    1.02748      4.99922     1.87579    0.09751     6.97252
      O   10   -0.46197      0.99991     3.45561    0.00644     4.46197
      O   11   -0.47631      0.99991     3.47044    0.00597     4.47631
      C   12   -0.39515      0.99961     2.38850    0.00704     3.39515
      C   13    0.24291      0.99952     1.73442    0.02314     2.75709
      O   14   -0.17923      0.99988     3.17289    0.00646     4.17923
      C   15    0.10860      0.99963     1.86958    0.02218     2.89140
      N   16   -0.16485      0.99979     2.65256    0.01250     3.66485
      H   17    0.09553      0.00000     0.40342    0.00105     0.40447
      H   18    0.11882      0.00000     0.37976    0.00142     0.38118
      H   19    0.10321      0.00000     0.39575    0.00104     0.39679
      H   20    0.10642      0.00000     0.39208    0.00150     0.39358
      H   21    0.09735      0.00000     0.40166    0.00099     0.40265
      H   22    0.11140      0.00000     0.38744    0.00116     0.38860
      H   23    0.11129      0.00000     0.38758    0.00113     0.38871
      H   24    0.12123      0.00000     0.37645    0.00232     0.37877
      H   25    0.11095      0.00000     0.38764    0.00141     0.38905
 =======================================================================
   * Total *    0.00000     23.99330    41.72028    0.28643    66.00000

 Normal termination of Gaussian 16 at Fri Dec 11 00:09:09 2020.
