 Gaussian 16, Revision A.03,

 -----------------------------------------------------------
 # opt freq B3LYP/6-31G(d) empiricaldispersion=gd3bj scf=xqc
 -----------------------------------------------------------

 -------------------------------
 CID_109919794_JID_7279_neutraal
 -------------------------------
 Symbolic Z-matrix:
 Charge =  0 Multiplicity = 1

 SCF Done:  E(RB3LYP) =  -753.788856833     A.U. after   13 cycles
 SCF Done:  E(RB3LYP) =  -753.793177086     A.U. after   12 cycles
 SCF Done:  E(RB3LYP) =  -753.793595674     A.U. after   11 cycles
 SCF Done:  E(RB3LYP) =  -753.793695294     A.U. after   11 cycles
 SCF Done:  E(RB3LYP) =  -753.793852311     A.U. after   11 cycles
 SCF Done:  E(RB3LYP) =  -753.793943044     A.U. after   11 cycles
 SCF Done:  E(RB3LYP) =  -753.794003708     A.U. after   10 cycles
 SCF Done:  E(RB3LYP) =  -753.794024782     A.U. after   10 cycles
 SCF Done:  E(RB3LYP) =  -753.794061827     A.U. after    9 cycles
 SCF Done:  E(RB3LYP) =  -753.794075651     A.U. after    8 cycles
 SCF Done:  E(RB3LYP) =  -753.794104963     A.U. after    8 cycles
 SCF Done:  E(RB3LYP) =  -753.794105285     A.U. after    8 cycles
 SCF Done:  E(RB3LYP) =  -753.794105394     A.U. after    7 cycles
 SCF Done:  E(RB3LYP) =  -753.794105441     A.U. after    7 cycles
 SCF Done:  E(RB3LYP) =  -753.794105472     A.U. after    6 cycles
 Optimization completed.
    -- Stationary point found.
 Normal termination of Gaussian 16 at Mon Dec 14 16:49:00 2020.

 --------------------------------------------------------------------
 #N Geom=AllCheck Guess=TCheck SCRF=Check GenChk RB3LYP/6-31G(d) Freq
 --------------------------------------------------------------------

 Structure from the checkpoint file:  "JID_7279.chk"
 -------------------------------
 CID_109919794_JID_7279_neutraal
 -------------------------------
 Charge =  0 Multiplicity = 1

 SCF Done:  E(RB3LYP) =  -753.794105472     A.U. after    1 cycles

  Exact polarizability: 188.769   3.912 167.029  10.096  -0.130 122.617
 Approx polarizability: 239.360   1.140 239.019  20.920  -4.278 190.354

                      1                      2                      3
                      A                      A                      A
 Frequencies --     16.6525                22.7669                43.7341
 Red. masses --      4.1042                 3.4292                 2.9591
 Frc consts  --      0.0007                 0.0010                 0.0033
 IR Inten    --      0.3019                 0.0714                 0.2119

                      4                      5                      6
                      A                      A                      A
 Frequencies --     59.2843                70.4840               110.5629
 Red. masses --      3.4324                 3.4001                 1.1024
 Frc consts  --      0.0071                 0.0100                 0.0079
 IR Inten    --      0.1013                 0.5259                 0.1880

                      7                      8                      9
                      A                      A                      A
 Frequencies --    124.8595               132.7673               159.1904
 Red. masses --      1.4339                 2.0595                 3.4751
 Frc consts  --      0.0132                 0.0214                 0.0519
 IR Inten    --      0.9426                 0.9498                 3.7758

                     10                     11                     12
                      A                      A                      A
 Frequencies --    182.3656               192.2824               218.8927
 Red. masses --      2.9215                 2.6490                 2.3183
 Frc consts  --      0.0572                 0.0577                 0.0654
 IR Inten    --      1.3124                 3.6495                 0.9444

                     13                     14                     15
                      A                      A                      A
 Frequencies --    227.7297               236.8277               244.8463
 Red. masses --      2.0786                 1.4092                 2.4550
 Frc consts  --      0.0635                 0.0466                 0.0867
 IR Inten    --      1.0691                 0.4642                 0.4172

                     16                     17                     18
                      A                      A                      A
 Frequencies --    259.4278               269.3327               290.3123
 Red. masses --      2.5977                 1.8693                 1.6989
 Frc consts  --      0.1030                 0.0799                 0.0844
 IR Inten    --      1.4079                 0.5454                 0.5671

                     19                     20                     21
                      A                      A                      A
 Frequencies --    311.3932               320.8526               345.0490
 Red. masses --      2.2384                 2.3112                 1.1582
 Frc consts  --      0.1279                 0.1402                 0.0812
 IR Inten    --      0.0435                 0.8618                 0.1427

                     22                     23                     24
                      A                      A                      A
 Frequencies --    377.0299               387.3121               403.8922
 Red. masses --      3.3458                 2.3425                 2.6090
 Frc consts  --      0.2802                 0.2070                 0.2508
 IR Inten    --      2.7138                 0.1006                 0.5522

                     25                     26                     27
                      A                      A                      A
 Frequencies --    422.3618               437.4160               452.8037
 Red. masses --      1.8452                 2.3138                 2.7096
 Frc consts  --      0.1939                 0.2608                 0.3273
 IR Inten    --      0.1674                 3.3133                 0.8428

                     28                     29                     30
                      A                      A                      A
 Frequencies --    512.7932               590.8480               620.6094
 Red. masses --      2.5711                 1.2136                 3.8310
 Frc consts  --      0.3983                 0.2496                 0.8694
 IR Inten    --      1.4368                70.6059                 2.0059

                     31                     32                     33
                      A                      A                      A
 Frequencies --    636.9281               652.2916               669.8149
 Red. masses --      5.1049                 3.7795                 2.8727
 Frc consts  --      1.2202                 0.9475                 0.7594
 IR Inten    --      0.0890                 7.9966                 9.0440

                     34                     35                     36
                      A                      A                      A
 Frequencies --    699.3159               731.0659               798.4671
 Red. masses --      4.4544                 3.4739                 2.2232
 Frc consts  --      1.2835                 1.0939                 0.8351
 IR Inten    --      1.5917                 0.6116                33.5400

                     37                     38                     39
                      A                      A                      A
 Frequencies --    803.5020               819.0378               875.3714
 Red. masses --      1.8617                 1.5124                 2.0941
 Frc consts  --      0.7082                 0.5977                 0.9454
 IR Inten    --     47.8296                33.3829                 2.7225

                     40                     41                     42
                      A                      A                      A
 Frequencies --    890.1212               920.3791               942.5376
 Red. masses --      2.0194                 1.5485                 1.7561
 Frc consts  --      0.9427                 0.7728                 0.9192
 IR Inten    --     20.3172                 2.6820                 0.4758

                     43                     44                     45
                      A                      A                      A
 Frequencies --    949.5335               951.0598               972.1971
 Red. masses --      1.6775                 2.1003                 1.2057
 Frc consts  --      0.8911                 1.1193                 0.6715
 IR Inten    --      0.7759                 9.0926                 0.2476

                     46                     47                     48
                      A                      A                      A
 Frequencies --    989.4875              1022.9575              1027.4838
 Red. masses --      1.6120                 3.1265                 2.1908
 Frc consts  --      0.9299                 1.9276                 1.3627
 IR Inten    --     17.2608                 7.2164                 8.3637

                     49                     50                     51
                      A                      A                      A
 Frequencies --   1041.0448              1042.6244              1061.4945
 Red. masses --      1.5703                 1.5640                 1.5764
 Frc consts  --      1.0027                 1.0017                 1.0465
 IR Inten    --     13.2307                11.8602                10.0030

                     52                     53                     54
                      A                      A                      A
 Frequencies --   1075.0045              1083.1507              1092.6594
 Red. masses --      1.4401                 1.4710                 3.8231
 Frc consts  --      0.9805                 1.0168                 2.6893
 IR Inten    --      0.0444                 3.6531               101.6685

                     55                     56                     57
                      A                      A                      A
 Frequencies --   1105.2614              1132.1374              1157.0425
 Red. masses --      1.9125                 3.1628                 2.0820
 Frc consts  --      1.3765                 2.3885                 1.6422
 IR Inten    --      4.0084                50.7647                 3.9647

                     58                     59                     60
                      A                      A                      A
 Frequencies --   1174.2141              1180.2153              1230.2855
 Red. masses --      3.5720                 1.5508                 1.8964
 Frc consts  --      2.9017                 1.2727                 1.6912
 IR Inten    --      2.5238                 0.1352                10.8781

                     61                     62                     63
                      A                      A                      A
 Frequencies --   1232.4816              1243.2330              1262.5382
 Red. masses --      1.7646                 1.3194                 3.4878
 Frc consts  --      1.5793                 1.2015                 3.2756
 IR Inten    --     21.4986                20.6960                16.6758

                     64                     65                     66
                      A                      A                      A
 Frequencies --   1280.1310              1287.3411              1303.9176
 Red. masses --      2.3150                 2.0198                 2.7818
 Frc consts  --      2.2351                 1.9722                 2.7866
 IR Inten    --      9.0786                 4.0099                27.6589

                     67                     68                     69
                      A                      A                      A
 Frequencies --   1319.8384              1354.7492              1370.5295
 Red. masses --      1.5716                 1.3993                 1.3731
 Frc consts  --      1.6130                 1.5131                 1.5197
 IR Inten    --      3.0731                 0.1807                 8.1780

                     70                     71                     72
                      A                      A                      A
 Frequencies --   1386.2650              1414.8170              1417.8819
 Red. masses --      1.3017                 1.3156                 1.4774
 Frc consts  --      1.4738                 1.5516                 1.7500
 IR Inten    --     13.8025                12.6784                 1.9090

                     73                     74                     75
                      A                      A                      A
 Frequencies --   1427.6519              1431.1977              1440.9025
 Red. masses --      1.2452                 1.2476                 1.2779
 Frc consts  --      1.4953                 1.5057                 1.5632
 IR Inten    --      5.2405                 5.3040                 3.9285

                     76                     77                     78
                      A                      A                      A
 Frequencies --   1447.5574              1461.2979              1462.2133
 Red. masses --      1.2929                 1.4539                 1.8939
 Frc consts  --      1.5962                 1.8292                 2.3858
 IR Inten    --      3.9525                15.8920                17.7556

                     79                     80                     81
                      A                      A                      A
 Frequencies --   1473.0284              1502.5610              1502.9509
 Red. masses --      1.3048                 1.0442                 1.0534
 Frc consts  --      1.6681                 1.3889                 1.4020
 IR Inten    --     49.3219                 3.0149                 6.0844

                     82                     83                     84
                      A                      A                      A
 Frequencies --   1504.4950              1509.1327              1515.0892
 Red. masses --      1.1253                 1.1388                 1.0528
 Frc consts  --      1.5007                 1.5281                 1.4238
 IR Inten    --     22.5827                36.2097                 1.3489

                     85                     86                     87
                      A                      A                      A
 Frequencies --   1518.3473              1520.1092              1523.2171
 Red. masses --      1.0725                 1.0551                 1.1332
 Frc consts  --      1.4568                 1.4364                 1.5491
 IR Inten    --      4.0876                 4.8324                 4.4597

                     88                     89                     90
                      A                      A                      A
 Frequencies --   1524.0001              1538.8206              1542.1747
 Red. masses --      1.0528                 1.0715                 1.0625
 Frc consts  --      1.4407                 1.4949                 1.4888
 IR Inten    --      2.6084                 8.4185                 5.1803

                     91                     92                     93
                      A                      A                      A
 Frequencies --   1547.3358              1551.7834              1555.5353
 Red. masses --      1.0902                 1.0836                 1.0587
 Frc consts  --      1.5379                 1.5373                 1.5094
 IR Inten    --      2.5048                 5.1195                11.2941

                     94                     95                     96
                      A                      A                      A
 Frequencies --   1634.6732              1686.8848              2978.0014
 Red. masses --      6.5457                 7.0203                 1.0706
 Frc consts  --     10.3054                11.7699                 5.5940
 IR Inten    --     29.1095                10.4897                46.1808

                     97                     98                     99
                      A                      A                      A
 Frequencies --   2983.5861              3020.9890              3034.9179
 Red. masses --      1.0710                 1.0692                 1.0624
 Frc consts  --      5.6174                 5.7493                 5.7656
 IR Inten    --     73.6469                14.0353                32.8463

                    100                    101                    102
                      A                      A                      A
 Frequencies --   3037.0925              3040.6417              3042.5708
 Red. masses --      1.0444                 1.0377                 1.0385
 Frc consts  --      5.6757                 5.6527                 5.6640
 IR Inten    --     54.1749                24.5987                46.8309

                    103                    104                    105
                      A                      A                      A
 Frequencies --   3043.8099              3046.3080              3050.8141
 Red. masses --      1.0391                 1.0891                 1.0403
 Frc consts  --      5.6720                 5.9550                 5.7048
 IR Inten    --     29.3709                37.3378                18.3971

                    106                    107                    108
                      A                      A                      A
 Frequencies --   3059.7840              3091.4287              3091.6328
 Red. masses --      1.1004                 1.1013                 1.1013
 Frc consts  --      6.0700                 6.2013                 6.2022
 IR Inten    --     29.4465                 1.1731                35.1888

                    109                    110                    111
                      A                      A                      A
 Frequencies --   3096.2373              3101.2691              3103.3287
 Red. masses --      1.0926                 1.1019                 1.1022
 Frc consts  --      6.1716                 6.2443                 6.2542
 IR Inten    --     36.8284                12.9982                 4.4096

                    112                    113                    114
                      A                      A                      A
 Frequencies --   3106.4279              3110.7332              3111.3362
 Red. masses --      1.1021                 1.1019                 1.1014
 Frc consts  --      6.2659                 6.2820                 6.2817
 IR Inten    --     54.5931                34.1830                83.9005

                    115                    116                    117
                      A                      A                      A
 Frequencies --   3139.6522              3143.1009              3149.9159
 Red. masses --      1.0992                 1.0970                 1.0980
 Frc consts  --      6.3840                 6.3852                 6.4188
 IR Inten    --     12.2094                28.2996                12.2916

                    118                    119                    120
                      A                      A                      A
 Frequencies --   3253.8487              3535.8884              3612.5881
 Red. masses --      1.0967                 1.0729                 1.0641
 Frc consts  --      6.8409                 7.9035                 8.1818
 IR Inten    --      5.4400                 2.6313                99.9761

 - Thermochemistry -
 -------------------
 Temperature   298.150 Kelvin.  Pressure   1.00000 Atm.
 Atom     1 has atomic number  6 and mass  12.00000

 Molecular mass:   239.18853 amu.
 Principal axes and moments of inertia in atomic units:
                           1         2         3
     Eigenvalues --  2600.645677743.698249496.74571
           X            0.99995  -0.01011   0.00063
           Y            0.01011   0.99993   0.00616
           Z           -0.00069  -0.00615   0.99998
 This molecule is an asymmetric top.
 Rotational symmetry number  1.
 Warning -- assumption of classical behavior for rotation
           may cause significant error
 Rotational temperatures (Kelvin)      0.03330     0.01119     0.00912
 Rotational constants (GHZ):           0.69396     0.23306     0.19004
 Zero-point vibrational energy     989622.4 (Joules/Mol)
                                  236.52544 (Kcal/Mol)
 Warning -- explicit consideration of  30 degrees of freedom as
           vibrations may cause significant error
 Vibrational temperatures:     23.96    32.76    62.92    85.30   101.41
          (Kelvin)            159.08   179.64   191.02   229.04   262.38
                              276.65   314.94   327.65   340.74   352.28
                              373.26   387.51   417.69   448.03   461.64
                              496.45   542.46   557.26   581.11   607.68
                              629.34   651.48   737.80   850.10   892.92
                              916.40   938.50   963.71  1006.16  1051.84
                             1148.82  1156.06  1178.41  1259.46  1280.69
                             1324.22  1356.10  1366.17  1368.36  1398.77
                             1423.65  1471.81  1478.32  1497.83  1500.10
                             1527.25  1546.69  1558.41  1572.09  1590.22
                             1628.89  1664.73  1689.43  1698.07  1770.11
                             1773.27  1788.74  1816.51  1841.82  1852.20
                             1876.05  1898.95  1949.18  1971.89  1994.53
                             2035.61  2040.02  2054.07  2059.17  2073.14
                             2082.71  2102.48  2103.80  2119.36  2161.85
                             2162.41  2164.63  2171.31  2179.88  2184.56
                             2187.10  2191.57  2192.70  2214.02  2218.85
                             2226.27  2232.67  2238.07  2351.93  2427.05
                             4284.68  4292.71  4346.53  4366.57  4369.70
                             4374.81  4377.58  4379.36  4382.96  4389.44
                             4402.35  4447.88  4448.17  4454.79  4462.03
                             4465.00  4469.46  4475.65  4476.52  4517.26
                             4522.22  4532.03  4681.56  5087.35  5197.71

 Zero-point correction=                           0.376927 (Hartree/Particle)
 Thermal correction to Energy=                    0.396592
 Thermal correction to Enthalpy=                  0.397536
 Thermal correction to Gibbs Free Energy=         0.327662
 Sum of electronic and zero-point Energies=           -753.417178
 Sum of electronic and thermal Energies=              -753.397513
 Sum of electronic and thermal Enthalpies=            -753.396569
 Sum of electronic and thermal Free Energies=         -753.466443

                     E (Thermal)             CV                S
                      KCal/Mol        Cal/Mol-Kelvin    Cal/Mol-Kelvin
 Total                  248.865             73.590            147.062
 Electronic               0.000              0.000              0.000
 Translational            0.889              2.981             42.318
 Rotational               0.889              2.981             33.614
 Vibrational            247.088             67.628             71.131
 Vibration     1          0.593              1.986              6.998
 Vibration     2          0.593              1.985              6.377
 Vibration     3          0.595              1.980              5.082
 Vibration     4          0.597              1.974              4.481
 Vibration     5          0.598              1.968              4.140
 Vibration     6          0.606              1.941              3.259
 Vibration     7          0.610              1.928              3.024
 Vibration     8          0.613              1.921              2.906
 Vibration     9          0.621              1.892              2.559
 Vibration    10          0.630              1.864              2.304
 Vibration    11          0.634              1.851              2.206
 Vibration    12          0.647              1.812              1.968
 Vibration    13          0.651              1.799              1.897
 Vibration    14          0.656              1.784              1.827
 Vibration    15          0.660              1.771              1.767
 Vibration    16          0.668              1.747              1.666
 Vibration    17          0.674              1.730              1.600
 Vibration    18          0.686              1.692              1.472
 Vibration    19          0.700              1.652              1.355
 Vibration    20          0.706              1.634              1.306
 Vibration    21          0.723              1.585              1.189
 Vibration    22          0.748              1.519              1.051
 Vibration    23          0.756              1.497              1.010
 Vibration    24          0.769              1.462              0.948
 Vibration    25          0.785              1.422              0.884
 Vibration    26          0.798              1.389              0.835
 Vibration    27          0.811              1.355              0.787
 Vibration    28          0.868              1.222              0.627
 Vibration    29          0.948              1.051              0.466
 Vibration    30          0.981              0.988              0.416

                           ! Non-Optimized Parameters !
 Normal termination of Gaussian 16 at Mon Dec 14 17:07:15 2020.

 ----------------------------------------------------------------------
 # B3LYP/6-311++G(d,p) empiricaldispersion=gd3bj scf=xqc pop=npa geom=c
 heck
 ----------------------------------------------------------------------

 ---------------------------------------
 CID_109919794_JID_7279_Energie_neutraal
 ---------------------------------------
 Structure from the checkpoint file:  "JID_7279.chk"
 Charge =  0 Multiplicity = 1

 SCF Done:  E(RB3LYP) =  -754.015799769     A.U. after   14 cycles
 Normal termination of Gaussian 16 at Mon Dec 14 17:16:12 2020.

 ----------------------------------------------------------------------
 # B3LYP/6-311++G(d,p) empiricaldispersion=gd3bj scf=xqc pop=npa geom=c
 heck
 ----------------------------------------------------------------------

 -------------------------------------
 CID_109919794_JID_7279_Energie_kation
 -------------------------------------
 Structure from the checkpoint file:  "JID_7279.chk"
 Charge =  1 Multiplicity = 2

 SCF Done:  E(UB3LYP) =  -753.735462885     A.U. after   23 cycles
 Normal termination of Gaussian 16 at Mon Dec 14 17:37:49 2020.
 Gaussian 16:  ES64L-G16RevA.03 25-Dec-2016

 ----------------------------------------------------------------------
 # B3LYP/6-311++G(d,p) empiricaldispersion=gd3bj scf=xqc pop=npa geom=c
 heck
 ----------------------------------------------------------------------

 ------------------------------------
 CID_109919794_JID_7279_Energie_anion
 ------------------------------------
 Structure from the checkpoint file:  "JID_7279.chk"
 Charge = -1 Multiplicity = 2

                         Standard orientation:
 ---------------------------------------------------------------------
 Center     Atomic      Atomic             Coordinates (Angstroms)
 Number     Number       Type             X           Y           Z
 ---------------------------------------------------------------------
      1          6           0       -4.900407   -2.035514   -0.598980
      2          6           0       -3.786800   -1.152318   -0.162597
      3          6           0       -2.583311   -1.372498    0.435381
      4          6           0       -1.954324   -0.089208    0.606299
      5          6           0       -2.823522    0.830378    0.089862
      6          8           0       -3.944169    0.194034   -0.379567
      7          6           0       -2.776243    2.309360   -0.048884
      8          6           0       -0.597793    0.184474    1.185664
      9          7           0        0.293908    0.755866    0.170717
     10          6           0        1.674256    1.028653    0.606456
     11          6           0        2.552844   -0.194085    0.958658
     12          6           0        3.124447   -1.146339   -0.128084
     13          6           0        4.337133   -0.523584   -0.845219
     14          6           0        3.607957   -2.414967    0.602965
     15          6           0        2.073110   -1.564031   -1.171826
     16          6           0        2.249705    2.026936   -0.407701
     17          8           0        1.411191    3.162468   -0.491184
     18          1           0       -5.837315   -1.788296   -0.084364
     19          1           0       -5.086068   -1.948463   -1.676763
     20          1           0       -4.654059   -3.077611   -0.377644
     21          1           0       -2.181348   -2.332631    0.731067
     22          1           0       -2.778582    2.617057   -1.102218
     23          1           0       -3.637330    2.786516    0.434772
     24          1           0       -1.860952    2.689917    0.410547
     25          1           0       -0.659039    0.909615    2.008069
     26          1           0       -0.209088   -0.748878    1.626097
     27          1           0        0.287522    0.153770   -0.648062
     28          1           0        1.565481    1.595186    1.542109
     29          1           0        3.404623    0.176832    1.546047
     30          1           0        1.967341   -0.804568    1.658938
     31          1           0        5.109948   -0.232628   -0.123818
     32          1           0        4.783837   -1.247314   -1.537564
     33          1           0        4.069084    0.362757   -1.425824
     34          1           0        2.772274   -2.937206    1.084203
     35          1           0        4.083322   -3.112566   -0.096639
     36          1           0        4.340863   -2.166989    1.380067
     37          1           0        1.171421   -1.969057   -0.696687
     38          1           0        1.781594   -0.728167   -1.817432
     39          1           0        2.478882   -2.344910   -1.825990
     40          1           0        3.245465    2.362268   -0.099206
     41          1           0        2.351705    1.545964   -1.394909
     42          1           0        0.514562    2.772771   -0.475777
 ---------------------------------------------------------------------

 SCF Done:  E(UB3LYP) =  -754.004608508     A.U. after   33 cycles
 SCF Done:  E(UB3LYP) =  -754.004608508     a.u. after    1 cycles

 The electronic state is 2-A.
 Alpha  occ. eigenvalues --  -19.09082 -19.02393 -14.21676 -10.13292 -10.13204
 Alpha  occ. eigenvalues --  -10.12367 -10.11427 -10.11352 -10.09615 -10.09204
 Alpha  occ. eigenvalues --  -10.08626 -10.08093 -10.07664 -10.07254 -10.06879
 Alpha  occ. eigenvalues --  -10.06693 -10.06344  -1.01535  -0.93167  -0.82577
 Alpha  occ. eigenvalues --   -0.73692  -0.71729  -0.70558  -0.66195  -0.64695
 Alpha  occ. eigenvalues --   -0.60377  -0.59839  -0.59186  -0.58131  -0.55811
 Alpha  occ. eigenvalues --   -0.51233  -0.49997  -0.45532  -0.44852  -0.41744
 Alpha  occ. eigenvalues --   -0.40650  -0.38970  -0.37936  -0.37764  -0.36786
 Alpha  occ. eigenvalues --   -0.35665  -0.35538  -0.34258  -0.33900  -0.33575
 Alpha  occ. eigenvalues --   -0.32831  -0.31971  -0.31655  -0.30835  -0.30635
 Alpha  occ. eigenvalues --   -0.30179  -0.29861  -0.29368  -0.28923  -0.27834
 Alpha  occ. eigenvalues --   -0.27706  -0.27421  -0.26157  -0.24530  -0.23637
 Alpha  occ. eigenvalues --   -0.22763  -0.22321  -0.18514  -0.18225  -0.15182
 Alpha  occ. eigenvalues --   -0.12303   0.03941
 Alpha virt. eigenvalues --    0.05629   0.06597   0.07043   0.07407   0.07908
 Alpha virt. eigenvalues --    0.08410   0.08817   0.09279   0.09562   0.09857
 Alpha virt. eigenvalues --    0.10300   0.10325   0.10714   0.11025   0.11811

  Beta  occ. eigenvalues --  -19.09073 -19.02389 -14.21669 -10.13291 -10.13200
  Beta  occ. eigenvalues --  -10.12358 -10.11412 -10.11347 -10.09614 -10.09195
  Beta  occ. eigenvalues --  -10.08590 -10.08093 -10.07647 -10.07235 -10.06848
  Beta  occ. eigenvalues --  -10.06667 -10.06311  -1.01523  -0.93161  -0.82564
  Beta  occ. eigenvalues --   -0.73673  -0.71714  -0.70538  -0.66174  -0.64663
  Beta  occ. eigenvalues --   -0.60332  -0.59790  -0.59137  -0.58091  -0.55773
  Beta  occ. eigenvalues --   -0.51204  -0.49966  -0.45512  -0.44799  -0.41724
  Beta  occ. eigenvalues --   -0.40617  -0.38949  -0.37905  -0.37741  -0.36756
  Beta  occ. eigenvalues --   -0.35628  -0.35509  -0.34229  -0.33871  -0.33551
  Beta  occ. eigenvalues --   -0.32803  -0.31949  -0.31629  -0.30806  -0.30606
  Beta  occ. eigenvalues --   -0.30154  -0.29832  -0.29343  -0.28894  -0.27808
  Beta  occ. eigenvalues --   -0.27676  -0.27397  -0.26135  -0.24507  -0.23605
  Beta  occ. eigenvalues --   -0.22739  -0.22290  -0.18500  -0.18215  -0.15168
  Beta  occ. eigenvalues --   -0.12281
  Beta virt. eigenvalues --    0.05873   0.06384   0.06900   0.07420   0.07942
  Beta virt. eigenvalues --    0.08138   0.08765   0.09178   0.09608   0.09891
  Beta virt. eigenvalues --    0.10009   0.10509   0.10652   0.10868   0.11185

 Mulliken charges and spin densities:
               1          2
     1  C    2.280372  -2.884194
     2  C   -1.387647   1.285143
     3  C    0.035729   0.132295
     4  C    0.054676   0.505026
     5  C   -0.781965   0.245855
     6  O   -0.017873   0.039419
     7  C    0.232883  -0.769824
     8  C   -0.187249  -0.378925
     9  N   -0.044110   0.023014
    10  C    0.125871  -0.064867
    11  C    0.434018  -0.998621
    12  C   -1.676592   2.339114
    13  C    0.207123  -0.824156
    14  C    0.597824  -1.142523
    15  C    0.331631  -0.996216
    16  C    0.007289  -0.579742
    17  O   -0.226551   0.005013
    18  H   -0.126038   0.275959
    19  H   -0.158507   0.314043
    20  H   -0.355643   0.531484
    21  H   -0.733943   0.911323
    22  H    0.052399   0.114066
    23  H    0.059572   0.091920
    24  H    0.190326  -0.030800
    25  H   -0.067437   0.204811
    26  H    0.088690   0.054271
    27  H    0.332236  -0.165278
    28  H    0.093313   0.138600
    29  H    0.006602   0.184688
    30  H    0.131340   0.037935
    31  H   -0.170741   0.319776
    32  H   -0.112829   0.261779
    33  H    0.113463   0.008574
    34  H   -0.203599   0.348968
    35  H   -0.166939   0.307693
    36  H   -0.233500   0.373425
    37  H    0.153062   0.015902
    38  H   -0.156277   0.287042
    39  H   -0.136734   0.304453
    40  H    0.034390   0.127179
    41  H    0.132399   0.029751
    42  H    0.248968   0.016626
 Sum of Mulliken charges =  -1.00000   1.00000

 Dipole moment (field-independent basis, Debye):
    X=             -0.7246    Y=              5.1854    Z=              0.2205  Tot=              5.2404
 Quadrupole moment (field-independent basis, Debye-Ang):
   XX=           -205.3282   YY=           -171.4551   ZZ=           -141.4705
   XY=             -7.8613   XZ=             -3.6355   YZ=              1.7748

 Summary of Natural Population Analysis:

                                       Natural Population
                Natural  -----------------------------------------------
    Atom  No    Charge         Core      Valence    Rydberg      Total
 -----------------------------------------------------------------------
      C    1   -0.30392      0.99963     2.29925    0.00505     3.30392
      C    2    0.15147      0.99948     1.83435    0.01470     2.84853
      C    3   -0.14398      0.99945     2.13510    0.00943     3.14398
      C    4   -0.06930      0.99945     2.05899    0.01086     3.06930
      C    5    0.15677      0.99939     1.83103    0.01281     2.84323
      O    6   -0.24450      0.99985     3.23657    0.00809     4.24450
      C    7   -0.30543      0.99963     2.30060    0.00520     3.30543
      C    8   -0.09126      0.99959     2.08119    0.01048     3.09126
      N    9   -0.35617      0.99973     2.84552    0.01092     3.85617
      C   10   -0.02110      0.99959     2.00840    0.01312     3.02110
      C   11   -0.19615      0.99957     2.18551    0.01107     3.19615
      C   12   -0.05078      0.99959     2.03932    0.01187     3.05078
      C   13   -0.28479      0.99962     2.27780    0.00737     3.28479
      C   14   -0.28193      0.99963     2.27478    0.00751     3.28193
      C   15   -0.28888      0.99962     2.28132    0.00794     3.28888
      C   16   -0.00967      0.99956     1.99843    0.01167     3.00967
      O   17   -0.37625      0.99990     3.36967    0.00668     4.37625
      H   18    0.10498      0.00000     0.39355    0.00147     0.39502
      H   19    0.10636      0.00000     0.39209    0.00155     0.39364
      H   20    0.11109      0.00000     0.38744    0.00148     0.38891
      H   21    0.11162      0.00000     0.38700    0.00138     0.38838
      H   22    0.10570      0.00000     0.39284    0.00146     0.39430
      H   23    0.10339      0.00000     0.39528    0.00132     0.39661
      H   24    0.11059      0.00000     0.38844    0.00098     0.38941
      H   25    0.09581      0.00000     0.40283    0.00135     0.40419
      H   26    0.08918      0.00000     0.40883    0.00200     0.41082
      H   27    0.18107      0.00000     0.31557    0.00336     0.31893
      H   28    0.09475      0.00000     0.40357    0.00168     0.40525
      H   29    0.10263      0.00000     0.39622    0.00115     0.39737
      H   30    0.10248      0.00000     0.39590    0.00163     0.39752
      H   31    0.10001      0.00000     0.39899    0.00100     0.39999
      H   32    0.10007      0.00000     0.39905    0.00089     0.39993
      H   33    0.09795      0.00000     0.40088    0.00117     0.40205
      H   34    0.10140      0.00000     0.39735    0.00125     0.39860
      H   35    0.09946      0.00000     0.39946    0.00108     0.40054
      H   36    0.09990      0.00000     0.39892    0.00117     0.40010
      H   37    0.10249      0.00000     0.39602    0.00149     0.39751
      H   38    0.09458      0.00000     0.40420    0.00122     0.40542
      H   39    0.10327      0.00000     0.39571    0.00102     0.39673
      H   40    0.08759      0.00000     0.41133    0.00109     0.41241
      H   41    0.07421      0.00000     0.42428    0.00151     0.42579
      H   42    0.23530      0.00000     0.26124    0.00347     0.26470
 =======================================================================
   * Total *    0.00000     16.99328    48.80481    0.20192    66.00000

 Normal termination of Gaussian 16 at Mon Dec 14 18:06:08 2020.
