 Gaussian 16, Revision A.03,

 -----------------------------------------------------------
 # opt freq B3LYP/6-31G(d) empiricaldispersion=gd3bj scf=xqc
 -----------------------------------------------------------

 ------------------------------
 CID_81492720_JID_5499_neutraal
 ------------------------------
 Symbolic Z-matrix:
 Charge =  0 Multiplicity = 1

 SCF Done:  E(RB3LYP) =  -619.387386758     A.U. after   12 cycles
 SCF Done:  E(RB3LYP) =  -619.391584782     A.U. after   10 cycles
 SCF Done:  E(RB3LYP) =  -619.391231821     A.U. after   10 cycles
 SCF Done:  E(RB3LYP) =  -619.392039163     A.U. after   10 cycles
 SCF Done:  E(RB3LYP) =  -619.392132174     A.U. after   10 cycles
 SCF Done:  E(RB3LYP) =  -619.392203356     A.U. after    9 cycles
 SCF Done:  E(RB3LYP) =  -619.392220477     A.U. after    9 cycles
 SCF Done:  E(RB3LYP) =  -619.392227987     A.U. after    8 cycles
 SCF Done:  E(RB3LYP) =  -619.392231203     A.U. after    7 cycles
 SCF Done:  E(RB3LYP) =  -619.392234867     A.U. after    8 cycles
 SCF Done:  E(RB3LYP) =  -619.393995519     A.U. after   10 cycles
 SCF Done:  E(RB3LYP) =  -619.393974285     A.U. after   10 cycles
 SCF Done:  E(RB3LYP) =  -619.394000949     A.U. after    9 cycles
 SCF Done:  E(RB3LYP) =  -619.394001881     A.U. after    7 cycles
 SCF Done:  E(RB3LYP) =  -619.394002150     A.U. after    7 cycles
 SCF Done:  E(RB3LYP) =  -619.394002172     A.U. after    6 cycles
 Optimization completed.
    -- Stationary point found.
 Normal termination of Gaussian 16 at Thu Dec 10 16:53:16 2020.

 --------------------------------------------------------------------
 #N Geom=AllCheck Guess=TCheck SCRF=Check GenChk RB3LYP/6-31G(d) Freq
 --------------------------------------------------------------------

 Structure from the checkpoint file:  "JID_5499.chk"
 ------------------------------
 CID_81492720_JID_5499_neutraal
 ------------------------------
 Charge =  0 Multiplicity = 1

 SCF Done:  E(RB3LYP) =  -619.394002172     A.U. after    1 cycles

  Exact polarizability: 155.285   1.242 143.189   3.520  -0.913 124.360
 Approx polarizability: 201.525  -0.907 200.727   0.315   1.218 189.210

                      1                      2                      3
                      A                      A                      A
 Frequencies --     39.0587                65.2219                80.9504
 Red. masses --      3.5002                 2.9749                 2.7741
 Frc consts  --      0.0031                 0.0075                 0.0107
 IR Inten    --      0.3869                 0.4969                 0.4263

                      4                      5                      6
                      A                      A                      A
 Frequencies --     98.6818               161.9449               188.3819
 Red. masses --      2.9115                 2.9644                 2.5990
 Frc consts  --      0.0167                 0.0458                 0.0543
 IR Inten    --      0.2011                 0.2221                 0.1878

                      7                      8                      9
                      A                      A                      A
 Frequencies --    197.3577               224.2811               248.3404
 Red. masses --      2.6856                 2.2310                 2.4310
 Frc consts  --      0.0616                 0.0661                 0.0883
 IR Inten    --      0.6223                 0.2483                 0.5978

                     10                     11                     12
                      A                      A                      A
 Frequencies --    305.1247               310.3419               330.5149
 Red. masses --      2.2950                 2.0137                 1.7829
 Frc consts  --      0.1259                 0.1143                 0.1148
 IR Inten    --      7.4027                 2.4207                 1.5706

                     13                     14                     15
                      A                      A                      A
 Frequencies --    380.5392               402.9965               432.8597
 Red. masses --      2.2639                 2.7598                 2.8435
 Frc consts  --      0.1932                 0.2641                 0.3139
 IR Inten    --      4.9330                 0.0906                 0.7270

                     16                     17                     18
                      A                      A                      A
 Frequencies --    467.7638               501.9944               527.4356
 Red. masses --      3.1036                 2.2336                 2.4633
 Frc consts  --      0.4001                 0.3316                 0.4037
 IR Inten    --      0.9823                 1.6994                 1.3570

                     19                     20                     21
                      A                      A                      A
 Frequencies --    574.2710               596.8443               638.8570
 Red. masses --      2.8151                 2.2614                 2.4037
 Frc consts  --      0.5470                 0.4746                 0.5780
 IR Inten    --      1.1504                 3.3173                 1.6287

                     22                     23                     24
                      A                      A                      A
 Frequencies --    680.0802               779.4044               798.1593
 Red. masses --      3.4408                 2.1043                 1.9825
 Frc consts  --      0.9376                 0.7532                 0.7441
 IR Inten    --      2.9872                 0.9954                 1.9600

                     25                     26                     27
                      A                      A                      A
 Frequencies --    821.3704               850.7999               856.6686
 Red. masses --      1.7194                 1.9783                 2.1050
 Frc consts  --      0.6835                 0.8437                 0.9102
 IR Inten    --      0.9713                 2.9704                32.6781

                     28                     29                     30
                      A                      A                      A
 Frequencies --    865.3910               874.0408               888.2509
 Red. masses --      1.7110                 1.8821                 1.8719
 Frc consts  --      0.7550                 0.8472                 0.8702
 IR Inten    --     65.6472                 1.1177                24.7280

                     31                     32                     33
                      A                      A                      A
 Frequencies --    897.5696               919.5375               944.9497
 Red. masses --      1.8885                 1.7385                 2.6094
 Frc consts  --      0.8964                 0.8661                 1.3728
 IR Inten    --     15.0487                 1.7889                22.4768

                     34                     35                     36
                      A                      A                      A
 Frequencies --    949.9498               953.6420               970.9050
 Red. masses --      2.4159                 2.1977                 2.0239
 Frc consts  --      1.2845                 1.1776                 1.1241
 IR Inten    --      1.8149                 6.3919                 4.9084

                     37                     38                     39
                      A                      A                      A
 Frequencies --    988.3054              1010.6627              1017.4022
 Red. masses --      2.1056                 1.6729                 1.4570
 Frc consts  --      1.2118                 1.0068                 0.8886
 IR Inten    --      7.9347                 1.3500                 1.9494

                     40                     41                     42
                      A                      A                      A
 Frequencies --   1051.3508              1063.8645              1075.1657
 Red. masses --      1.6348                 2.0621                 1.4764
 Frc consts  --      1.0647                 1.3751                 1.0056
 IR Inten    --      2.1342                10.1813                 1.2614

                     43                     44                     45
                      A                      A                      A
 Frequencies --   1076.5254              1089.5959              1106.9077
 Red. masses --      1.7905                 2.1113                 3.4442
 Frc consts  --      1.2225                 1.4768                 2.4864
 IR Inten    --      1.6438                 8.0078                16.3360

                     46                     47                     48
                      A                      A                      A
 Frequencies --   1114.2730              1124.6358              1134.8535
 Red. masses --      2.2759                 2.2733                 1.8889
 Frc consts  --      1.6649                 1.6941                 1.4333
 IR Inten    --      3.2530                 0.6924                 4.5564

                     49                     50                     51
                      A                      A                      A
 Frequencies --   1169.4321              1196.7874              1199.8508
 Red. masses --      1.8397                 1.8522                 1.7212
 Frc consts  --      1.4824                 1.5630                 1.4600
 IR Inten    --      3.0203                11.7609                15.7939

                     52                     53                     54
                      A                      A                      A
 Frequencies --   1214.4799              1222.9224              1246.1552
 Red. masses --      1.4367                 1.6467                 1.2480
 Frc consts  --      1.2485                 1.4510                 1.1418
 IR Inten    --      3.0964                14.5738                 7.1858

                     55                     56                     57
                      A                      A                      A
 Frequencies --   1254.4272              1274.5774              1280.0539
 Red. masses --      1.4063                 1.9426                 1.3480
 Frc consts  --      1.3038                 1.8594                 1.3014
 IR Inten    --      4.6306                29.4585                 0.9408

                     58                     59                     60
                      A                      A                      A
 Frequencies --   1287.2735              1302.7878              1307.1411
 Red. masses --      1.3199                 1.3970                 1.3739
 Frc consts  --      1.2887                 1.3970                 1.3831
 IR Inten    --      3.5799                 3.5840                 1.9043

                     61                     62                     63
                      A                      A                      A
 Frequencies --   1320.9166              1335.4648              1343.1571
 Red. masses --      1.3132                 1.2583                 1.2942
 Frc consts  --      1.3499                 1.3222                 1.3756
 IR Inten    --      0.8908                 4.1688                 2.1699

                     64                     65                     66
                      A                      A                      A
 Frequencies --   1348.8058              1357.5533              1363.1093
 Red. masses --      1.3531                 1.2826                 1.2959
 Frc consts  --      1.4503                 1.3927                 1.4187
 IR Inten    --      2.9991                 0.7014                 1.9009

                     67                     68                     69
                      A                      A                      A
 Frequencies --   1367.6867              1376.6639              1388.8352
 Red. masses --      1.2799                 1.3199                 1.3689
 Frc consts  --      1.4106                 1.4738                 1.5557
 IR Inten    --      2.7241                 9.9258                11.1706

                     70                     71                     72
                      A                      A                      A
 Frequencies --   1389.8903              1396.1789              1408.9247
 Red. masses --      1.4143                 1.3549                 1.5094
 Frc consts  --      1.6097                 1.5561                 1.7653
 IR Inten    --      2.3057                 2.8641                10.6876

                     73                     74                     75
                      A                      A                      A
 Frequencies --   1415.9141              1423.8147              1424.8131
 Red. masses --      1.3740                 1.3638                 1.6263
 Frc consts  --      1.6230                 1.6289                 1.9452
 IR Inten    --      0.1991                25.3122                 3.0608

                     76                     77                     78
                      A                      A                      A
 Frequencies --   1440.9063              1483.9963              1512.5719
 Red. masses --      1.4676                 1.1526                 1.0856
 Frc consts  --      1.7952                 1.4956                 1.4633
 IR Inten    --      8.6226                 6.7958                 3.9541

                     79                     80                     81
                      A                      A                      A
 Frequencies --   1515.1644              1516.2481              1520.6165
 Red. masses --      1.0933                 1.0897                 1.0847
 Frc consts  --      1.4788                 1.4761                 1.4778
 IR Inten    --      0.7708                 4.9815                 0.7102

                     82                     83                     84
                      A                      A                      A
 Frequencies --   1523.2608              1524.2008              1529.5092
 Red. masses --      1.0903                 1.0956                 1.0906
 Frc consts  --      1.4906                 1.4997                 1.5033
 IR Inten    --      7.1361                 0.8802                 6.0313

                     85                     86                     87
                      A                      A                      A
 Frequencies --   1534.3274              1541.1187              1569.3899
 Red. masses --      1.0992                 1.0974                 1.0876
 Frc consts  --      1.5246                 1.5357                 1.5783
 IR Inten    --      2.6570                 2.2755                 0.3318

                     88                     89                     90
                      A                      A                      A
 Frequencies --   2902.5120              3002.0241              3006.9091
 Red. masses --      1.0779                 1.0707                 1.0815
 Frc consts  --      5.3502                 5.6854                 5.7611
 IR Inten    --     54.4287                75.1215                12.6667

                     91                     92                     93
                      A                      A                      A
 Frequencies --   3011.0510              3024.3034              3025.1078
 Red. masses --      1.0796                 1.0707                 1.0717
 Frc consts  --      5.7672                 5.7698                 5.7786
 IR Inten    --     16.1840                14.9003                65.8762

                     94                     95                     96
                      A                      A                      A
 Frequencies --   3026.9607              3030.7422              3038.9162
 Red. masses --      1.0656                 1.0610                 1.0812
 Frc consts  --      5.7527                 5.7419                 5.8828
 IR Inten    --     11.3110                35.0986                10.1016

                     97                     98                     99
                      A                      A                      A
 Frequencies --   3042.4800              3044.6172              3052.4984
 Red. masses --      1.0623                 1.0679                 1.0752
 Frc consts  --      5.7936                 5.8326                 5.9028
 IR Inten    --     19.5290                65.6830                54.9382

                    100                    101                    102
                      A                      A                      A
 Frequencies --   3067.3529              3069.9357              3072.0119
 Red. masses --      1.0954                 1.0692                 1.0976
 Frc consts  --      6.0724                 5.9370                 6.1031
 IR Inten    --     38.3477                45.3812                58.0900

                    103                    104                    105
                      A                      A                      A
 Frequencies --   3075.2083              3076.8474              3077.9990
 Red. masses --      1.0625                 1.0929                 1.1021
 Frc consts  --      5.9203                 6.0960                 6.1517
 IR Inten    --     31.3613                62.8814                27.7086

                    106                    107                    108
                      A                      A                      A
 Frequencies --   3084.8310              3106.6533              3111.1354
 Red. masses --      1.1047                 1.1001                 1.0948
 Frc consts  --      6.1937                 6.2557                 6.2436
 IR Inten    --    101.2383                64.4761                33.6418

                    109                    110                    111
                      A                      A                      A
 Frequencies --   3118.9258              3129.2277              3452.4041
 Red. masses --      1.1068                 1.0991                 1.0740
 Frc consts  --      6.3435                 6.3412                 7.5425
 IR Inten    --     29.0507                47.2658                 5.1324

 - Thermochemistry -
 -------------------
 Temperature   298.150 Kelvin.  Pressure   1.00000 Atm.
 Atom     1 has atomic number  6 and mass  12.00000

 Molecular mass:   208.19395 amu.
 Principal axes and moments of inertia in atomic units:
                           1         2         3
     Eigenvalues --  2010.360824196.453964771.54563
           X            0.99994   0.00645   0.00887
           Y           -0.00627   0.99978  -0.02008
           Z           -0.00900   0.02002   0.99976
 This molecule is an asymmetric top.
 Rotational symmetry number  1.
 Warning -- assumption of classical behavior for rotation
           may cause significant error
 Rotational temperatures (Kelvin)      0.04308     0.02064     0.01815
 Rotational constants (GHZ):           0.89772     0.43006     0.37823
 Zero-point vibrational energy     957955.2 (Joules/Mol)
                                  228.95679 (Kcal/Mol)
 Warning -- explicit consideration of  20 degrees of freedom as
           vibrations may cause significant error
 Vibrational temperatures:     56.20    93.84   116.47   141.98   233.00
          (Kelvin)            271.04   283.95   322.69   357.31   439.01
                              446.51   475.54   547.51   579.82   622.79
                              673.01   722.26   758.86   826.25   858.73
                              919.17   978.48  1121.39  1148.37  1181.77
                             1224.11  1232.56  1245.10  1257.55  1277.99
                             1291.40  1323.01  1359.57  1366.77  1372.08
                             1396.92  1421.95  1454.12  1463.81  1512.66
                             1530.66  1546.92  1548.88  1567.69  1592.59
                             1603.19  1618.10  1632.80  1682.55  1721.91
                             1726.32  1747.37  1759.51  1792.94  1804.84
                             1833.83  1841.71  1852.10  1874.42  1880.68
                             1900.50  1921.44  1932.50  1940.63  1953.22
                             1961.21  1967.80  1980.71  1998.22  1999.74
                             2008.79  2027.13  2037.18  2048.55  2049.99
                             2073.14  2135.14  2176.25  2179.98  2181.54
                             2187.83  2191.63  2192.98  2200.62  2207.55
                             2217.33  2258.00  4176.07  4319.24  4326.27
                             4332.23  4351.30  4352.46  4355.12  4360.56
                             4372.32  4377.45  4380.53  4391.86  4413.24
                             4416.95  4419.94  4424.54  4426.90  4428.55
                             4438.38  4469.78  4476.23  4487.44  4502.26
                             4967.24

 Zero-point correction=                           0.364866 (Hartree/Particle)
 Thermal correction to Energy=                    0.378550
 Thermal correction to Enthalpy=                  0.379494
 Thermal correction to Gibbs Free Energy=         0.324447
 Sum of electronic and zero-point Energies=           -619.029136
 Sum of electronic and thermal Energies=              -619.015452
 Sum of electronic and thermal Enthalpies=            -619.014508
 Sum of electronic and thermal Free Energies=         -619.069555

                     E (Thermal)             CV                S
                      KCal/Mol        Cal/Mol-Kelvin    Cal/Mol-Kelvin
 Total                  237.544             55.784            115.858
 Electronic               0.000              0.000              0.000
 Translational            0.889              2.981             41.904
 Rotational               0.889              2.981             32.065
 Vibrational            235.766             49.823             41.889
 Vibration     1          0.594              1.981              5.306
 Vibration     2          0.597              1.971              4.293
 Vibration     3          0.600              1.962              3.868
 Vibration     4          0.604              1.950              3.480
 Vibration     5          0.622              1.889              2.527
 Vibration     6          0.633              1.856              2.244
 Vibration     7          0.637              1.844              2.158
 Vibration     8          0.649              1.804              1.924
 Vibration     9          0.662              1.766              1.742
 Vibration    10          0.696              1.664              1.389
 Vibration    11          0.699              1.654              1.361
 Vibration    12          0.713              1.615              1.258
 Vibration    13          0.750              1.512              1.037
 Vibration    14          0.768              1.464              0.952
 Vibration    15          0.794              1.399              0.849
 Vibration    16          0.825              1.322              0.744
 Vibration    17          0.857              1.246              0.653
 Vibration    18          0.882              1.189              0.593
 Vibration    19          0.931              1.087              0.496
 Vibration    20          0.955              1.038              0.455

 Optimization completed.
    -- Stationary point found.
 Normal termination of Gaussian 16 at Thu Dec 10 17:09:50 2020.

 ----------------------------------------------------------------------
 # B3LYP/6-311++G(d,p) empiricaldispersion=gd3bj scf=xqc pop=npa geom=c
 heck
 ----------------------------------------------------------------------

 --------------------------------------
 CID_81492720_JID_5499_Energie_neutraal
 --------------------------------------
 Structure from the checkpoint file:  "JID_5499.chk"
 Charge =  0 Multiplicity = 1

 SCF Done:  E(RB3LYP) =  -619.560855259     A.U. after   14 cycles
 Normal termination of Gaussian 16 at Thu Dec 10 17:17:13 2020.

 ----------------------------------------------------------------------
 # B3LYP/6-311++G(d,p) empiricaldispersion=gd3bj scf=xqc pop=npa geom=c
 heck
 ----------------------------------------------------------------------

 ------------------------------------
 CID_81492720_JID_5499_Energie_kation
 ------------------------------------
 Structure from the checkpoint file:  "JID_5499.chk"
 Charge =  1 Multiplicity = 2

 SCF Done:  E(UB3LYP) =  -619.295187892     A.U. after   20 cycles
 Normal termination of Gaussian 16 at Thu Dec 10 17:30:25 2020.
 Gaussian 16:  ES64L-G16RevA.03 25-Dec-2016

 ----------------------------------------------------------------------
 # B3LYP/6-311++G(d,p) empiricaldispersion=gd3bj scf=xqc pop=npa geom=c
 heck
 ----------------------------------------------------------------------

 -----------------------------------
 CID_81492720_JID_5499_Energie_anion
 -----------------------------------
 Structure from the checkpoint file:  "JID_5499.chk"
 Charge = -1 Multiplicity = 2

                         Standard orientation:
 ---------------------------------------------------------------------
 Center     Atomic      Atomic             Coordinates (Angstroms)
 Number     Number       Type             X           Y           Z
 ---------------------------------------------------------------------
      1          6           0       -3.390620   -1.165889   -0.423356
      2          6           0       -2.338014   -1.930359    0.401311
      3          6           0       -1.467483   -0.997589    1.264913
      4          6           0       -0.848296    0.061622    0.355719
      5          6           0       -1.948435    0.868705   -0.339812
      6          6           0       -2.778240   -0.022773   -1.256626
      7          6           0       -1.152505    2.042854   -0.914704
      8          6           0       -0.146720    2.347186    0.216276
      9          7           0       -0.052442    1.097904    0.997145
     10          6           0        1.221588    0.775665    1.610490
     11          6           0        2.330901    0.105727    0.756058
     12          6           0        2.197397   -1.433370    0.543541
     13          6           0        2.527750   -1.650880   -0.958176
     14          7           0        3.194620   -0.430247   -1.444863
     15          6           0        2.530286    0.638357   -0.684872
     16          1           0       -3.931096   -1.864077   -1.074164
     17          1           0       -4.135602   -0.737543    0.262340
     18          1           0       -2.833296   -2.677406    1.033091
     19          1           0       -1.682945   -2.488350   -0.283466
     20          1           0       -2.073537   -0.496987    2.031438
     21          1           0       -0.702998   -1.580217    1.793286
     22          1           0       -0.281578   -0.472418   -0.434038
     23          1           0       -2.606999    1.259714    0.451020
     24          1           0       -2.137228   -0.435920   -2.048818
     25          1           0       -3.570831    0.549658   -1.754813
     26          1           0       -1.769983    2.908357   -1.174927
     27          1           0       -0.624645    1.724128   -1.823083
     28          1           0       -0.509641    3.163604    0.858854
     29          1           0        0.823078    2.668293   -0.185357
     30          1           0        1.615862    1.715395    2.016507
     31          1           0        1.038327    0.131332    2.481973
     32          1           0        3.269858    0.279955    1.300378
     33          1           0        2.902226   -1.971006    1.187000
     34          1           0        1.199399   -1.802463    0.792236
     35          1           0        1.600354   -1.778310   -1.531320
     36          1           0        3.151416   -2.529276   -1.148042
     37          1           0        4.170841   -0.465947   -1.147843
     38          1           0        1.561088    0.822894   -1.159512
     39          1           0        3.107029    1.567457   -0.733290
 ---------------------------------------------------------------------

 SCF Done:  E(UB3LYP) =  -619.546056477     A.U. after   30 cycles

 The electronic state is 2-A.
 Alpha  occ. eigenvalues --  -14.19759 -14.19419 -10.09673 -10.09511 -10.09242
 Alpha  occ. eigenvalues --  -10.08725 -10.08540 -10.07528 -10.07475 -10.07308
 Alpha  occ. eigenvalues --  -10.07255 -10.07226 -10.06774 -10.06714 -10.05970
 Alpha  occ. eigenvalues --   -0.83537  -0.81488  -0.73454  -0.69208  -0.66238
 Alpha  occ. eigenvalues --   -0.64134  -0.62318  -0.61816  -0.56481  -0.52737
 Alpha  occ. eigenvalues --   -0.50175  -0.49254  -0.48462  -0.46690  -0.44991
 Alpha  occ. eigenvalues --   -0.40560  -0.39101  -0.38367  -0.37237  -0.35779
 Alpha  occ. eigenvalues --   -0.34577  -0.34071  -0.33240  -0.32460  -0.32220
 Alpha  occ. eigenvalues --   -0.31941  -0.29108  -0.28774  -0.27245  -0.27127
 Alpha  occ. eigenvalues --   -0.26411  -0.25543  -0.25357  -0.25121  -0.23984
 Alpha  occ. eigenvalues --   -0.23614  -0.22944  -0.22468  -0.21750  -0.21282
 Alpha  occ. eigenvalues --   -0.20237  -0.13400  -0.10352   0.04288
 Alpha virt. eigenvalues --    0.05754   0.06608   0.07253   0.07961   0.08133
 Alpha virt. eigenvalues --    0.08650   0.09204   0.09746   0.10386   0.10681
 Alpha virt. eigenvalues --    0.10904   0.10950   0.11909   0.12338   0.12758

  Beta  occ. eigenvalues --  -14.19760 -14.19401 -10.09666 -10.09505 -10.09232
  Beta  occ. eigenvalues --  -10.08711 -10.08526 -10.07521 -10.07471 -10.07298
  Beta  occ. eigenvalues --  -10.07238 -10.07212 -10.06766 -10.06698 -10.05952
  Beta  occ. eigenvalues --   -0.83528  -0.81455  -0.73435  -0.69185  -0.66206
  Beta  occ. eigenvalues --   -0.64105  -0.62294  -0.61781  -0.56450  -0.52707
  Beta  occ. eigenvalues --   -0.50120  -0.49222  -0.48426  -0.46659  -0.44956
  Beta  occ. eigenvalues --   -0.40493  -0.39078  -0.38344  -0.37206  -0.35761
  Beta  occ. eigenvalues --   -0.34540  -0.34045  -0.33213  -0.32422  -0.32193
  Beta  occ. eigenvalues --   -0.31919  -0.29087  -0.28748  -0.27213  -0.27103
  Beta  occ. eigenvalues --   -0.26386  -0.25517  -0.25326  -0.25101  -0.23957
  Beta  occ. eigenvalues --   -0.23591  -0.22922  -0.22440  -0.21712  -0.21255
  Beta  occ. eigenvalues --   -0.20214  -0.13376  -0.10343
  Beta virt. eigenvalues --    0.06249   0.07004   0.07076   0.07544   0.08519
  Beta virt. eigenvalues --    0.08684   0.09126   0.09423   0.09958   0.10866
  Beta virt. eigenvalues --    0.11078   0.11317   0.11348   0.12122   0.12500

 Mulliken charges and spin densities:
               1          2
     1  C    0.679969  -1.325962
     2  C   -0.042181  -0.268144
     3  C   -0.346946   0.390404
     4  C   -0.785153  -0.264453
     5  C    0.796701  -0.449541
     6  C   -0.823509   0.565894
     7  C   -0.056665  -0.532408
     8  C    0.016457  -0.188334
     9  N    0.332609   0.054945
    10  C   -0.784084   0.170766
    11  C    0.336323   0.122914
    12  C    0.781445  -1.024273
    13  C   -0.266178  -0.304441
    14  N    0.062207  -0.037568
    15  C    0.069434  -0.883351
    16  H   -0.370153   0.553301
    17  H    0.054449   0.066090
    18  H   -0.328398   0.514060
    19  H    0.105500   0.015915
    20  H   -0.030523   0.197285
    21  H    0.069497   0.090099
    22  H    0.799105  -0.609477
    23  H    0.059219   0.143331
    24  H    0.042194   0.088116
    25  H   -0.181094   0.360807
    26  H   -0.112019   0.280732
    27  H    0.066052   0.064667
    28  H   -0.040250   0.187904
    29  H    0.228142  -0.087013
    30  H   -0.227702   0.387821
    31  H    0.012393   0.134286
    32  H   -0.405600   0.621297
    33  H   -0.572246   0.765124
    34  H    0.168622  -0.074369
    35  H   -0.014875   0.176387
    36  H   -0.356313   0.515205
    37  H    0.073825   0.174351
    38  H    0.373577  -0.148471
    39  H   -0.383832   0.556104
 Sum of Mulliken charges =  -1.00000   1.00000

 Dipole moment (field-independent basis, Debye):
    X=             -3.3521    Y=              2.1810    Z=             -0.5592  Tot=              4.0381
 Quadrupole moment (field-independent basis, Debye-Ang):
   XX=           -186.8624   YY=           -141.5952   ZZ=           -134.8070
   XY=             -1.5564   XZ=             -4.2304   YZ=             -0.0269

 Summary of Natural Population Analysis:

                                       Natural Population
                Natural  -----------------------------------------------
    Atom  No    Charge         Core      Valence    Rydberg      Total
 -----------------------------------------------------------------------
      C    1   -0.18746      0.99963     2.17956    0.00826     3.18746
      C    2   -0.18919      0.99963     2.18118    0.00838     3.18919
      C    3   -0.19232      0.99960     2.18346    0.00926     3.19232
      C    4   -0.00235      0.99954     1.99067    0.01214     3.00235
      C    5   -0.10982      0.99956     2.09978    0.01048     3.10982
      C    6   -0.18690      0.99961     2.17833    0.00896     3.18690
      C    7   -0.19167      0.99961     2.18439    0.00767     3.19167
      C    8   -0.07720      0.99963     2.06819    0.00938     3.07720
      N    9   -0.28910      0.99969     2.77705    0.01235     3.78910
      C   10   -0.07531      0.99959     2.06289    0.01283     3.07531
      C   11   -0.12959      0.99959     2.11675    0.01325     3.12959
      C   12   -0.20298      0.99962     2.19442    0.00894     3.20298
      C   13   -0.09076      0.99964     2.08050    0.01062     3.09076
      N   14   -0.33393      0.99977     2.82198    0.01219     3.83393
      C   15   -0.09191      0.99961     2.08085    0.01146     3.09191
      H   16    0.09924      0.00000     0.39962    0.00114     0.40076
      H   17    0.09282      0.00000     0.40587    0.00131     0.40718
      H   18    0.10031      0.00000     0.39871    0.00098     0.39969
      H   19    0.09328      0.00000     0.40534    0.00138     0.40672
      H   20    0.09702      0.00000     0.40145    0.00154     0.40298
      H   21    0.09947      0.00000     0.39940    0.00113     0.40053
      H   22    0.08100      0.00000     0.41598    0.00302     0.41900
      H   23    0.09540      0.00000     0.40279    0.00181     0.40460
      H   24    0.09426      0.00000     0.40450    0.00124     0.40574
      H   25    0.09949      0.00000     0.39953    0.00098     0.40051
      H   26    0.10015      0.00000     0.39901    0.00084     0.39985
      H   27    0.09538      0.00000     0.40331    0.00131     0.40462
      H   28    0.08672      0.00000     0.41209    0.00119     0.41328
      H   29    0.09019      0.00000     0.40853    0.00128     0.40981
      H   30    0.09641      0.00000     0.40250    0.00109     0.40359
      H   31    0.09448      0.00000     0.40430    0.00121     0.40552
      H   32    0.09952      0.00000     0.39746    0.00302     0.40048
      H   33    0.10078      0.00000     0.39710    0.00212     0.39922
      H   34    0.09709      0.00000     0.40130    0.00160     0.40291
      H   35    0.08618      0.00000     0.41208    0.00174     0.41382
      H   36    0.09604      0.00000     0.40285    0.00111     0.40396
      H   37    0.16959      0.00000     0.32722    0.00320     0.33041
      H   38    0.08810      0.00000     0.40969    0.00221     0.41190
      H   39    0.09757      0.00000     0.40129    0.00114     0.40243
 =======================================================================
   * Total *   -0.00000     14.99431    42.81192    0.19377    58.00000

 Normal termination of Gaussian 16 at Thu Dec 10 17:50:50 2020.
