 Gaussian 16, Revision A.03,

 -----------------------------------------------------------
 # opt freq B3LYP/6-31G(d) empiricaldispersion=gd3bj scf=xqc
 -----------------------------------------------------------

 -------------------------------
 CID_106559248_JID_8144_neutraal
 -------------------------------
 Symbolic Z-matrix:
 Charge =  0 Multiplicity = 1

 SCF Done:  E(RB3LYP) =  -784.458049197     A.U. after   14 cycles
 SCF Done:  E(RB3LYP) =  -784.464016064     A.U. after   12 cycles
 SCF Done:  E(RB3LYP) =  -784.465295740     A.U. after   12 cycles
 SCF Done:  E(RB3LYP) =  -784.465786025     A.U. after   12 cycles
 SCF Done:  E(RB3LYP) =  -784.466008349     A.U. after   11 cycles
 SCF Done:  E(RB3LYP) =  -784.466081928     A.U. after   11 cycles
 SCF Done:  E(RB3LYP) =  -784.466116746     A.U. after   10 cycles
 SCF Done:  E(RB3LYP) =  -784.466125788     A.U. after    9 cycles
 SCF Done:  E(RB3LYP) =  -784.466131669     A.U. after    9 cycles
 SCF Done:  E(RB3LYP) =  -784.466138124     A.U. after    9 cycles
 SCF Done:  E(RB3LYP) =  -784.466208845     A.U. after    7 cycles
 SCF Done:  E(RB3LYP) =  -784.466208969     A.U. after    7 cycles
 SCF Done:  E(RB3LYP) =  -784.466209011     A.U. after    7 cycles
 SCF Done:  E(RB3LYP) =  -784.466209080     A.U. after    7 cycles
 SCF Done:  E(RB3LYP) =  -784.466209165     A.U. after    7 cycles
 SCF Done:  E(RB3LYP) =  -784.466209206     A.U. after    7 cycles
 Optimization completed on the basis of negligible forces.
    -- Stationary point found.
 Normal termination of Gaussian 16 at Fri Dec 11 19:11:44 2020.

 --------------------------------------------------------------------
 #N Geom=AllCheck Guess=TCheck SCRF=Check GenChk RB3LYP/6-31G(d) Freq
 --------------------------------------------------------------------

 Structure from the checkpoint file:  "JID_8144.chk"
 -------------------------------
 CID_106559248_JID_8144_neutraal
 -------------------------------
 Charge =  0 Multiplicity = 1

 SCF Done:  E(RB3LYP) =  -784.466209206     A.U. after    1 cycles

  Exact polarizability: 231.573 -11.113 180.253  18.015  15.102 103.482
 Approx polarizability: 319.637 -10.717 283.924  32.330  30.247 150.714

                      1                      2                      3
                      A                      A                      A
 Frequencies --     14.0096                17.0068                22.3160
 Red. masses --      4.4391                 1.0517                 2.2158
 Frc consts  --      0.0005                 0.0002                 0.0007
 IR Inten    --      0.0441                 0.1455                 0.1838

                      4                      5                      6
                      A                      A                      A
 Frequencies --     24.7372                55.2155                66.0151
 Red. masses --      1.2733                 3.2803                 3.6638
 Frc consts  --      0.0005                 0.0059                 0.0094
 IR Inten    --      0.1394                 3.3630                 1.0342

                      7                      8                      9
                      A                      A                      A
 Frequencies --     94.7408               108.3609               136.0979
 Red. masses --      3.9318                 2.1101                 2.8066
 Frc consts  --      0.0208                 0.0146                 0.0306
 IR Inten    --      1.9043                 3.4330                 2.8874

                     10                     11                     12
                      A                      A                      A
 Frequencies --    181.0207               191.8634               208.4799
 Red. masses --      3.3808                 2.0361                 3.0025
 Frc consts  --      0.0653                 0.0442                 0.0769
 IR Inten    --      0.7489                 0.7487                 5.1173

                     13                     14                     15
                      A                      A                      A
 Frequencies --    223.5966               231.2080               246.8915
 Red. masses --      3.2334                 3.3557                 3.7598
 Frc consts  --      0.0952                 0.1057                 0.1350
 IR Inten    --      1.7518                 0.4459                 0.2485

                     16                     17                     18
                      A                      A                      A
 Frequencies --    261.8105               303.0895               332.1558
 Red. masses --      3.7670                 3.1295                 4.2775
 Frc consts  --      0.1521                 0.1694                 0.2780
 IR Inten    --      0.8854                 0.9331                23.3102

                     19                     20                     21
                      A                      A                      A
 Frequencies --    342.2086               425.1010               442.1465
 Red. masses --      1.2411                 2.5401                 2.5109
 Frc consts  --      0.0856                 0.2705                 0.2892
 IR Inten    --     65.3759                 5.1013                 2.3193

                     22                     23                     24
                      A                      A                      A
 Frequencies --    456.2588               507.0782               523.0707
 Red. masses --      2.8501                 2.5786                 5.1196
 Frc consts  --      0.3496                 0.3906                 0.8253
 IR Inten    --      1.2541                13.9830                 0.8191

                     25                     26                     27
                      A                      A                      A
 Frequencies --    529.3151               550.7971               581.3438
 Red. masses --      3.1968                 4.6353                 4.1033
 Frc consts  --      0.5277                 0.8285                 0.8170
 IR Inten    --      0.5960                 2.3508                 1.3441

                     28                     29                     30
                      A                      A                      A
 Frequencies --    622.7922               648.7859               674.3751
 Red. masses --      4.7280                 3.5260                 1.3419
 Frc consts  --      1.0805                 0.8744                 0.3596
 IR Inten    --      1.3741                 2.1670                45.7375

                     31                     32                     33
                      A                      A                      A
 Frequencies --    705.0350               708.5705               720.1842
 Red. masses --      2.4780                 5.4131                 4.6229
 Frc consts  --      0.7257                 1.6013                 1.4127
 IR Inten    --      2.1819                 6.6676                 1.1267

                     34                     35                     36
                      A                      A                      A
 Frequencies --    830.6617               836.3740               838.3255
 Red. masses --      1.5412                 2.8107                 1.4497
 Frc consts  --      0.6265                 1.1584                 0.6003
 IR Inten    --      5.6352                 1.0866                20.9150

                     37                     38                     39
                      A                      A                      A
 Frequencies --    855.6329               861.4360               915.2056
 Red. masses --      2.6334                 1.2849                 1.3312
 Frc consts  --      1.1359                 0.5618                 0.6570
 IR Inten    --     11.5855                 3.4886                10.0678

                     40                     41                     42
                      A                      A                      A
 Frequencies --    938.0064               966.8260               983.1381
 Red. masses --      5.3471                 2.2969                 2.7611
 Frc consts  --      2.7719                 1.2650                 1.5724
 IR Inten    --      5.1744                 5.4850                 2.1187

                     43                     44                     45
                      A                      A                      A
 Frequencies --    989.2125               997.3420              1017.2703
 Red. masses --      3.2714                 2.5336                 4.8512
 Frc consts  --      1.8861                 1.4848                 2.9578
 IR Inten    --     21.0739                 0.5610                 2.5647

                     46                     47                     48
                      A                      A                      A
 Frequencies --   1049.9985              1064.1326              1072.8141
 Red. masses --      1.5353                 2.2714                 1.5084
 Frc consts  --      0.9973                 1.5154                 1.0229
 IR Inten    --      1.3473                 9.5006                 6.7476

                     49                     50                     51
                      A                      A                      A
 Frequencies --   1075.4784              1079.7415              1116.8189
 Red. masses --      1.5123                 2.0073                 1.2978
 Frc consts  --      1.0306                 1.3788                 0.9537
 IR Inten    --      2.4490                18.9944                12.2420

                     52                     53                     54
                      A                      A                      A
 Frequencies --   1151.8564              1174.0430              1189.5359
 Red. masses --      2.1851                 3.0515                 1.3063
 Frc consts  --      1.7081                 2.4782                 1.0891
 IR Inten    --     41.4678                46.8952                 2.3539

                     55                     56                     57
                      A                      A                      A
 Frequencies --   1201.0191              1210.4758              1216.2904
 Red. masses --      1.5316                 1.8963                 1.5983
 Frc consts  --      1.3017                 1.6371                 1.3931
 IR Inten    --      2.5549                27.3797                32.6915

                     58                     59                     60
                      A                      A                      A
 Frequencies --   1243.3419              1269.4016              1305.8458
 Red. masses --      2.0426                 1.9789                 2.5414
 Frc consts  --      1.8605                 1.8788                 2.5533
 IR Inten    --     24.1278                 5.6770                33.7965

                     61                     62                     63
                      A                      A                      A
 Frequencies --   1316.8949              1330.3619              1346.7548
 Red. masses --      2.1296                 1.2505                 1.7244
 Frc consts  --      2.1759                 1.3040                 1.8427
 IR Inten    --      6.8019                10.8611                 7.7479

                     64                     65                     66
                      A                      A                      A
 Frequencies --   1384.1345              1393.2408              1411.8655
 Red. masses --      2.6318                 3.1446                 1.7565
 Frc consts  --      2.9707                 3.5964                 2.0629
 IR Inten    --      7.1328                35.0562                66.0320

                     67                     68                     69
                      A                      A                      A
 Frequencies --   1421.0301              1428.3856              1440.1876
 Red. masses --      1.9754                 1.2942                 1.2390
 Frc consts  --      2.3503                 1.5558                 1.5141
 IR Inten    --      7.5891                17.6720                 0.1511

                     70                     71                     72
                      A                      A                      A
 Frequencies --   1443.2716              1486.5066              1501.1120
 Red. masses --      1.3040                 2.0220                 1.1781
 Frc consts  --      1.6003                 2.6325                 1.5640
 IR Inten    --      0.9182                 1.3794                12.1184

                     73                     74                     75
                      A                      A                      A
 Frequencies --   1501.7960              1514.0758              1514.8110
 Red. masses --      1.7005                 1.0452                 1.0447
 Frc consts  --      2.2597                 1.4118                 1.4124
 IR Inten    --     39.7422                 8.9574                 0.3700

                     76                     77                     78
                      A                      A                      A
 Frequencies --   1517.8902              1524.6291              1532.0141
 Red. masses --      1.0843                 1.1199                 1.1088
 Frc consts  --      1.4718                 1.5338                 1.5333
 IR Inten    --     16.8126                 5.8259                 0.7293

                     79                     80                     81
                      A                      A                      A
 Frequencies --   1534.6619              1536.6034              1541.5888
 Red. masses --      1.3816                 1.0757                 1.4490
 Frc consts  --      1.9172                 1.4964                 2.0289
 IR Inten    --     11.5835                 4.0064                93.7774

                     82                     83                     84
                      A                      A                      A
 Frequencies --   1565.2758              1595.1973              1628.4920
 Red. masses --      3.7388                 2.8091                 4.4637
 Frc consts  --      5.3971                 4.2116                 6.9746
 IR Inten    --     21.8254                70.5694               654.0064

                     85                     86                     87
                      A                      A                      A
 Frequencies --   1664.6929              1669.8994              3016.3777
 Red. masses --      5.3418                 4.9163                 1.0467
 Frc consts  --      8.7218                 8.0773                 5.6113
 IR Inten    --     66.5970               155.4454                28.1595

                     88                     89                     90
                      A                      A                      A
 Frequencies --   3023.5920              3036.1038              3043.1726
 Red. masses --      1.0572                 1.0689                 1.0370
 Frc consts  --      5.6942                 5.8052                 5.6582
 IR Inten    --     41.9001                49.9856                42.1089

                     91                     92                     93
                      A                      A                      A
 Frequencies --   3045.4408              3074.8639              3095.8358
 Red. masses --      1.0368                 1.1055                 1.1007
 Frc consts  --      5.6654                 6.1583                 6.2154
 IR Inten    --     29.5483                45.2074                20.2850

                     94                     95                     96
                      A                      A                      A
 Frequencies --   3098.0939              3098.5557              3122.0772
 Red. masses --      1.0933                 1.1008                 1.1014
 Frc consts  --      6.1830                 6.2270                 6.3252
 IR Inten    --     23.3530                20.9290                16.7685

                     97                     98                     99
                      A                      A                      A
 Frequencies --   3125.2735              3127.9127              3143.3617
 Red. masses --      1.1016                 1.0943                 1.1032
 Frc consts  --      6.3395                 6.3080                 6.4224
 IR Inten    --     21.7272                19.2024                31.7237

                    100                    101                    102
                      A                      A                      A
 Frequencies --   3152.8347              3174.2441              3245.8951
 Red. masses --      1.0895                 1.0899                 1.0913
 Frc consts  --      6.3806                 6.4704                 6.7741
 IR Inten    --     27.3357                19.4785                 9.3943

                    103                    104                    105
                      A                      A                      A
 Frequencies --   3264.8336              3298.4752              3629.3199
 Red. masses --      1.0923                 1.1036                 1.0754
 Frc consts  --      6.8599                 7.0743                 8.3457
 IR Inten    --     10.0774                 2.9564                12.6554

 - Thermochemistry -
 -------------------
 Temperature   298.150 Kelvin.  Pressure   1.00000 Atm.
 Atom     1 has atomic number  6 and mass  12.00000

 Molecular mass:   245.15281 amu.
 Principal axes and moments of inertia in atomic units:
                           1         2         3
     Eigenvalues --  2536.091267939.911199093.64677
           X            1.00000   0.00102   0.00024
           Y           -0.00103   0.99930   0.03738
           Z           -0.00020  -0.03738   0.99930
 This molecule is an asymmetric top.
 Rotational symmetry number  1.
 Warning -- assumption of classical behavior for rotation
           may cause significant error
 Rotational temperatures (Kelvin)      0.03415     0.01091     0.00952
 Rotational constants (GHZ):           0.71162     0.22730     0.19846
 Zero-point vibrational energy     826425.4 (Joules/Mol)
                                  197.52042 (Kcal/Mol)
 Warning -- explicit consideration of  27 degrees of freedom as
           vibrations may cause significant error
 Vibrational temperatures:     20.16    24.47    32.11    35.59    79.44
          (Kelvin)             94.98   136.31   155.91   195.81   260.45
                              276.05   299.96   321.71   332.66   355.22
                              376.69   436.08   477.90   492.36   611.63
                              636.15   656.45   729.57   752.58   761.57
                              792.47   836.42   896.06   933.46   970.28
                             1014.39  1019.47  1036.18  1195.14  1203.36
                             1206.16  1231.06  1239.41  1316.78  1349.58
                             1391.05  1414.52  1423.26  1434.95  1463.63
                             1510.71  1531.05  1543.54  1547.37  1553.51
                             1606.85  1657.26  1689.19  1711.48  1728.00
                             1741.60  1749.97  1788.89  1826.39  1878.82
                             1894.72  1914.09  1937.68  1991.46  2004.56
                             2031.36  2044.55  2055.13  2072.11  2076.55
                             2138.75  2159.77  2160.75  2178.42  2179.48
                             2183.91  2193.60  2204.23  2208.04  2210.83
                             2218.00  2252.08  2295.13  2343.04  2395.12
                             2402.61  4339.89  4350.27  4368.28  4378.45
                             4381.71  4424.04  4454.22  4457.47  4458.13
                             4491.97  4496.57  4500.37  4522.60  4536.23
                             4567.03  4670.12  4697.37  4745.77  5221.78

 Zero-point correction=                           0.314769 (Hartree/Particle)
 Thermal correction to Energy=                    0.333447
 Thermal correction to Enthalpy=                  0.334391
 Thermal correction to Gibbs Free Energy=         0.263511
 Sum of electronic and zero-point Energies=           -784.151440
 Sum of electronic and thermal Energies=              -784.132763
 Sum of electronic and thermal Enthalpies=            -784.131818
 Sum of electronic and thermal Free Energies=         -784.202699

                     E (Thermal)             CV                S
                      KCal/Mol        Cal/Mol-Kelvin    Cal/Mol-Kelvin
 Total                  209.241             67.825            149.180
 Electronic               0.000              0.000              0.000
 Translational            0.889              2.981             42.391
 Rotational               0.889              2.981             33.570
 Vibrational            207.463             61.864             73.219
 Vibration     1          0.593              1.986              7.341
 Vibration     2          0.593              1.986              6.956
 Vibration     3          0.593              1.985              6.417
 Vibration     4          0.593              1.985              6.212
 Vibration     5          0.596              1.975              4.621
 Vibration     6          0.597              1.970              4.269
 Vibration     7          0.603              1.953              3.560
 Vibration     8          0.606              1.943              3.298
 Vibration     9          0.614              1.917              2.858
 Vibration    10          0.630              1.866              2.318
 Vibration    11          0.634              1.851              2.210
 Vibration    12          0.642              1.828              2.057
 Vibration    13          0.649              1.805              1.930
 Vibration    14          0.653              1.793              1.870
 Vibration    15          0.661              1.768              1.753
 Vibration    16          0.669              1.743              1.650
 Vibration    17          0.695              1.668              1.400
 Vibration    18          0.714              1.611              1.250
 Vibration    19          0.721              1.591              1.202
 Vibration    20          0.787              1.416              0.875
 Vibration    21          0.802              1.378              0.820
 Vibration    22          0.814              1.347              0.777
 Vibration    23          0.862              1.234              0.641
 Vibration    24          0.878              1.199              0.603
 Vibration    25          0.884              1.185              0.589
 Vibration    26          0.906              1.138              0.543
 Vibration    27          0.938              1.072              0.483

 Optimization completed on the basis of negligible forces.
    -- Stationary point found.
 Normal termination of Gaussian 16 at Fri Dec 11 19:27:35 2020.

 ----------------------------------------------------------------------
 # B3LYP/6-311++G(d,p) empiricaldispersion=gd3bj scf=xqc pop=npa geom=c
 heck
 ----------------------------------------------------------------------

 ---------------------------------------
 CID_106559248_JID_8144_Energie_neutraal
 ---------------------------------------
 Structure from the checkpoint file:  "JID_8144.chk"
 Charge =  0 Multiplicity = 1

 SCF Done:  E(RB3LYP) =  -784.679853498     A.U. after   15 cycles
 Normal termination of Gaussian 16 at Fri Dec 11 19:33:57 2020.

 ----------------------------------------------------------------------
 # B3LYP/6-311++G(d,p) empiricaldispersion=gd3bj scf=xqc pop=npa geom=c
 heck
 ----------------------------------------------------------------------

 -------------------------------------
 CID_106559248_JID_8144_Energie_kation
 -------------------------------------
 Structure from the checkpoint file:  "JID_8144.chk"
 Charge =  1 Multiplicity = 2

 SCF Done:  E(UB3LYP) =  -784.428725608     A.U. after   21 cycles
 Normal termination of Gaussian 16 at Fri Dec 11 19:45:55 2020.
 Gaussian 16:  ES64L-G16RevA.03 25-Dec-2016

 ----------------------------------------------------------------------
 # B3LYP/6-311++G(d,p) empiricaldispersion=gd3bj scf=xqc pop=npa geom=c
 heck
 ----------------------------------------------------------------------

 ------------------------------------
 CID_106559248_JID_8144_Energie_anion
 ------------------------------------
 Structure from the checkpoint file:  "JID_8144.chk"
 Charge = -1 Multiplicity = 2

                         Standard orientation:
 ---------------------------------------------------------------------
 Center     Atomic      Atomic             Coordinates (Angstroms)
 Number     Number       Type             X           Y           Z
 ---------------------------------------------------------------------
      1          6           0        4.377817   -2.403456   -0.249724
      2          6           0        3.465476   -1.206518   -0.128982
      3          6           0        3.966226    0.026191    0.314062
      4          6           0        3.132629    1.137728    0.433547
      5          6           0        1.773845    1.029843    0.108587
      6          6           0        1.261894   -0.193490   -0.331426
      7          6           0        2.115534   -1.305213   -0.447708
      8          7           0       -0.090262   -0.393937   -0.649541
      9          6           0       -1.105473    0.540495   -0.713708
     10          7           0       -1.018192    1.844812   -0.540712
     11          6           0       -2.315664    2.314708   -0.671097
     12          6           0       -3.180648    1.291444   -0.927129
     13          7           0       -2.400015    0.135268   -0.962517
     14          6           0       -2.909128   -1.224814   -0.956687
     15          6           0       -2.932505   -1.851887    0.442677
     16          8           0       -3.785949   -1.150752    1.320212
     17          6           0       -3.130969   -0.211509    2.164432
     18          6           0        3.676591    2.466443    0.902148
     19          1           0        5.232437   -2.187824   -0.902218
     20          1           0        4.785086   -2.693184    0.726941
     21          1           0        3.851702   -3.270302   -0.661974
     22          1           0        5.020944    0.115770    0.564442
     23          1           0        1.114735    1.885296    0.177665
     24          1           0        1.712376   -2.257861   -0.788914
     25          1           0       -0.297310   -1.292137   -1.059840
     26          1           0       -2.532590    3.370014   -0.583156
     27          1           0       -4.246874    1.245468   -1.083792
     28          1           0       -3.926342   -1.192910   -1.354693
     29          1           0       -2.319513   -1.852041   -1.640265
     30          1           0       -3.319616   -2.875159    0.352282
     31          1           0       -1.911620   -1.909763    0.846827
     32          1           0       -2.321673   -0.691087    2.734579
     33          1           0       -2.722418    0.640534    1.609302
     34          1           0       -3.888403    0.151710    2.863594
     35          1           0        3.150523    2.816737    1.798337
     36          1           0        4.742720    2.400908    1.140395
     37          1           0        3.548965    3.239053    0.134232
 ---------------------------------------------------------------------

 SCF Done:  E(UB3LYP) =  -784.671398109     A.U. after   32 cycles

 The electronic state is 2-A.
 Alpha  occ. eigenvalues --  -19.03673 -14.27278 -14.25389 -14.19552 -10.17178
 Alpha  occ. eigenvalues --  -10.12701 -10.12416 -10.12216 -10.12126 -10.10247
 Alpha  occ. eigenvalues --  -10.09263 -10.08772 -10.08739 -10.08140 -10.07548
 Alpha  occ. eigenvalues --  -10.06944 -10.06665 -10.06175  -0.95050  -0.93467
 Alpha  occ. eigenvalues --   -0.85174  -0.79666  -0.75974  -0.68994  -0.67764
 Alpha  occ. eigenvalues --   -0.67072  -0.63169  -0.60408  -0.59730  -0.59124
 Alpha  occ. eigenvalues --   -0.54237  -0.52768  -0.51589  -0.48834  -0.46129
 Alpha  occ. eigenvalues --   -0.44503  -0.41680  -0.40755  -0.40133  -0.39533
 Alpha  occ. eigenvalues --   -0.38188  -0.37556  -0.36324  -0.34581  -0.34093
 Alpha  occ. eigenvalues --   -0.33487  -0.33084  -0.32565  -0.32504  -0.31951
 Alpha  occ. eigenvalues --   -0.31052  -0.30615  -0.29707  -0.28901  -0.28378
 Alpha  occ. eigenvalues --   -0.27584  -0.26171  -0.24698  -0.23257  -0.22448
 Alpha  occ. eigenvalues --   -0.19092  -0.18169  -0.16653  -0.15195  -0.14479
 Alpha  occ. eigenvalues --   -0.09853   0.04169
 Alpha virt. eigenvalues --    0.06068   0.06752   0.07415   0.07753   0.08061
 Alpha virt. eigenvalues --    0.08261   0.08377   0.09383   0.09564   0.09931
 Alpha virt. eigenvalues --    0.10081   0.10651   0.11084   0.11703   0.11935

  Beta  occ. eigenvalues --  -19.03665 -14.27281 -14.25355 -14.19550 -10.17172
  Beta  occ. eigenvalues --  -10.12670 -10.12415 -10.12210 -10.12069 -10.10238
  Beta  occ. eigenvalues --  -10.09260 -10.08772 -10.08741 -10.08133 -10.07527
  Beta  occ. eigenvalues --  -10.06914 -10.06654 -10.06169  -0.95034  -0.93453
  Beta  occ. eigenvalues --   -0.85130  -0.79647  -0.75959  -0.68978  -0.67728
  Beta  occ. eigenvalues --   -0.67038  -0.63144  -0.60371  -0.59699  -0.59089
  Beta  occ. eigenvalues --   -0.54192  -0.52732  -0.51556  -0.48799  -0.46087
  Beta  occ. eigenvalues --   -0.44431  -0.41637  -0.40726  -0.40083  -0.39500
  Beta  occ. eigenvalues --   -0.38159  -0.37521  -0.36300  -0.34564  -0.34062
  Beta  occ. eigenvalues --   -0.33472  -0.33062  -0.32542  -0.32469  -0.31907
  Beta  occ. eigenvalues --   -0.31025  -0.30588  -0.29655  -0.28875  -0.28355
  Beta  occ. eigenvalues --   -0.27550  -0.26153  -0.24671  -0.23229  -0.22426
  Beta  occ. eigenvalues --   -0.19078  -0.18161  -0.16616  -0.15169  -0.14462
  Beta  occ. eigenvalues --   -0.09826
  Beta virt. eigenvalues --    0.06040   0.06771   0.07189   0.07844   0.08023
  Beta virt. eigenvalues --    0.08191   0.08366   0.08701   0.09680   0.09869
  Beta virt. eigenvalues --    0.10258   0.10390   0.10829   0.11042   0.11743

 Mulliken charges and spin densities:
               1          2
     1  C    1.637273  -2.088151
     2  C   -0.916752   0.908153
     3  C   -0.398301   0.048341
     4  C   -0.374601   0.962265
     5  C    0.036326   0.135906
     6  C    1.365392  -1.658758
     7  C   -0.426800  -0.340057
     8  N    0.001650  -0.012643
     9  C   -0.400822  -0.031269
    10  N   -0.151447   0.007073
    11  C    0.526518  -0.564134
    12  C   -0.641025   0.538595
    13  N    0.025785   0.137009
    14  C    0.606241  -0.930716
    15  C    0.354186  -0.645360
    16  O   -0.144867   0.025816
    17  C   -0.124744  -0.197418
    18  C   -0.494995   0.000901
    19  H    0.008780   0.134915
    20  H   -0.011610   0.164121
    21  H   -0.184302   0.347241
    22  H    0.048248   0.058423
    23  H    0.361049  -0.100934
    24  H   -1.079913   1.195494
    25  H    0.515207  -0.140659
    26  H    0.118843   0.024902
    27  H   -0.130273   0.292938
    28  H   -0.200496   0.405689
    29  H   -0.996844   1.153406
    30  H   -0.734790   0.931329
    31  H    0.346887  -0.194476
    32  H    0.035902   0.081582
    33  H    0.107231   0.061112
    34  H    0.119071   0.040221
    35  H    0.103450   0.049637
    36  H   -0.018626   0.158812
    37  H    0.113171   0.040694
 Sum of Mulliken charges =  -1.00000   1.00000

 Dipole moment (field-independent basis, Debye):
    X=              1.6845    Y=              7.9079    Z=              3.8359  Tot=              8.9491
 Quadrupole moment (field-independent basis, Debye-Ang):
   XX=           -176.9900   YY=           -168.9373   ZZ=           -141.5656
   XY=            -10.0759   XZ=             -4.2341   YZ=             -9.7089

 Summary of Natural Population Analysis:

                                       Natural Population
                Natural  -----------------------------------------------
    Atom  No    Charge         Core      Valence    Rydberg      Total
 -----------------------------------------------------------------------
      C    1   -0.29062      0.99964     2.28597    0.00501     3.29062
      C    2   -0.00884      0.99952     1.99933    0.01000     3.00884
      C    3   -0.12162      0.99947     2.11371    0.00844     3.12162
      C    4   -0.00549      0.99953     1.99844    0.00752     3.00549
      C    5   -0.13197      0.99947     2.12445    0.00804     3.13197
      C    6    0.09516      0.99948     1.89385    0.01151     2.90484
      C    7   -0.11897      0.99948     2.10974    0.00975     3.11897
      N    8   -0.30244      0.99963     2.79419    0.00862     3.80244
      C    9    0.28951      0.99959     1.69255    0.01835     2.71049
      N   10   -0.28540      0.99969     2.77639    0.00932     3.78540
      C   11   -0.03603      0.99957     2.02345    0.01301     3.03603
      C   12   -0.04135      0.99955     2.02963    0.01217     3.04135
      N   13   -0.22330      0.99963     2.71193    0.01174     3.72330
      C   14   -0.09863      0.99960     2.08510    0.01392     3.09863
      C   15   -0.01470      0.99958     2.00100    0.01413     3.01470
      O   16   -0.30002      0.99989     3.29092    0.00922     4.30002
      C   17   -0.09741      0.99960     2.09011    0.00770     3.09741
      C   18   -0.29082      0.99964     2.28622    0.00496     3.29082
      H   19    0.10107      0.00000     0.39782    0.00111     0.39893
      H   20    0.10205      0.00000     0.39677    0.00118     0.39795
      H   21    0.10554      0.00000     0.39337    0.00110     0.39446
      H   22    0.09406      0.00000     0.40469    0.00125     0.40594
      H   23    0.12128      0.00000     0.37710    0.00162     0.37872
      H   24    0.10443      0.00000     0.39339    0.00218     0.39557
      H   25    0.20325      0.00000     0.29221    0.00454     0.29675
      H   26    0.09540      0.00000     0.40383    0.00078     0.40460
      H   27    0.10527      0.00000     0.39379    0.00094     0.39473
      H   28    0.10593      0.00000     0.39224    0.00184     0.39407
      H   29    0.10872      0.00000     0.38386    0.00743     0.39128
      H   30    0.09651      0.00000     0.40099    0.00250     0.40349
      H   31    0.08440      0.00000     0.41368    0.00192     0.41560
      H   32    0.07845      0.00000     0.42048    0.00107     0.42155
      H   33    0.08745      0.00000     0.41094    0.00161     0.41255
      H   34    0.08629      0.00000     0.41282    0.00089     0.41371
      H   35    0.10211      0.00000     0.39666    0.00123     0.39789
      H   36    0.09834      0.00000     0.40079    0.00087     0.40166
      H   37    0.10241      0.00000     0.39636    0.00123     0.39759
 =======================================================================
   * Total *   -0.00000     17.99254    47.78875    0.21871    66.00000

 Normal termination of Gaussian 16 at Fri Dec 11 20:04:24 2020.
