 Gaussian 16, Revision A.03,

 -----------------------------------------------------------
 # opt freq B3LYP/6-31G(d) empiricaldispersion=gd3bj scf=xqc
 -----------------------------------------------------------

 ------------------------------
 CID_72056173_JID_5016_neutraal
 ------------------------------
 Symbolic Z-matrix:
 Charge =  0 Multiplicity = 1

 SCF Done:  E(RB3LYP) =  -686.186872443     A.U. after   14 cycles
 SCF Done:  E(RB3LYP) =  -686.193452740     A.U. after   12 cycles
 SCF Done:  E(RB3LYP) =  -686.192851323     A.U. after   12 cycles
 SCF Done:  E(RB3LYP) =  -686.196181289     A.U. after   13 cycles
 SCF Done:  E(RB3LYP) =  -686.200084004     A.U. after   12 cycles
 SCF Done:  E(RB3LYP) =  -686.200959421     A.U. after   12 cycles
 SCF Done:  E(RB3LYP) =  -686.201682830     A.U. after   12 cycles
 SCF Done:  E(RB3LYP) =  -686.202331715     A.U. after   11 cycles
 SCF Done:  E(RB3LYP) =  -686.202546659     A.U. after   11 cycles
 SCF Done:  E(RB3LYP) =  -686.202628325     A.U. after   10 cycles
 SCF Done:  E(RB3LYP) =  -686.203548393     A.U. after    7 cycles
 SCF Done:  E(RB3LYP) =  -686.203548552     A.U. after    7 cycles
 SCF Done:  E(RB3LYP) =  -686.203548726     A.U. after    7 cycles
 SCF Done:  E(RB3LYP) =  -686.203548823     A.U. after    7 cycles
 SCF Done:  E(RB3LYP) =  -686.203548844     A.U. after    6 cycles
 Optimization completed.
    -- Stationary point found.
 Normal termination of Gaussian 16 at Thu Dec 10 15:06:26 2020.

 --------------------------------------------------------------------
 #N Geom=AllCheck Guess=TCheck SCRF=Check GenChk RB3LYP/6-31G(d) Freq
 --------------------------------------------------------------------

 Structure from the checkpoint file:  "JID_5016.chk"
 ------------------------------
 CID_72056173_JID_5016_neutraal
 ------------------------------
 Charge =  0 Multiplicity = 1

 SCF Done:  E(RB3LYP) =  -686.203548844     A.U. after    1 cycles

  Exact polarizability: 181.781  -6.654 164.122  -3.487  -3.098  83.678
 Approx polarizability: 250.413 -15.669 234.577  -4.102  -6.835 126.196

                      1                      2                      3
                      A                      A                      A
 Frequencies --     45.2238                59.4679                74.9710
 Red. masses --      3.2234                 2.2511                 1.8209
 Frc consts  --      0.0039                 0.0047                 0.0060
 IR Inten    --      0.6056                 1.8683                 1.9387

                      4                      5                      6
                      A                      A                      A
 Frequencies --     78.7565                86.2510               102.5008
 Red. masses --      1.4344                 1.6197                 1.6180
 Frc consts  --      0.0052                 0.0071                 0.0100
 IR Inten    --      0.1643                 0.4361                 0.4972

                      7                      8                      9
                      A                      A                      A
 Frequencies --    122.3755               132.9610               142.5630
 Red. masses --      2.4615                 1.4934                 2.4341
 Frc consts  --      0.0217                 0.0156                 0.0291
 IR Inten    --      6.7353                 2.6013                 1.1269

                     10                     11                     12
                      A                      A                      A
 Frequencies --    151.2922               194.0088               205.1384
 Red. masses --      2.1683                 2.3240                 4.0298
 Frc consts  --      0.0292                 0.0515                 0.0999
 IR Inten    --      2.2186                 4.2394                 2.2357

                     13                     14                     15
                      A                      A                      A
 Frequencies --    229.0828               248.3543               268.1439
 Red. masses --      3.1786                 2.3041                 5.7973
 Frc consts  --      0.0983                 0.0837                 0.2456
 IR Inten    --      2.6684                 5.6321                 3.9715

                     16                     17                     18
                      A                      A                      A
 Frequencies --    314.2583               334.0672               378.8653
 Red. masses --      3.5098                 2.7307                 2.8784
 Frc consts  --      0.2042                 0.1795                 0.2434
 IR Inten    --      0.0438                 1.9855                 0.1522

                     19                     20                     21
                      A                      A                      A
 Frequencies --    419.5267               444.0297               504.8149
 Red. masses --      2.9949                 3.1711                 2.0139
 Frc consts  --      0.3106                 0.3684                 0.3024
 IR Inten    --      5.7878                 4.0930                 0.5220

                     22                     23                     24
                      A                      A                      A
 Frequencies --    546.9990               576.8437               586.1467
 Red. masses --      3.7990                 3.8363                 3.5508
 Frc consts  --      0.6697                 0.7521                 0.7188
 IR Inten    --      6.5356                 9.4544                 5.7026

                     25                     26                     27
                      A                      A                      A
 Frequencies --    597.5842               630.5901               640.8085
 Red. masses --      3.5427                 3.5603                 1.1971
 Frc consts  --      0.7454                 0.8341                 0.2896
 IR Inten    --      0.8755                 9.5859                85.1709

                     28                     29                     30
                      A                      A                      A
 Frequencies --    708.4836               785.2032               800.3126
 Red. masses --      3.3279                 1.6145                 6.8900
 Frc consts  --      0.9842                 0.5865                 2.6001
 IR Inten    --      4.8244                 3.1922                48.4186

                     31                     32                     33
                      A                      A                      A
 Frequencies --    839.7242               882.8690               900.5009
 Red. masses --      3.5284                 2.9863                 3.2337
 Frc consts  --      1.4659                 1.3715                 1.5450
 IR Inten    --     15.1106                 0.3015                 3.2633

                     34                     35                     36
                      A                      A                      A
 Frequencies --    979.8522              1004.9657              1036.4055
 Red. masses --      2.9122                 4.7290                 2.0722
 Frc consts  --      1.6474                 2.8140                 1.3114
 IR Inten    --      8.5676                 2.2643                12.3486

                     37                     38                     39
                      A                      A                      A
 Frequencies --   1047.7967              1072.8736              1087.9315
 Red. masses --      2.0243                 1.5985                 1.9482
 Frc consts  --      1.3094                 1.0841                 1.3586
 IR Inten    --     30.8907                 5.0225                11.9851

                     40                     41                     42
                      A                      A                      A
 Frequencies --   1094.9079              1098.1008              1121.5709
 Red. masses --      1.4672                 2.0193                 3.3941
 Frc consts  --      1.0363                 1.4346                 2.5155
 IR Inten    --     29.5415                45.3894                58.4475

                     43                     44                     45
                      A                      A                      A
 Frequencies --   1138.6976              1163.4120              1168.2055
 Red. masses --      1.2454                 1.3347                 1.3672
 Frc consts  --      0.9515                 1.0644                 1.0993
 IR Inten    --      4.6786                20.7360                34.3427

                     46                     47                     48
                      A                      A                      A
 Frequencies --   1201.3714              1213.9241              1264.5771
 Red. masses --      1.8008                 1.7044                 1.7381
 Frc consts  --      1.5313                 1.4798                 1.6376
 IR Inten    --     15.2999                41.5916                20.0017

                     49                     50                     51
                      A                      A                      A
 Frequencies --   1275.7302              1288.0601              1307.6122
 Red. masses --      2.8058                 1.8678                 1.9582
 Frc consts  --      2.6905                 1.8258                 1.9727
 IR Inten    --     36.6979                23.7609                 0.3957

                     52                     53                     54
                      A                      A                      A
 Frequencies --   1339.5045              1357.0834              1398.3488
 Red. masses --      5.3305                 2.2971                 1.3638
 Frc consts  --      5.6352                 2.4925                 1.5713
 IR Inten    --     21.2097                45.4728                60.4649

                     55                     56                     57
                      A                      A                      A
 Frequencies --   1418.2369              1430.7264              1451.5316
 Red. masses --      1.2885                 1.2914                 1.8257
 Frc consts  --      1.5270                 1.5575                 2.2664
 IR Inten    --     24.9429                25.5315               265.4432

                     58                     59                     60
                      A                      A                      A
 Frequencies --   1461.9806              1466.6115              1485.0110
 Red. masses --      1.5202                 1.1946                 1.7338
 Frc consts  --      1.9144                 1.5139                 2.2528
 IR Inten    --     25.2654                 8.5607                 1.2876

                     61                     62                     63
                      A                      A                      A
 Frequencies --   1492.5172              1503.9698              1504.9330
 Red. masses --      1.4017                 1.0528                 1.1737
 Frc consts  --      1.8397                 1.4031                 1.5662
 IR Inten    --     30.5380                 7.6051                16.6531

                     64                     65                     66
                      A                      A                      A
 Frequencies --   1513.3977              1518.7534              1520.3319
 Red. masses --      1.1367                 1.0564                 1.0917
 Frc consts  --      1.5339                 1.4357                 1.4867
 IR Inten    --     10.6937                27.4039                80.1000

                     67                     68                     69
                      A                      A                      A
 Frequencies --   1523.1224              1530.6203              1540.2243
 Red. masses --      1.0699                 1.1132                 1.1077
 Frc consts  --      1.4623                 1.5365                 1.5482
 IR Inten    --      7.6405                13.5616                 7.5114

                     70                     71                     72
                      A                      A                      A
 Frequencies --   1541.8827              1556.1160              1567.5409
 Red. masses --      1.0913                 1.2063                 1.5583
 Frc consts  --      1.5286                 1.7210                 2.2559
 IR Inten    --     20.8986                26.7145               244.7590

                     73                     74                     75
                      A                      A                      A
 Frequencies --   1581.3067              1621.5627              1638.4681
 Red. masses --      3.1555                 4.9673                 4.9858
 Frc consts  --      4.6489                 7.6955                 7.8861
 IR Inten    --     21.2125               566.1999               736.2969

                     76                     77                     78
                      A                      A                      A
 Frequencies --   2971.5193              3020.0651              3020.9159
 Red. masses --      1.0713                 1.0478                 1.0487
 Frc consts  --      5.5731                 5.6309                 5.6385
 IR Inten    --     88.0798                59.2729                74.7666

                     79                     80                     81
                      A                      A                      A
 Frequencies --   3029.5594              3046.0420              3057.8487
 Red. masses --      1.0531                 1.0826                 1.0359
 Frc consts  --      5.6947                 5.9184                 5.7068
 IR Inten    --     66.7894                35.6974                18.7407

                     82                     83                     84
                      A                      A                      A
 Frequencies --   3062.9341              3084.7005              3094.0122
 Red. masses --      1.0696                 1.0937                 1.0915
 Frc consts  --      5.9119                 6.1315                 6.1560
 IR Inten    --     98.4337                34.0473                28.2695

                     85                     86                     87
                      A                      A                      A
 Frequencies --   3108.6955              3109.7453              3118.1780
 Red. masses --      1.1055                 1.0905                 1.1005
 Frc consts  --      6.2948                 6.2136                 6.3041
 IR Inten    --     34.7242                29.8967                12.4028

                     88                     89                     90
                      A                      A                      A
 Frequencies --   3141.6855              3152.0860              3197.1055
 Red. masses --      1.1034                 1.0991                 1.0954
 Frc consts  --      6.4164                 6.4342                 6.5969
 IR Inten    --     20.6399                20.2715                 2.0702

                     91                     92                     93
                      A                      A                      A
 Frequencies --   3199.0907              3254.4573              3499.1256
 Red. masses --      1.0967                 1.0909                 1.0675
 Frc consts  --      6.6130                 6.8074                 7.7007
 IR Inten    --      1.1557                 6.8519               526.5437

 - Thermochemistry -
 -------------------
 Temperature   298.150 Kelvin.  Pressure   1.00000 Atm.
 Atom     1 has atomic number  6 and mass  12.00000

 Molecular mass:   210.14806 amu.
 Principal axes and moments of inertia in atomic units:
                           1         2         3
     Eigenvalues --  2599.892953354.041155719.85330
           X            0.99936  -0.03539  -0.00476
           Y            0.03536   0.99936  -0.00613
           Z            0.00498   0.00595   0.99997
 This molecule is an asymmetric top.
 Rotational symmetry number  1.
 Warning -- assumption of classical behavior for rotation
           may cause significant error
 Rotational temperatures (Kelvin)      0.03331     0.02582     0.01514
 Rotational constants (GHZ):           0.69416     0.53808     0.31552
 Zero-point vibrational energy     752034.0 (Joules/Mol)
                                  179.74043 (Kcal/Mol)
 Warning -- explicit consideration of  25 degrees of freedom as
           vibrations may cause significant error
 Vibrational temperatures:     65.07    85.56   107.87   113.31   124.10
          (Kelvin)            147.48   176.07   191.30   205.12   217.68
                              279.14   295.15   329.60   357.33   385.80
                              452.15   480.65   545.10   603.61   638.86
                              726.32   787.01   829.95   843.33   859.79
                              907.28   921.98  1019.35  1129.73  1151.47
                             1208.18  1270.25  1295.62  1409.79  1445.92
                             1491.16  1507.55  1543.63  1565.29  1575.33
                             1579.92  1613.69  1638.33  1673.89  1680.79
                             1728.51  1746.57  1819.44  1835.49  1853.23
                             1881.36  1927.25  1952.54  2011.91  2040.53
                             2058.50  2088.43  2103.46  2110.13  2136.60
                             2147.40  2163.88  2165.26  2177.44  2185.15
                             2187.42  2191.43  2202.22  2216.04  2218.43
                             2238.90  2255.34  2275.15  2333.07  2357.39
                             4275.35  4345.20  4346.42  4358.86  4382.58
                             4399.56  4406.88  4438.20  4451.59  4472.72
                             4474.23  4486.36  4520.18  4535.15  4599.92
                             4602.78  4682.44  5034.46

 Zero-point correction=                           0.286435 (Hartree/Particle)
 Thermal correction to Energy=                    0.303081
 Thermal correction to Enthalpy=                  0.304025
 Thermal correction to Gibbs Free Energy=         0.241817
 Sum of electronic and zero-point Energies=           -685.917114
 Sum of electronic and thermal Energies=              -685.900468
 Sum of electronic and thermal Enthalpies=            -685.899524
 Sum of electronic and thermal Free Energies=         -685.961732

                     E (Thermal)             CV                S
                      KCal/Mol        Cal/Mol-Kelvin    Cal/Mol-Kelvin
 Total                  190.186             59.644            130.927
 Electronic               0.000              0.000              0.000
 Translational            0.889              2.981             41.932
 Rotational               0.889              2.981             32.278
 Vibrational            188.409             53.682             56.717
 Vibration     1          0.595              1.979              5.016
 Vibration     2          0.597              1.974              4.475
 Vibration     3          0.599              1.966              4.018
 Vibration     4          0.600              1.963              3.922
 Vibration     5          0.601              1.959              3.743
 Vibration     6          0.605              1.947              3.406
 Vibration     7          0.610              1.930              3.063
 Vibration     8          0.613              1.920              2.903
 Vibration     9          0.616              1.911              2.769
 Vibration    10          0.619              1.901              2.656
 Vibration    11          0.635              1.848              2.189
 Vibration    12          0.640              1.833              2.087
 Vibration    13          0.652              1.797              1.886
 Vibration    14          0.662              1.765              1.742
 Vibration    15          0.673              1.732              1.608
 Vibration    16          0.702              1.646              1.340
 Vibration    17          0.716              1.607              1.240
 Vibration    18          0.749              1.515              1.044
 Vibration    19          0.782              1.428              0.894
 Vibration    20          0.804              1.374              0.814
 Vibration    21          0.860              1.239              0.646
 Vibration    22          0.902              1.146              0.550
 Vibration    23          0.933              1.081              0.491
 Vibration    24          0.943              1.061              0.474
 Vibration    25          0.956              1.037              0.454

 Optimization completed.
    -- Stationary point found.
 Normal termination of Gaussian 16 at Thu Dec 10 15:16:57 2020.

 ----------------------------------------------------------------------
 # B3LYP/6-311++G(d,p) empiricaldispersion=gd3bj scf=xqc pop=npa geom=c
 heck
 ----------------------------------------------------------------------

 --------------------------------------
 CID_72056173_JID_5016_Energie_neutraal
 --------------------------------------
 Structure from the checkpoint file:  "JID_5016.chk"
 Charge =  0 Multiplicity = 1

 SCF Done:  E(RB3LYP) =  -686.398839470     A.U. after   14 cycles
 Normal termination of Gaussian 16 at Thu Dec 10 15:22:09 2020.

 ----------------------------------------------------------------------
 # B3LYP/6-311++G(d,p) empiricaldispersion=gd3bj scf=xqc pop=npa geom=c
 heck
 ----------------------------------------------------------------------

 ------------------------------------
 CID_72056173_JID_5016_Energie_kation
 ------------------------------------
 Structure from the checkpoint file:  "JID_5016.chk"
 Charge =  1 Multiplicity = 2

 SCF Done:  E(UB3LYP) =  -686.129611791     A.U. after   22 cycles
 Normal termination of Gaussian 16 at Thu Dec 10 15:35:34 2020.
 Gaussian 16:  ES64L-G16RevA.03 25-Dec-2016

 ----------------------------------------------------------------------
 # B3LYP/6-311++G(d,p) empiricaldispersion=gd3bj scf=xqc pop=npa geom=c
 heck
 ----------------------------------------------------------------------

 -----------------------------------
 CID_72056173_JID_5016_Energie_anion
 -----------------------------------
 Structure from the checkpoint file:  "JID_5016.chk"
 Charge = -1 Multiplicity = 2

                         Standard orientation:
 ---------------------------------------------------------------------
 Center     Atomic      Atomic             Coordinates (Angstroms)
 Number     Number       Type             X           Y           Z
 ---------------------------------------------------------------------
      1          6           0        1.846729    3.411646   -0.295006
      2          6           0        1.241346    2.046148   -0.108478
      3          6           0        2.037224    0.911653   -0.024167
      4          6           0        1.373801   -0.329366    0.120081
      5          7           0        0.029265   -0.381602    0.151120
      6          6           0       -0.644352    0.788217    0.116627
      7          7           0       -0.098387    2.008561   -0.021927
      8          7           0       -2.007389    0.706047    0.213891
      9          6           0       -2.835947    1.890564    0.062259
     10          6           0       -2.669004   -0.511342    0.688117
     11          6           0       -2.949461   -1.554622   -0.399101
     12          8           0       -1.809172   -2.303141   -0.765329
     13          7           0        2.053422   -1.511333    0.224156
     14          6           0        1.344649   -2.784415    0.174451
     15          6           0        3.491190   -1.536562    0.016570
     16          1           0        1.461469    3.869237   -1.212990
     17          1           0        1.557140    4.066550    0.534057
     18          1           0        2.938103    3.370709   -0.350257
     19          1           0        3.112691    0.989780   -0.092816
     20          1           0       -3.724419    1.641098   -0.528799
     21          1           0       -3.164344    2.281163    1.036548
     22          1           0       -2.264398    2.664730   -0.445434
     23          1           0       -2.061142   -0.972304    1.474165
     24          1           0       -3.616992   -0.197796    1.139435
     25          1           0       -3.699643   -2.262498   -0.021119
     26          1           0       -3.394572   -1.041049   -1.269564
     27          1           0       -1.039591   -1.708724   -0.629739
     28          1           0        1.206140   -3.139716   -0.856990
     29          1           0        1.921074   -3.531339    0.727620
     30          1           0        0.360968   -2.683702    0.628266
     31          1           0        3.771567   -1.277136   -1.014898
     32          1           0        3.997043   -0.844249    0.697424
     33          1           0        3.856854   -2.542863    0.228926
 ---------------------------------------------------------------------

 SCF Done:  E(UB3LYP) =  -686.386094384     A.U. after   33 cycles
 SCF Done:  E(UB3LYP) =  -686.386094385     a.u. after    1 cycles

 The electronic state is 2-A.
 Alpha  occ. eigenvalues --  -19.00659 -14.24796 -14.24358 -14.20463 -14.19390
 Alpha  occ. eigenvalues --  -10.17438 -10.15815 -10.12488 -10.12048 -10.11343
 Alpha  occ. eigenvalues --  -10.10332 -10.10220 -10.10031 -10.07358 -10.06576
 Alpha  occ. eigenvalues --   -0.91975  -0.90627  -0.86964  -0.82593  -0.78083
 Alpha  occ. eigenvalues --   -0.69453  -0.65434  -0.63860  -0.63107  -0.59962
 Alpha  occ. eigenvalues --   -0.58739  -0.55133  -0.49365  -0.48979  -0.43950
 Alpha  occ. eigenvalues --   -0.43660  -0.41292  -0.39883  -0.37865  -0.37644
 Alpha  occ. eigenvalues --   -0.36103  -0.35759  -0.35018  -0.33948  -0.33328
 Alpha  occ. eigenvalues --   -0.32055  -0.31509  -0.30960  -0.30527  -0.30447
 Alpha  occ. eigenvalues --   -0.29210  -0.29150  -0.28788  -0.28187  -0.24691
 Alpha  occ. eigenvalues --   -0.23043  -0.21159  -0.19914  -0.17105  -0.15710
 Alpha  occ. eigenvalues --   -0.13703  -0.11428   0.04125
 Alpha virt. eigenvalues --    0.05567   0.06705   0.07074   0.07915   0.08236
 Alpha virt. eigenvalues --    0.08420   0.09333   0.09702   0.10034   0.10402
 Alpha virt. eigenvalues --    0.10776   0.11076   0.11632   0.11892   0.12256

  Beta  occ. eigenvalues --  -19.00656 -14.24795 -14.24359 -14.20464 -14.19381
  Beta  occ. eigenvalues --  -10.17431 -10.15810 -10.12489 -10.12038 -10.11328
  Beta  occ. eigenvalues --  -10.10309 -10.10161 -10.10008 -10.07337 -10.06557
  Beta  occ. eigenvalues --   -0.91966  -0.90617  -0.86953  -0.82584  -0.78072
  Beta  occ. eigenvalues --   -0.69431  -0.65409  -0.63824  -0.63058  -0.59918
  Beta  occ. eigenvalues --   -0.58696  -0.55104  -0.49323  -0.48937  -0.43922
  Beta  occ. eigenvalues --   -0.43636  -0.41275  -0.39860  -0.37833  -0.37612
  Beta  occ. eigenvalues --   -0.36065  -0.35733  -0.34982  -0.33922  -0.33305
  Beta  occ. eigenvalues --   -0.32029  -0.31471  -0.30917  -0.30502  -0.30414
  Beta  occ. eigenvalues --   -0.29190  -0.29109  -0.28759  -0.28158  -0.24676
  Beta  occ. eigenvalues --   -0.23018  -0.21144  -0.19900  -0.17093  -0.15696
  Beta  occ. eigenvalues --   -0.13689  -0.11402
  Beta virt. eigenvalues --    0.06093   0.06779   0.07137   0.07313   0.08320
  Beta virt. eigenvalues --    0.08494   0.08990   0.09760   0.10241   0.10328
  Beta virt. eigenvalues --    0.10726   0.10888   0.11178   0.11842   0.12373

 Mulliken charges and spin densities:
               1          2
     1  C    0.786055  -1.311797
     2  C   -0.717165   0.931169
     3  C    0.200783  -0.415064
     4  C    0.603010  -0.536873
     5  N   -0.493711   0.091582
     6  C   -0.769394   0.379704
     7  N   -0.129174   0.028963
     8  N   -0.049834   0.089841
     9  C    0.653146  -0.948486
    10  C   -0.292561   0.019170
    11  C    0.114151  -0.438272
    12  O   -0.314837   0.008566
    13  N   -0.194157   0.255749
    14  C    0.036206  -0.441983
    15  C    1.498003  -1.768561
    16  H   -0.009358   0.162454
    17  H    0.017154   0.139816
    18  H   -0.404604   0.564005
    19  H   -0.111239   0.246257
    20  H   -0.071702   0.214421
    21  H   -0.178455   0.343971
    22  H    0.101121   0.088167
    23  H    0.086951   0.135450
    24  H   -0.321682   0.476634
    25  H   -0.020049   0.166986
    26  H    0.062680   0.078211
    27  H    0.354933  -0.010080
    28  H    0.030271   0.158616
    29  H   -0.152075   0.293780
    30  H    0.198274  -0.015854
    31  H   -0.294916   0.474367
    32  H   -0.619321   0.787953
    33  H   -0.598503   0.751139
 Sum of Mulliken charges =  -1.00000   1.00000

 Dipole moment (field-independent basis, Debye):
    X=             -5.2329    Y=              1.2003    Z=             -0.3449  Tot=              5.3799
 Quadrupole moment (field-independent basis, Debye-Ang):
   XX=           -178.9378   YY=           -147.2243   ZZ=           -121.0073
   XY=              7.3205   XZ=              0.3814   YZ=             -2.2912

 Summary of Natural Population Analysis:

                                       Natural Population
                Natural  -----------------------------------------------
    Atom  No    Charge         Core      Valence    Rydberg      Total
 -----------------------------------------------------------------------
      C    1   -0.29676      0.99963     2.29164    0.00550     3.29676
      C    2    0.13697      0.99955     1.84949    0.01399     2.86303
      C    3   -0.18986      0.99946     2.18210    0.00830     3.18986
      C    4    0.23904      0.99952     1.74683    0.01461     2.76096
      N    5   -0.32703      0.99962     2.81759    0.00982     3.82703
      C    6    0.32420      0.99956     1.65908    0.01716     2.67580
      N    7   -0.30189      0.99964     2.79190    0.01035     3.80189
      N    8   -0.24986      0.99964     2.73895    0.01127     3.74986
      C    9   -0.17566      0.99964     2.16783    0.00819     3.17566
      C   10   -0.09919      0.99961     2.08817    0.01141     3.09919
      C   11   -0.01025      0.99960     1.99969    0.01096     3.01025
      O   12   -0.38891      0.99989     3.38163    0.00738     4.38891
      N   13   -0.23756      0.99965     2.72697    0.01094     3.73756
      C   14   -0.17823      0.99963     2.16989    0.00871     3.17823
      C   15   -0.17650      0.99964     2.16838    0.00848     3.17650
      H   16    0.10713      0.00000     0.39174    0.00113     0.39287
      H   17    0.10767      0.00000     0.39114    0.00120     0.39233
      H   18    0.10253      0.00000     0.39637    0.00110     0.39747
      H   19    0.11242      0.00000     0.38602    0.00156     0.38758
      H   20    0.09132      0.00000     0.40754    0.00113     0.40868
      H   21    0.09019      0.00000     0.40854    0.00127     0.40981
      H   22    0.11568      0.00000     0.38291    0.00141     0.38432
      H   23    0.10457      0.00000     0.39403    0.00139     0.39543
      H   24    0.09927      0.00000     0.39922    0.00151     0.40073
      H   25    0.08044      0.00000     0.41821    0.00136     0.41956
      H   26    0.07338      0.00000     0.42516    0.00146     0.42662
      H   27    0.24566      0.00000     0.25031    0.00404     0.25434
      H   28    0.09294      0.00000     0.40600    0.00105     0.40706
      H   29    0.09620      0.00000     0.40272    0.00107     0.40380
      H   30    0.11196      0.00000     0.38629    0.00175     0.38804
      H   31    0.09534      0.00000     0.40255    0.00211     0.40466
      H   32    0.10190      0.00000     0.39569    0.00242     0.39810
      H   33    0.10289      0.00000     0.39501    0.00211     0.39711
 =======================================================================
   * Total *   -0.00000     14.99428    41.81960    0.18612    57.00000

 Normal termination of Gaussian 16 at Thu Dec 10 15:52:38 2020.
