 Gaussian 16, Revision A.03,

 -----------------------------------------------------------
 # opt freq B3LYP/6-31G(d) empiricaldispersion=gd3bj scf=xqc
 -----------------------------------------------------------

 ------------------------------
 CID_9334121_JID_10373_neutraal
 ------------------------------
 Symbolic Z-matrix:
 Charge =  0 Multiplicity = 1

 SCF Done:  E(RB3LYP) =  -953.584410255     A.U. after   15 cycles
 SCF Done:  E(RB3LYP) =  -953.589738238     A.U. after   14 cycles
 SCF Done:  E(RB3LYP) =  -953.590611143     A.U. after   14 cycles
 SCF Done:  E(RB3LYP) =  -953.591463858     A.U. after   13 cycles
 SCF Done:  E(RB3LYP) =  -953.592000819     A.U. after   12 cycles
 SCF Done:  E(RB3LYP) =  -953.592169183     A.U. after   12 cycles
 SCF Done:  E(RB3LYP) =  -953.592392991     A.U. after   12 cycles
 SCF Done:  E(RB3LYP) =  -953.592450453     A.U. after   12 cycles
 SCF Done:  E(RB3LYP) =  -953.592570550     A.U. after   12 cycles
 SCF Done:  E(RB3LYP) =  -953.592586332     A.U. after   11 cycles
 SCF Done:  E(RB3LYP) =  -953.592597301     A.U. after   10 cycles
 SCF Done:  E(RB3LYP) =  -953.592605810     A.U. after    9 cycles
 SCF Done:  E(RB3LYP) =  -953.592613921     A.U. after   10 cycles
 SCF Done:  E(RB3LYP) =  -953.592615204     A.U. after    9 cycles
 SCF Done:  E(RB3LYP) =  -953.592615565     A.U. after    8 cycles
 Optimization completed.
    -- Stationary point found.
 Normal termination of Gaussian 16 at Sat Dec 12 15:10:25 2020.

 --------------------------------------------------------------------
 #N Geom=AllCheck Guess=TCheck SCRF=Check GenChk RB3LYP/6-31G(d) Freq
 --------------------------------------------------------------------

 Structure from the checkpoint file:  "JID_10373.chk"
 ------------------------------
 CID_9334121_JID_10373_neutraal
 ------------------------------
 Charge =  0 Multiplicity = 1

 SCF Done:  E(RB3LYP) =  -953.592615565     A.U. after    1 cycles

  Exact polarizability: 175.495 -34.338 171.984   8.420  16.620 143.049
 Approx polarizability: 226.374 -59.975 277.391  14.993  45.498 248.778

                      1                      2                      3
                      A                      A                      A
 Frequencies --     19.7539                27.6654                32.4373
 Red. masses --      6.7065                 5.2364                 5.7807
 Frc consts  --      0.0015                 0.0024                 0.0036
 IR Inten    --      0.4145                 0.1462                 1.4001

                      4                      5                      6
                      A                      A                      A
 Frequencies --     37.0320                59.2515                72.5339
 Red. masses --      5.0977                 4.6369                 6.4405
 Frc consts  --      0.0041                 0.0096                 0.0200
 IR Inten    --      3.3980                 0.7601                 0.4663

                      7                      8                      9
                      A                      A                      A
 Frequencies --     95.1463                96.3315               130.9476
 Red. masses --      5.0937                 6.2048                 1.4770
 Frc consts  --      0.0272                 0.0339                 0.0149
 IR Inten    --      0.7106                 6.7106                 0.3549

                     10                     11                     12
                      A                      A                      A
 Frequencies --    132.7278               148.9662               172.2176
 Red. masses --      3.1231                 5.0278                 3.2814
 Frc consts  --      0.0324                 0.0657                 0.0573
 IR Inten    --      3.1498                 0.6042                 2.1344

                     13                     14                     15
                      A                      A                      A
 Frequencies --    182.4551               211.6402               256.6678
 Red. masses --      4.7818                 4.7192                 4.2217
 Frc consts  --      0.0938                 0.1245                 0.1639
 IR Inten    --      0.2050                 6.2231                 4.9945

                     16                     17                     18
                      A                      A                      A
 Frequencies --    278.2494               293.9164               312.7938
 Red. masses --      4.7642                 3.2736                 3.3795
 Frc consts  --      0.2173                 0.1666                 0.1948
 IR Inten    --      7.7340                 7.4201                 5.6955

                     19                     20                     21
                      A                      A                      A
 Frequencies --    354.3404               402.4697               409.3386
 Red. masses --      2.2397                 4.9378                 5.2625
 Frc consts  --      0.1657                 0.4713                 0.5195
 IR Inten    --      5.7958                 4.0583                 5.6822

                     22                     23                     24
                      A                      A                      A
 Frequencies --    429.9446               467.3577               473.7643
 Red. masses --      3.0115                 6.0867                 3.7450
 Frc consts  --      0.3280                 0.7833                 0.4952
 IR Inten    --      6.1023                 1.0813                 1.0203

                     25                     26                     27
                      A                      A                      A
 Frequencies --    488.5208               505.0384               549.0659
 Red. masses --      3.8074                 2.7527                 6.3582
 Frc consts  --      0.5354                 0.4137                 1.1294
 IR Inten    --      3.3726                 5.7967                 3.1940

                     28                     29                     30
                      A                      A                      A
 Frequencies --    569.5520               605.5946               622.0844
 Red. masses --      3.6742                 5.6634                 4.4788
 Frc consts  --      0.7022                 1.2237                 1.0212
 IR Inten    --     11.5756                 7.9121                 3.9959

                     31                     32                     33
                      A                      A                      A
 Frequencies --    634.8423               681.2108               700.2038
 Red. masses --      6.2941                 3.5527                 2.5282
 Frc consts  --      1.4946                 0.9714                 0.7303
 IR Inten    --      1.5708                19.4283                 9.2840

                     34                     35                     36
                      A                      A                      A
 Frequencies --    727.0041               731.2742               760.2856
 Red. masses --      3.0783                 1.7819                 2.0489
 Frc consts  --      0.9586                 0.5614                 0.6978
 IR Inten    --      9.5548                41.3658                50.5861

                     37                     38                     39
                      A                      A                      A
 Frequencies --    784.6390               807.4765               850.5854
 Red. masses --      2.5255                 1.3782                 3.9982
 Frc consts  --      0.9161                 0.5294                 1.7043
 IR Inten    --     44.2780                34.2102                 8.4694

                     40                     41                     42
                      A                      A                      A
 Frequencies --    859.1760               889.1405               895.0787
 Red. masses --      2.9152                 2.9798                 1.4524
 Frc consts  --      1.2679                 1.3879                 0.6856
 IR Inten    --      4.4207                 9.2270                25.3610

                     43                     44                     45
                      A                      A                      A
 Frequencies --    920.2568               923.3402               979.2236
 Red. masses --      1.3865                 4.0864                 2.1964
 Frc consts  --      0.6918                 2.0527                 1.2409
 IR Inten    --      1.8911                 7.7065                20.9162

                     46                     47                     48
                      A                      A                      A
 Frequencies --    990.0198              1016.3808              1029.5091
 Red. masses --      1.2866                 5.8667                 2.2770
 Frc consts  --      0.7430                 3.5707                 1.4219
 IR Inten    --      4.3616                 0.5376                 8.2503

                     49                     50                     51
                      A                      A                      A
 Frequencies --   1034.8135              1075.9983              1089.9660
 Red. masses --      2.1180                 2.3281                 3.3922
 Frc consts  --      1.3363                 1.5881                 2.3744
 IR Inten    --      3.4159                29.7679                72.2494

                     52                     53                     54
                      A                      A                      A
 Frequencies --   1095.1796              1138.4788              1148.4909
 Red. masses --      2.7579                 1.7102                 2.9368
 Frc consts  --      1.9489                 1.3060                 2.2823
 IR Inten    --      6.2610                 8.5662                67.2493

                     55                     56                     57
                      A                      A                      A
 Frequencies --   1180.2010              1183.6920              1186.7407
 Red. masses --      1.8296                 2.0271                 1.2818
 Frc consts  --      1.5015                 1.6734                 1.0636
 IR Inten    --     28.1177               114.9145                 3.2316

                     58                     59                     60
                      A                      A                      A
 Frequencies --   1218.8495              1221.2114              1241.4072
 Red. masses --      1.4553                 1.2026                 1.3782
 Frc consts  --      1.2738                 1.0567                 1.2514
 IR Inten    --      3.9442                 7.3401                43.9025

                     61                     62                     63
                      A                      A                      A
 Frequencies --   1277.1708              1278.2013              1304.6739
 Red. masses --      1.7865                 1.5035                 2.3123
 Frc consts  --      1.7169                 1.4473                 2.3189
 IR Inten    --     99.7422                70.2144               112.4745

                     64                     65                     66
                      A                      A                      A
 Frequencies --   1325.2421              1335.3295              1372.8998
 Red. masses --      1.2477                 1.6617                 2.2932
 Frc consts  --      1.2911                 1.7457                 2.5466
 IR Inten    --     19.8865                87.3931                 3.0238

                     67                     68                     69
                      A                      A                      A
 Frequencies --   1374.6380              1384.8596              1401.9387
 Red. masses --      1.6732                 1.6100                 1.4252
 Frc consts  --      1.8629                 1.8193                 1.6504
 IR Inten    --     43.9928                56.5301                 3.8267

                     70                     71                     72
                      A                      A                      A
 Frequencies --   1409.6001              1441.7679              1489.5132
 Red. masses --      1.4927                 1.6168                 2.5822
 Frc consts  --      1.7475                 1.9802                 3.3755
 IR Inten    --     29.4161                13.4429                14.9351

                     73                     74                     75
                      A                      A                      A
 Frequencies --   1490.8148              1510.3157              1512.2255
 Red. masses --      1.3113                 1.1223                 1.0489
 Frc consts  --      1.7171                 1.5083                 1.4133
 IR Inten    --      8.8450                 6.8997                 5.0142

                     76                     77                     78
                      A                      A                      A
 Frequencies --   1518.1598              1519.8502              1521.4839
 Red. masses --      1.1236                 1.5569                 1.1472
 Frc consts  --      1.5259                 2.1190                 1.5647
 IR Inten    --      5.7312                94.4596                11.7561

                     79                     80                     81
                      A                      A                      A
 Frequencies --   1524.9930              1527.7683              1535.9546
 Red. masses --      1.0660                 1.2129                 2.3199
 Frc consts  --      1.4607                 1.6680                 3.2246
 IR Inten    --      8.4551                30.0576                49.5446

                     82                     83                     84
                      A                      A                      A
 Frequencies --   1635.8926              1664.8031              1777.7748
 Red. masses --      4.9706                 6.0126                 7.9257
 Frc consts  --      7.8373                 9.8183                14.7585
 IR Inten    --     85.6704                43.9605               406.2636

                     85                     86                     87
                      A                      A                      A
 Frequencies --   1839.6500              2353.8487              3059.8534
 Red. masses --     10.8444                12.6806                 1.0717
 Frc consts  --     21.6234                41.3950                 5.9117
 IR Inten    --    186.2857                27.0782                34.8467

                     88                     89                     90
                      A                      A                      A
 Frequencies --   3072.1417              3080.5668              3083.8259
 Red. masses --      1.0653                 1.0295                 1.0575
 Frc consts  --      5.9240                 5.7564                 5.9253
 IR Inten    --     19.8946                26.9781                26.1375

                     91                     92                     93
                      A                      A                      A
 Frequencies --   3093.7051              3132.8948              3136.4875
 Red. masses --      1.0592                 1.0971                 1.1093
 Frc consts  --      5.9732                 6.3446                 6.4299
 IR Inten    --      5.0307                 9.0338                12.4101

                     94                     95                     96
                      A                      A                      A
 Frequencies --   3146.0730              3152.9554              3157.7789
 Red. masses --      1.1066                 1.0952                 1.1074
 Frc consts  --      6.4534                 6.4150                 6.5061
 IR Inten    --     11.0236                16.8801                17.2905

                     97                     98                     99
                      A                      A                      A
 Frequencies --   3189.2412              3206.3372              3230.4313
 Red. masses --      1.1077                 1.0887                 1.0923
 Frc consts  --      6.6384                 6.5941                 6.7162
 IR Inten    --     11.8215                 6.7812                 2.9559

                    100                    101                    102
                      A                      A                      A
 Frequencies --   3231.2848              3238.6792              3573.0392
 Red. masses --      1.0933                 1.0938                 1.0759
 Frc consts  --      6.7257                 6.7593                 8.0927
 IR Inten    --      1.0582                 3.9911                91.3730

 - Thermochemistry -
 -------------------
 Temperature   298.150 Kelvin.  Pressure   1.00000 Atm.
 Atom     1 has atomic number  6 and mass  12.00000

 Molecular mass:   276.11101 amu.
 Principal axes and moments of inertia in atomic units:
                           1         2         3
     Eigenvalues --  3735.506109239.61704**********
           X            0.99995   0.00943   0.00369
           Y           -0.00940   0.99993  -0.00702
           Z           -0.00375   0.00698   0.99997
 This molecule is an asymmetric top.
 Rotational symmetry number  1.
 Warning -- assumption of classical behavior for rotation
           may cause significant error
 Rotational temperatures (Kelvin)      0.02319     0.00937     0.00772
 Rotational constants (GHZ):           0.48313     0.19533     0.16085
 Zero-point vibrational energy     762901.4 (Joules/Mol)
                                  182.33780 (Kcal/Mol)
 Warning -- explicit consideration of  29 degrees of freedom as
           vibrations may cause significant error
 Vibrational temperatures:     28.42    39.80    46.67    53.28    85.25
          (Kelvin)            104.36   136.89   138.60   188.40   190.97
                              214.33   247.78   262.51   304.50   369.29
                              400.34   422.88   450.04   509.82   579.06
                              588.95   618.59   672.42   681.64   702.87
                              726.64   789.98   819.46   871.32   895.04
                              913.40   980.11  1007.44  1046.00  1052.14
                             1093.88  1128.92  1161.78  1223.80  1236.16
                             1279.27  1287.82  1324.04  1328.48  1408.88
                             1424.42  1462.35  1481.23  1488.87  1548.12
                             1568.22  1575.72  1638.02  1652.42  1698.05
                             1703.07  1707.46  1753.65  1757.05  1786.11
                             1837.56  1839.05  1877.13  1906.73  1921.24
                             1975.30  1977.80  1992.50  2017.08  2028.10
                             2074.38  2143.08  2144.95  2173.01  2175.76
                             2184.29  2186.73  2189.08  2194.12  2198.12
                             2209.90  2353.68  2395.28  2557.82  2646.85
                             3386.66  4402.45  4420.13  4432.25  4436.94
                             4451.15  4507.54  4512.71  4526.50  4536.40
                             4543.34  4588.61  4613.20  4647.87  4649.10
                             4659.74  5140.81

 Zero-point correction=                           0.290574 (Hartree/Particle)
 Thermal correction to Energy=                    0.310087
 Thermal correction to Enthalpy=                  0.311031
 Thermal correction to Gibbs Free Energy=         0.239372
 Sum of electronic and zero-point Energies=           -953.302042
 Sum of electronic and thermal Energies=              -953.282528
 Sum of electronic and thermal Enthalpies=            -953.281584
 Sum of electronic and thermal Free Energies=         -953.353243

                     E (Thermal)             CV                S
                      KCal/Mol        Cal/Mol-Kelvin    Cal/Mol-Kelvin
 Total                  194.583             71.093            150.819
 Electronic               0.000              0.000              0.000
 Translational            0.889              2.981             42.745
 Rotational               0.889              2.981             34.315
 Vibrational            192.805             65.131             73.760
 Vibration     1          0.593              1.986              6.659
 Vibration     2          0.593              1.984              5.990
 Vibration     3          0.594              1.983              5.674
 Vibration     4          0.594              1.982              5.412
 Vibration     5          0.597              1.974              4.482
 Vibration     6          0.599              1.967              4.083
 Vibration     7          0.603              1.953              3.551
 Vibration     8          0.603              1.952              3.527
 Vibration     9          0.612              1.922              2.932
 Vibration    10          0.613              1.921              2.906
 Vibration    11          0.618              1.904              2.685
 Vibration    12          0.626              1.877              2.411
 Vibration    13          0.630              1.864              2.303
 Vibration    14          0.643              1.823              2.029
 Vibration    15          0.666              1.752              1.684
 Vibration    16          0.679              1.714              1.544
 Vibration    17          0.689              1.685              1.451
 Vibration    18          0.701              1.649              1.348
 Vibration    19          0.730              1.566              1.147
 Vibration    20          0.768              1.465              0.954
 Vibration    21          0.774              1.450              0.929
 Vibration    22          0.791              1.405              0.859
 Vibration    23          0.825              1.322              0.745
 Vibration    24          0.831              1.308              0.727
 Vibration    25          0.844              1.275              0.687
 Vibration    26          0.860              1.239              0.646
 Vibration    27          0.904              1.142              0.546
 Vibration    28          0.926              1.097              0.505
 Vibration    29          0.964              1.020              0.440

                           ! Non-Optimized Parameters !
 Normal termination of Gaussian 16 at Sat Dec 12 15:30:29 2020.

 ----------------------------------------------------------------------
 # B3LYP/6-311++G(d,p) empiricaldispersion=gd3bj scf=xqc pop=npa geom=c
 heck
 ----------------------------------------------------------------------

 --------------------------------------
 CID_9334121_JID_10373_Energie_neutraal
 --------------------------------------
 Structure from the checkpoint file:  "JID_10373.chk"
 Charge =  0 Multiplicity = 1

 SCF Done:  E(RB3LYP) =  -953.865591103     A.U. after   15 cycles
 Normal termination of Gaussian 16 at Sat Dec 12 15:39:12 2020.

 ----------------------------------------------------------------------
 # B3LYP/6-311++G(d,p) empiricaldispersion=gd3bj scf=xqc pop=npa geom=c
 heck
 ----------------------------------------------------------------------

 ------------------------------------
 CID_9334121_JID_10373_Energie_kation
 ------------------------------------
 Structure from the checkpoint file:  "JID_10373.chk"
 Charge =  1 Multiplicity = 2

 SCF Done:  E(UB3LYP) =  -953.546824197     A.U. after   29 cycles
 Normal termination of Gaussian 16 at Sat Dec 12 16:03:41 2020.
 Gaussian 16:  ES64L-G16RevA.03 25-Dec-2016

 ----------------------------------------------------------------------
 # B3LYP/6-311++G(d,p) empiricaldispersion=gd3bj scf=xqc pop=npa geom=c
 heck
 ----------------------------------------------------------------------

 -----------------------------------
 CID_9334121_JID_10373_Energie_anion
 -----------------------------------
 Structure from the checkpoint file:  "JID_10373.chk"
 Charge = -1 Multiplicity = 2

                         Standard orientation:
 ---------------------------------------------------------------------
 Center     Atomic      Atomic             Coordinates (Angstroms)
 Number     Number       Type             X           Y           Z
 ---------------------------------------------------------------------
      1          6           0       -5.134243   -0.472448    0.751426
      2          8           0       -3.697253   -0.536833    0.802170
      3          6           0       -3.148044   -1.671359    0.285490
      4          8           0       -3.810614   -2.567671   -0.184017
      5          6           0       -1.637811   -1.612809    0.323314
      6          6           0       -1.061743   -1.070508   -1.000620
      7          6           0       -1.610524    0.308490   -1.400267
      8          7           0       -1.591449    1.283940   -0.316905
      9          6           0       -0.747120    2.322730   -0.092790
     10          8           0       -0.883367    3.088190    0.857512
     11          6           0        0.402481    2.542517   -1.087742
     12          8           0        1.174500    1.380554   -1.379079
     13          6           0        1.950970    0.854817   -0.383574
     14          6           0        1.999453    1.338152    0.929763
     15          6           0        2.827949    0.704500    1.860313
     16          6           0        3.601073   -0.395496    1.509765
     17          6           0        3.543081   -0.872151    0.188732
     18          6           0        2.723290   -0.248962   -0.757247
     19          6           0        4.327708   -2.008054   -0.197626
     20          7           0        4.962388   -2.932138   -0.506820
     21          1           0       -5.400690    0.481602    1.205747
     22          1           0       -5.569873   -1.303001    1.311310
     23          1           0       -5.481871   -0.520125   -0.283706
     24          1           0       -1.311657   -0.981786    1.154240
     25          1           0       -1.268170   -2.627937    0.488555
     26          1           0        0.025290   -1.017332   -0.899169
     27          1           0       -1.284028   -1.775612   -1.810129
     28          1           0       -1.039104    0.693218   -2.245730
     29          1           0       -2.650862    0.211117   -1.732781
     30          1           0       -2.307643    1.171187    0.393039
     31          1           0        0.007901    2.865979   -2.055347
     32          1           0        1.027448    3.341461   -0.678792
     33          1           0        1.392622    2.179951    1.240466
     34          1           0        2.859567    1.082410    2.877512
     35          1           0        4.240269   -0.887321    2.234001
     36          1           0        2.678984   -0.606861   -1.779447
 ---------------------------------------------------------------------

 SCF Done:  E(UB3LYP) =  -953.876029610     A.U. after   30 cycles

 The electronic state is 2-A.
 Alpha  occ. eigenvalues --  -19.09917 -19.06057 -19.04029 -19.00047 -14.25134
 Alpha  occ. eigenvalues --  -14.17083 -10.22675 -10.18653 -10.15010 -10.14712
 Alpha  occ. eigenvalues --  -10.13182 -10.12283 -10.10481 -10.09607 -10.07226
 Alpha  occ. eigenvalues --  -10.07011 -10.05908 -10.05794 -10.05025 -10.04595
 Alpha  occ. eigenvalues --   -1.03587  -0.97874  -0.94988  -0.94852  -0.84154
 Alpha  occ. eigenvalues --   -0.77522  -0.74140  -0.72485  -0.67033  -0.66267
 Alpha  occ. eigenvalues --   -0.64717  -0.62419  -0.61029  -0.54722  -0.52682
 Alpha  occ. eigenvalues --   -0.51217  -0.49497  -0.48611  -0.45647  -0.43987
 Alpha  occ. eigenvalues --   -0.41661  -0.41262  -0.40785  -0.40072  -0.38821
 Alpha  occ. eigenvalues --   -0.37351  -0.37248  -0.36842  -0.36554  -0.34549
 Alpha  occ. eigenvalues --   -0.33920  -0.33182  -0.32299  -0.31611  -0.30739
 Alpha  occ. eigenvalues --   -0.29449  -0.29340  -0.28334  -0.27694  -0.27448
 Alpha  occ. eigenvalues --   -0.27149  -0.25860  -0.25075  -0.24103  -0.24000
 Alpha  occ. eigenvalues --   -0.22869  -0.21058  -0.20730  -0.20331  -0.17242
 Alpha  occ. eigenvalues --   -0.17079  -0.14328  -0.12317   0.03479
 Alpha virt. eigenvalues --    0.04734   0.06634   0.06902   0.07926   0.08055
 Alpha virt. eigenvalues --    0.08520   0.08991   0.09171   0.09568   0.10319
 Alpha virt. eigenvalues --    0.10416   0.10938   0.11451   0.11783   0.12499

  Beta  occ. eigenvalues --  -19.09911 -19.06064 -19.04015 -19.00024 -14.25128
  Beta  occ. eigenvalues --  -14.16822 -10.22659 -10.18634 -10.14971 -10.14710
  Beta  occ. eigenvalues --  -10.13177 -10.12359 -10.10483 -10.09596 -10.07223
  Beta  occ. eigenvalues --  -10.06740 -10.05895 -10.05739 -10.04790 -10.04307
  Beta  occ. eigenvalues --   -1.03566  -0.97883  -0.94965  -0.94818  -0.84134
  Beta  occ. eigenvalues --   -0.77117  -0.73788  -0.72461  -0.66947  -0.66204
  Beta  occ. eigenvalues --   -0.64122  -0.62369  -0.60812  -0.54680  -0.52169
  Beta  occ. eigenvalues --   -0.51016  -0.49440  -0.48566  -0.45532  -0.43966
  Beta  occ. eigenvalues --   -0.41617  -0.41226  -0.40738  -0.40003  -0.38670
  Beta  occ. eigenvalues --   -0.37287  -0.37191  -0.36784  -0.36389  -0.34502
  Beta  occ. eigenvalues --   -0.33850  -0.33069  -0.32239  -0.31478  -0.30673
  Beta  occ. eigenvalues --   -0.29391  -0.29106  -0.28238  -0.27578  -0.27304
  Beta  occ. eigenvalues --   -0.26987  -0.25673  -0.24397  -0.23958  -0.23808
  Beta  occ. eigenvalues --   -0.22602  -0.20720  -0.20199  -0.20176  -0.17158
  Beta  occ. eigenvalues --   -0.17022  -0.12607  -0.11462
  Beta virt. eigenvalues --    0.05384   0.06741   0.06941   0.07967   0.08109
  Beta virt. eigenvalues --    0.08577   0.08726   0.09049   0.09401   0.09703
  Beta virt. eigenvalues --    0.10401   0.10526   0.10913   0.11435   0.11736

 Mulliken charges and spin densities:
               1          2
     1  C    0.472948  -0.733905
     2  O   -0.125520   0.045824
     3  C   -0.540274   0.158200
     4  O   -0.255691   0.017025
     5  C   -0.151496  -0.207510
     6  C    0.151575  -0.039064
     7  C   -0.444990  -0.046632
     8  N   -0.161482   0.009037
     9  C    0.092319   0.007893
    10  O   -0.286356   0.009383
    11  C   -0.423402  -0.047858
    12  O   -0.052824   0.006242
    13  C   -0.274929  -0.072233
    14  C    0.088697   0.218706
    15  C   -0.191546   0.073733
    16  C   -0.360932   0.028735
    17  C    1.394680   0.174797
    18  C   -0.254161   0.203609
    19  C   -1.317519  -0.068509
    20  N   -0.316038   0.141646
    21  H   -0.192683   0.341911
    22  H   -0.136411   0.309120
    23  H   -0.115587   0.294945
    24  H    0.185945   0.013640
    25  H    0.192578   0.000162
    26  H    0.203041   0.021800
    27  H    0.165097   0.001328
    28  H    0.179027   0.014020
    29  H    0.083111   0.127207
    30  H    0.431559  -0.036970
    31  H    0.094504   0.078566
    32  H    0.220274  -0.009384
    33  H    0.162158  -0.019035
    34  H    0.145253  -0.003434
    35  H    0.149812   0.000525
    36  H    0.189263  -0.013518
 Sum of Mulliken charges =  -1.00000   1.00000

 Dipole moment (field-independent basis, Debye):
    X=             -5.4007    Y=              3.4994    Z=             -1.1091  Tot=              6.5301
 Quadrupole moment (field-independent basis, Debye-Ang):
   XX=           -224.1533   YY=           -166.9414   ZZ=           -129.8781
   XY=             21.6455   XZ=              8.1035   YZ=            -11.5652

 Summary of Natural Population Analysis:

                                       Natural Population
                Natural  -----------------------------------------------
    Atom  No    Charge         Core      Valence    Rydberg      Total
 -----------------------------------------------------------------------
      C    1   -0.10651      0.99960     2.09775    0.00916     3.10651
      O    2   -0.28927      0.99986     3.28093    0.00847     4.28927
      C    3    0.40996      0.99969     1.56397    0.02638     2.59004
      O    4   -0.30233      0.99987     3.29698    0.00548     4.30233
      C    5   -0.23876      0.99958     2.23094    0.00824     3.23876
      C    6   -0.19190      0.99961     2.18546    0.00683     3.19190
      C    7   -0.09216      0.99961     2.08078    0.01177     3.09216
      N    8   -0.31980      0.99966     2.81012    0.01003     3.81980
      C    9    0.32782      0.99967     1.64851    0.02399     2.67218
      O   10   -0.32153      0.99988     3.31604    0.00561     4.32153
      C   11   -0.05383      0.99953     2.04241    0.01189     3.05383
      O   12   -0.28311      0.99986     3.27342    0.00983     4.28311
      C   13    0.13748      0.99937     1.84927    0.01387     2.86252
      C   14   -0.09513      0.99951     2.08855    0.00706     3.09513
      C   15   -0.08905      0.99958     2.08070    0.00877     3.08905
      C   16   -0.09237      0.99954     2.08517    0.00765     3.09237
      C   17   -0.04763      0.99943     2.03765    0.01056     3.04763
      C   18   -0.06292      0.99950     2.05408    0.00935     3.06292
      C   19    0.14945      0.99964     1.83280    0.01811     2.85055
      N   20   -0.16701      0.99979     2.65624    0.01098     3.66701
      H   21    0.09459      0.00000     0.40428    0.00113     0.40541
      H   22    0.09357      0.00000     0.40535    0.00108     0.40643
      H   23    0.09259      0.00000     0.40616    0.00125     0.40741
      H   24    0.11407      0.00000     0.38488    0.00105     0.38593
      H   25    0.11511      0.00000     0.38408    0.00081     0.38489
      H   26    0.11718      0.00000     0.38151    0.00132     0.38282
      H   27    0.09907      0.00000     0.40008    0.00085     0.40093
      H   28    0.10664      0.00000     0.39227    0.00110     0.39336
      H   29    0.09322      0.00000     0.40571    0.00108     0.40678
      H   30    0.20351      0.00000     0.29401    0.00248     0.29649
      H   31    0.09775      0.00000     0.40132    0.00093     0.40225
      H   32    0.09947      0.00000     0.39940    0.00113     0.40053
      H   33    0.10646      0.00000     0.39202    0.00152     0.39354
      H   34    0.09442      0.00000     0.40465    0.00093     0.40558
      H   35    0.09877      0.00000     0.40035    0.00088     0.40123
      H   36    0.10220      0.00000     0.39696    0.00084     0.39780
 =======================================================================
   * Total *    0.00000     19.99279    52.76480    0.24241    73.00000

 Normal termination of Gaussian 16 at Sat Dec 12 16:28:31 2020.
