 Gaussian 16, Revision A.03,

 -----------------------------------------------------------
 # opt freq B3LYP/6-31G(d) empiricaldispersion=gd3bj scf=xqc
 -----------------------------------------------------------

 -------------------------------
 CID_144153653_JID_3158_neutraal
 -------------------------------
 Symbolic Z-matrix:
 Charge =  0 Multiplicity = 1

 SCF Done:  E(RB3LYP) =  -921.952495643     A.U. after   14 cycles
 SCF Done:  E(RB3LYP) =  -921.956286621     A.U. after   12 cycles
 SCF Done:  E(RB3LYP) =  -921.956992469     A.U. after   12 cycles
 SCF Done:  E(RB3LYP) =  -921.957012811     A.U. after   13 cycles
 SCF Done:  E(RB3LYP) =  -921.957457404     A.U. after   11 cycles
 SCF Done:  E(RB3LYP) =  -921.957571266     A.U. after   11 cycles
 SCF Done:  E(RB3LYP) =  -921.957781411     A.U. after   11 cycles
 SCF Done:  E(RB3LYP) =  -921.958019557     A.U. after   12 cycles
 SCF Done:  E(RB3LYP) =  -921.958145910     A.U. after   11 cycles
 SCF Done:  E(RB3LYP) =  -921.958417490     A.U. after   10 cycles
 SCF Done:  E(RB3LYP) =  -921.963227248     A.U. after    8 cycles
 SCF Done:  E(RB3LYP) =  -921.963227945     A.U. after    7 cycles
 SCF Done:  E(RB3LYP) =  -921.963228458     A.U. after    7 cycles
 SCF Done:  E(RB3LYP) =  -921.963228630     A.U. after    7 cycles
 SCF Done:  E(RB3LYP) =  -921.963228718     A.U. after    7 cycles
 SCF Done:  E(RB3LYP) =  -921.963228762     A.U. after    7 cycles
 Optimization completed.
    -- Stationary point found.
 Normal termination of Gaussian 16 at Mon Dec 14 16:59:53 2020.

 --------------------------------------------------------------------
 #N Geom=AllCheck Guess=TCheck SCRF=Check GenChk RB3LYP/6-31G(d) Freq
 --------------------------------------------------------------------

 Structure from the checkpoint file:  "JID_3158.chk"
 -------------------------------
 CID_144153653_JID_3158_neutraal
 -------------------------------
 Charge =  0 Multiplicity = 1

 SCF Done:  E(RB3LYP) =  -921.963228762     A.U. after    1 cycles

  Exact polarizability: 149.294  -2.084 128.702   9.153  -1.926 118.016
 Approx polarizability: 209.454  -1.616 174.965  16.786  -3.695 176.093

                      1                      2                      3
                      A                      A                      A
 Frequencies --     36.8038                39.9483                48.2038
 Red. masses --      3.2274                 2.3920                 3.1010
 Frc consts  --      0.0026                 0.0022                 0.0042
 IR Inten    --      0.2721                 0.3854                 0.4050

                      4                      5                      6
                      A                      A                      A
 Frequencies --     55.9698                68.0179                80.7997
 Red. masses --      3.4406                 2.9225                 3.2198
 Frc consts  --      0.0064                 0.0080                 0.0124
 IR Inten    --      0.1766                 1.9870                 0.1254

                      7                      8                      9
                      A                      A                      A
 Frequencies --    103.1390               114.1267               123.8227
 Red. masses --      1.6475                 2.5676                 1.4771
 Frc consts  --      0.0103                 0.0197                 0.0133
 IR Inten    --      0.3337                 0.5378                 0.6476

                     10                     11                     12
                      A                      A                      A
 Frequencies --    135.1594               142.9245               152.8588
 Red. masses --      3.4017                 2.4838                 1.2316
 Frc consts  --      0.0366                 0.0299                 0.0170
 IR Inten    --      4.4744                 2.5115                 0.6556

                     13                     14                     15
                      A                      A                      A
 Frequencies --    203.6946               225.0549               240.4167
 Red. masses --      3.6168                 1.4268                 2.2502
 Frc consts  --      0.0884                 0.0426                 0.0766
 IR Inten    --      0.7720                 0.4185                 2.4383

                     16                     17                     18
                      A                      A                      A
 Frequencies --    264.0992               332.2714               353.0492
 Red. masses --      2.7355                 1.0107                 2.2215
 Frc consts  --      0.1124                 0.0657                 0.1631
 IR Inten    --      1.4916                 0.1201                 0.7480

                     19                     20                     21
                      A                      A                      A
 Frequencies --    375.3642               395.5940               443.9709
 Red. masses --      3.7122                 3.3485                 2.7660
 Frc consts  --      0.3082                 0.3087                 0.3212
 IR Inten    --      6.4811                 2.7859                 3.3281

                     22                     23                     24
                      A                      A                      A
 Frequencies --    512.4010               537.8697               604.3186
 Red. masses --      4.4677                 3.8009                 2.9545
 Frc consts  --      0.6911                 0.6479                 0.6357
 IR Inten    --      2.4235                 7.6090                 7.7840

                     25                     26                     27
                      A                      A                      A
 Frequencies --    640.9386               695.2058               718.5557
 Red. masses --      3.0297                 3.4385                 6.0920
 Frc consts  --      0.7333                 0.9791                 1.8532
 IR Inten    --     15.0485                20.3387                 1.7766

                     28                     29                     30
                      A                      A                      A
 Frequencies --    745.0812               789.7403               832.7382
 Red. masses --      3.1755                 1.2091                 1.0561
 Frc consts  --      1.0387                 0.4443                 0.4315
 IR Inten    --      5.2597                11.1808                 3.4460

                     31                     32                     33
                      A                      A                      A
 Frequencies --    840.9612               873.3828               895.7484
 Red. masses --      1.0573                 1.8578                 2.1687
 Frc consts  --      0.4406                 0.8350                 1.0252
 IR Inten    --      9.0406                 6.3824                 4.3068

                     34                     35                     36
                      A                      A                      A
 Frequencies --    919.0001               982.2375               988.1319
 Red. masses --      2.0850                 2.1435                 1.2255
 Frc consts  --      1.0375                 1.2184                 0.7050
 IR Inten    --      5.1100                 2.3163                 2.0657

                     37                     38                     39
                      A                      A                      A
 Frequencies --    996.7921              1000.5426              1011.2995
 Red. masses --      1.4087                 2.2461                 3.2725
 Frc consts  --      0.8247                 1.3248                 1.9719
 IR Inten    --      5.6782                11.9291                 0.1854

                     40                     41                     42
                      A                      A                      A
 Frequencies --   1076.3564              1083.5306              1107.5829
 Red. masses --      1.8832                 1.6124                 2.5197
 Frc consts  --      1.2855                 1.1153                 1.8212
 IR Inten    --      0.7202                19.1333                 6.9426

                     43                     44                     45
                      A                      A                      A
 Frequencies --   1133.5805              1162.6300              1185.7340
 Red. masses --      1.8499                 2.4354                 1.1821
 Frc consts  --      1.4006                 1.9396                 0.9792
 IR Inten    --      6.3994                18.3141                 0.5116

                     46                     47                     48
                      A                      A                      A
 Frequencies --   1205.7932              1235.4462              1239.4463
 Red. masses --      1.5866                 1.4606                 1.4581
 Frc consts  --      1.3592                 1.3135                 1.3198
 IR Inten    --     29.7952                 0.7779                 0.5204

                     49                     50                     51
                      A                      A                      A
 Frequencies --   1256.0531              1288.3184              1304.1752
 Red. masses --      2.2163                 1.2747                 1.2154
 Frc consts  --      2.0601                 1.2465                 1.2180
 IR Inten    --     37.4012                60.3906                41.7285

                     52                     53                     54
                      A                      A                      A
 Frequencies --   1328.3625              1375.5846              1378.7414
 Red. masses --      1.4890                 1.4089                 1.6863
 Frc consts  --      1.5480                 1.5708                 1.8887
 IR Inten    --     63.8467                29.4731                17.3592

                     55                     56                     57
                      A                      A                      A
 Frequencies --   1387.4121              1392.6108              1403.1918
 Red. masses --      1.2843                 1.3056                 1.2878
 Frc consts  --      1.4566                 1.4918                 1.4939
 IR Inten    --      1.2899                 2.6764                27.6130

                     58                     59                     60
                      A                      A                      A
 Frequencies --   1411.4496              1432.0898              1434.8056
 Red. masses --      1.5303                 1.2796                 1.2270
 Frc consts  --      1.7962                 1.5462                 1.4883
 IR Inten    --     10.1523                26.7216                 9.0335

                     61                     62                     63
                      A                      A                      A
 Frequencies --   1455.4590              1466.8462              1493.5919
 Red. masses --      1.2522                 1.6522                 1.1033
 Frc consts  --      1.5629                 2.0945                 1.4502
 IR Inten    --      1.9820                88.2779                 1.7403

                     64                     65                     66
                      A                      A                      A
 Frequencies --   1497.5618              1510.1377              1513.6872
 Red. masses --      1.0566                 1.2019                 1.0568
 Frc consts  --      1.3962                 1.6149                 1.4266
 IR Inten    --      6.7230                16.7701                13.6367

                     67                     68                     69
                      A                      A                      A
 Frequencies --   1518.2789              1522.4771              1528.1488
 Red. masses --      1.0863                 1.0444                 1.0633
 Frc consts  --      1.4754                 1.4263                 1.4630
 IR Inten    --      5.6049                 7.9530                17.8966

                     70                     71                     72
                      A                      A                      A
 Frequencies --   1531.7879              1533.5225              1536.4901
 Red. masses --      1.0773                 1.0332                 1.0523
 Frc consts  --      1.4893                 1.4316                 1.4637
 IR Inten    --      4.3033                 1.1993                 8.6760

                     73                     74                     75
                      A                      A                      A
 Frequencies --   1543.3430              1550.6891              1750.1983
 Red. masses --      1.0498                 1.0520                10.5012
 Frc consts  --      1.4733                 1.4904                18.9524
 IR Inten    --      2.4926                10.0307               301.5012

                     76                     77                     78
                      A                      A                      A
 Frequencies --   3032.9608              3043.6776              3047.9812
 Red. masses --      1.0719                 1.0384                 1.0756
 Frc consts  --      5.8095                 5.6677                 5.8875
 IR Inten    --     10.8987                34.1051                18.8730

                     79                     80                     81
                      A                      A                      A
 Frequencies --   3049.1176              3052.0526              3055.4321
 Red. masses --      1.0792                 1.0366                 1.0324
 Frc consts  --      5.9115                 5.6890                 5.6785
 IR Inten    --     33.6496                24.6929                25.9426

                     82                     83                     84
                      A                      A                      A
 Frequencies --   3063.1705              3065.0002              3076.3797
 Red. masses --      1.0405                 1.0602                 1.0594
 Frc consts  --      5.7521                 5.8678                 5.9071
 IR Inten    --     27.5882                21.6144                33.9370

                     85                     86                     87
                      A                      A                      A
 Frequencies --   3093.9310              3104.0524              3107.0298
 Red. masses --      1.1003                 1.1017                 1.1001
 Frc consts  --      6.2056                 6.2541                 6.2569
 IR Inten    --     11.6217                38.7000                28.7071

                     88                     89                     90
                      A                      A                      A
 Frequencies --   3109.4022              3122.7404              3124.5905
 Red. masses --      1.0948                 1.1055                 1.0990
 Frc consts  --      6.2366                 6.3514                 6.3220
 IR Inten    --     26.6919                 7.5424                59.8588

                     91                     92                     93
                      A                      A                      A
 Frequencies --   3126.4443              3131.8551              3135.0978
 Red. masses --      1.0960                 1.1065                 1.0995
 Frc consts  --      6.3119                 6.3947                 6.3673
 IR Inten    --     15.1994                15.6553                56.7366

                     94                     95                     96
                      A                      A                      A
 Frequencies --   3136.1795              3155.1699              3167.6776
 Red. masses --      1.0989                 1.1029                 1.1039
 Frc consts  --      6.3683                 6.4691                 6.5262
 IR Inten    --      6.0783                 5.7616                13.2768

 - Thermochemistry -
 -------------------
 Temperature   298.150 Kelvin.  Pressure   1.00000 Atm.
 Atom     1 has atomic number  6 and mass  12.00000

 Molecular mass:   203.13439 amu.
 Principal axes and moments of inertia in atomic units:
                           1         2         3
     Eigenvalues --  2377.521093677.807743803.74030
           X            0.99875   0.01431  -0.04793
           Y           -0.01031   0.99653   0.08262
           Z            0.04894  -0.08202   0.99543
 This molecule is an asymmetric top.
 Rotational symmetry number  1.
 Warning -- assumption of classical behavior for rotation
           may cause significant error
 Rotational temperatures (Kelvin)      0.03643     0.02355     0.02277
 Rotational constants (GHZ):           0.75909     0.49071     0.47446
 Zero-point vibrational energy     797282.9 (Joules/Mol)
                                  190.55519 (Kcal/Mol)
 Warning -- explicit consideration of  24 degrees of freedom as
           vibrations may cause significant error
 Vibrational temperatures:     52.95    57.48    69.35    80.53    97.86
          (Kelvin)            116.25   148.39   164.20   178.15   194.46
                              205.64   219.93   293.07   323.80   345.91
                              379.98   478.06   507.96   540.07   569.17
                              638.78   737.23   773.87   869.48   922.17
                             1000.25  1033.84  1072.01  1136.26  1198.12
                             1209.96  1256.60  1288.78  1322.24  1413.22
                             1421.70  1434.16  1439.56  1455.03  1548.64
                             1558.96  1593.56  1630.97  1672.77  1706.01
                             1734.87  1777.53  1783.29  1807.18  1853.60
                             1876.42  1911.22  1979.16  1983.70  1996.18
                             2003.66  2018.88  2030.76  2060.46  2064.37
                             2094.08  2110.46  2148.95  2154.66  2172.75
                             2177.86  2184.46  2190.51  2198.67  2203.90
                             2206.40  2210.67  2220.53  2231.10  2518.14
                             4363.75  4379.17  4385.37  4387.00  4391.22
                             4396.09  4407.22  4409.85  4426.22  4451.48
                             4466.04  4470.32  4473.74  4492.93  4495.59
                             4498.26  4506.04  4510.71  4512.26  4539.59
                             4557.58

 Zero-point correction=                           0.303669 (Hartree/Particle)
 Thermal correction to Energy=                    0.321192
 Thermal correction to Enthalpy=                  0.322136
 Thermal correction to Gibbs Free Energy=         0.256668
 Sum of electronic and zero-point Energies=           -921.659560
 Sum of electronic and thermal Energies=              -921.642037
 Sum of electronic and thermal Enthalpies=            -921.641093
 Sum of electronic and thermal Free Energies=         -921.706561

                     E (Thermal)             CV                S
                      KCal/Mol        Cal/Mol-Kelvin    Cal/Mol-Kelvin
 Total                  201.551             60.691            137.789
 Electronic               0.000              0.000              0.000
 Translational            0.889              2.981             41.830
 Rotational               0.889              2.981             31.876
 Vibrational            199.774             54.730             64.083
 Vibration     1          0.594              1.982              5.424
 Vibration     2          0.594              1.981              5.262
 Vibration     3          0.595              1.978              4.890
 Vibration     4          0.596              1.975              4.594
 Vibration     5          0.598              1.969              4.210
 Vibration     6          0.600              1.962              3.871
 Vibration     7          0.605              1.947              3.394
 Vibration     8          0.607              1.938              3.197
 Vibration     9          0.610              1.929              3.040
 Vibration    10          0.613              1.918              2.871
 Vibration    11          0.616              1.910              2.764
 Vibration    12          0.619              1.899              2.636
 Vibration    13          0.639              1.835              2.099
 Vibration    14          0.650              1.803              1.918
 Vibration    15          0.657              1.779              1.800
 Vibration    16          0.671              1.739              1.635
 Vibration    17          0.714              1.611              1.249
 Vibration    18          0.729              1.569              1.153
 Vibration    19          0.746              1.523              1.058
 Vibration    20          0.762              1.480              0.979
 Vibration    21          0.803              1.374              0.814
 Vibration    22          0.867              1.223              0.628
 Vibration    23          0.893              1.166              0.570
 Vibration    24          0.963              1.023              0.442

                           ! Non-Optimized Parameters !
 Normal termination of Gaussian 16 at Mon Dec 14 17:09:54 2020.

 ----------------------------------------------------------------------
 # B3LYP/6-311++G(d,p) empiricaldispersion=gd3bj scf=xqc pop=npa geom=c
 heck
 ----------------------------------------------------------------------

 ---------------------------------------
 CID_144153653_JID_3158_Energie_neutraal
 ---------------------------------------
 Structure from the checkpoint file:  "JID_3158.chk"
 Charge =  0 Multiplicity = 1

 SCF Done:  E(RB3LYP) =  -922.140656403     A.U. after   14 cycles
 Normal termination of Gaussian 16 at Mon Dec 14 17:14:52 2020.

 ----------------------------------------------------------------------
 # B3LYP/6-311++G(d,p) empiricaldispersion=gd3bj scf=xqc pop=npa geom=c
 heck
 ----------------------------------------------------------------------

 -------------------------------------
 CID_144153653_JID_3158_Energie_kation
 -------------------------------------
 Structure from the checkpoint file:  "JID_3158.chk"
 Charge =  1 Multiplicity = 2

 SCF Done:  E(UB3LYP) =  -921.835378426     A.U. after   28 cycles
 Normal termination of Gaussian 16 at Mon Dec 14 17:28:51 2020.
 Gaussian 16:  ES64L-G16RevA.03 25-Dec-2016

 ----------------------------------------------------------------------
 # B3LYP/6-311++G(d,p) empiricaldispersion=gd3bj scf=xqc pop=npa geom=c
 heck
 ----------------------------------------------------------------------

 ------------------------------------
 CID_144153653_JID_3158_Energie_anion
 ------------------------------------
 Structure from the checkpoint file:  "JID_3158.chk"
 Charge = -1 Multiplicity = 2

                         Standard orientation:
 ---------------------------------------------------------------------
 Center     Atomic      Atomic             Coordinates (Angstroms)
 Number     Number       Type             X           Y           Z
 ---------------------------------------------------------------------
      1          6           0        3.398163   -0.300092   -1.620522
      2          6           0        2.136565    0.325947   -2.218327
      3          6           0        0.657907    2.650259    0.526357
      4          6           0       -0.042349    1.739663    1.534380
      5          7           0       -0.124608    0.330853    1.114095
      6          6           0       -1.401115   -0.168991    0.649358
      7          6           0       -1.478343   -1.694002    0.692534
      8          6           0       -0.257524   -2.313462    0.021489
      9          6           0        0.996495   -1.875070    0.775771
     10          6           0        1.038779   -0.405296    1.171621
     11          8           0        2.081675    0.098751    1.579232
     12         16           0       -1.742708    0.509846   -1.063972
     13          6           0       -3.547319    0.243073   -1.132607
     14          1           0        3.427403   -0.163852   -0.534928
     15          1           0        4.303308    0.151756   -2.042900
     16          1           0        3.444022   -1.376426   -1.828678
     17          1           0        1.226634   -0.118385   -1.800148
     18          1           0        2.091630    1.400974   -2.013184
     19          1           0        2.094925    0.192418   -3.305664
     20          1           0        1.685711    2.315186    0.373301
     21          1           0        0.681916    3.676240    0.911746
     22          1           0        0.132121    2.652223   -0.432017
     23          1           0        0.494322    1.763649    2.486727
     24          1           0       -1.068043    2.078651    1.708350
     25          1           0       -2.185277    0.257065    1.286224
     26          1           0       -2.409809   -2.020382    0.220530
     27          1           0       -1.524208   -2.004561    1.746160
     28          1           0       -0.213119   -1.978922   -1.021031
     29          1           0       -0.332116   -3.406136    0.007101
     30          1           0        1.910461   -2.071955    0.209090
     31          1           0        1.090797   -2.437491    1.714720
     32          1           0       -3.805775   -0.818713   -1.176482
     33          1           0       -4.044206    0.706242   -0.273764
     34          1           0       -3.906062    0.726738   -2.044458
 ---------------------------------------------------------------------

 SCF Done:  E(UB3LYP) =  -922.129867159     A.U. after   31 cycles

 The electronic state is 2-A.
 Alpha  occ. eigenvalues --  -88.73401 -18.99092 -14.25247 -10.17636 -10.14235
 Alpha  occ. eigenvalues --  -10.10920 -10.08469 -10.08155 -10.07460 -10.07258
 Alpha  occ. eigenvalues --  -10.06795 -10.06769 -10.06417  -7.82041  -5.78432
 Alpha  occ. eigenvalues --   -5.78079  -5.77397  -0.94539  -0.84968  -0.72259
 Alpha  occ. eigenvalues --   -0.68738  -0.66354  -0.65598  -0.63556  -0.57176
 Alpha  occ. eigenvalues --   -0.55128  -0.52738  -0.52037  -0.49919  -0.41996
 Alpha  occ. eigenvalues --   -0.40586  -0.39341  -0.37746  -0.35079  -0.34796
 Alpha  occ. eigenvalues --   -0.34358  -0.33827  -0.33576  -0.32903  -0.32186
 Alpha  occ. eigenvalues --   -0.31270  -0.30740  -0.28802  -0.28252  -0.27691
 Alpha  occ. eigenvalues --   -0.27125  -0.26299  -0.25616  -0.25062  -0.24726
 Alpha  occ. eigenvalues --   -0.24413  -0.23702  -0.21213  -0.16026  -0.15231
 Alpha  occ. eigenvalues --   -0.12476   0.04401
 Alpha virt. eigenvalues --    0.06670   0.06972   0.07452   0.08586   0.09052
 Alpha virt. eigenvalues --    0.09283   0.09526   0.10123   0.10257   0.11236
 Alpha virt. eigenvalues --    0.11622   0.12137   0.12305   0.12984   0.13147

  Beta  occ. eigenvalues --  -88.73395 -18.99091 -14.25247 -10.17635 -10.14215
  Beta  occ. eigenvalues --  -10.10907 -10.08386 -10.08145 -10.07423 -10.07240
  Beta  occ. eigenvalues --  -10.06792 -10.06767 -10.06415  -7.82036  -5.78421
  Beta  occ. eigenvalues --   -5.78069  -5.77394  -0.94536  -0.84956  -0.72222
  Beta  occ. eigenvalues --   -0.68695  -0.66349  -0.65578  -0.63488  -0.57116
  Beta  occ. eigenvalues --   -0.55105  -0.52721  -0.51961  -0.49860  -0.41945
  Beta  occ. eigenvalues --   -0.40543  -0.39321  -0.37712  -0.35051  -0.34787
  Beta  occ. eigenvalues --   -0.34337  -0.33787  -0.33552  -0.32881  -0.32146
  Beta  occ. eigenvalues --   -0.31201  -0.30695  -0.28775  -0.28228  -0.27676
  Beta  occ. eigenvalues --   -0.27077  -0.26278  -0.25608  -0.25047  -0.24689
  Beta  occ. eigenvalues --   -0.24374  -0.23682  -0.21143  -0.16019  -0.15219
  Beta  occ. eigenvalues --   -0.12444
  Beta virt. eigenvalues --    0.06590   0.07390   0.07534   0.07945   0.08986
  Beta virt. eigenvalues --    0.09146   0.09617   0.09999   0.10379   0.10716
  Beta virt. eigenvalues --    0.11625   0.11932   0.12414   0.12729   0.13199

 Mulliken charges and spin densities:
               1          2
     1  C   -0.463761  -0.083186
     2  C   -0.323576   0.054061
     3  C   -0.398885  -0.133387
     4  C    0.049403  -0.052457
     5  N    0.173115   0.010313
     6  C   -0.745232   0.918527
     7  C    1.496067  -2.250250
     8  C   -0.257740   0.009809
     9  C    0.287315  -0.535512
    10  C   -0.249175   0.038545
    11  O   -0.305371   0.009570
    12  S    0.040410  -0.131675
    13  C    1.101649  -1.625686
    14  H    0.169544   0.017990
    15  H    0.108304   0.005535
    16  H    0.057038   0.065142
    17  H    0.240358  -0.181856
    18  H    0.127187   0.001548
    19  H    0.069159   0.069150
    20  H    0.181435   0.003310
    21  H    0.052811   0.074403
    22  H    0.087371   0.023635
    23  H    0.116942   0.049332
    24  H   -0.203597   0.351291
    25  H   -0.154633   0.453485
    26  H   -0.299850   0.509965
    27  H   -0.300086   0.457307
    28  H    0.060760   0.074925
    29  H   -0.429627   0.621511
    30  H    0.127509   0.045870
    31  H   -0.006718   0.204564
    32  H   -0.479810   0.651810
    33  H   -0.578683   0.754243
    34  H   -0.349633   0.518167
 Sum of Mulliken charges =  -1.00000   1.00000

 Dipole moment (field-independent basis, Debye):
    X=              8.0531    Y=              2.8307    Z=             -1.2168  Tot=              8.6224
 Quadrupole moment (field-independent basis, Debye-Ang):
   XX=           -168.4861   YY=           -134.7340   ZZ=           -126.7572
   XY=             -3.6486   XZ=             -5.4303   YZ=              2.5026

 Summary of Natural Population Analysis:

                                       Natural Population
                Natural  -----------------------------------------------
    Atom  No    Charge         Core      Valence    Rydberg      Total
 -----------------------------------------------------------------------
      C    1   -0.29319      0.99968     2.28920    0.00431     3.29319
      C    2   -0.28723      0.99968     2.28320    0.00435     3.28723
      C    3   -0.29522      0.99965     2.29001    0.00556     3.29522
      C    4   -0.08459      0.99962     2.07354    0.01142     3.08459
      N    5   -0.26335      0.99961     2.75009    0.01365     3.76335
      C    6   -0.04674      0.99955     2.02922    0.01797     3.04674
      C    7   -0.19998      0.99959     2.18852    0.01187     3.19998
      C    8   -0.19663      0.99962     2.18706    0.00995     3.19663
      C    9   -0.23126      0.99959     2.22222    0.00944     3.23126
      C   10    0.35205      0.99963     1.62508    0.02324     2.64795
      O   11   -0.33290      0.99988     3.32787    0.00515     4.33290
      S   12    0.07503      4.99961     2.90798    0.01738     7.92497
      C   13   -0.34984      0.99962     2.34438    0.00583     3.34984
      H   14    0.10981      0.00000     0.38902    0.00116     0.39019
      H   15    0.09032      0.00000     0.40878    0.00090     0.40968
      H   16    0.09196      0.00000     0.40697    0.00107     0.40804
      H   17    0.10053      0.00000     0.39799    0.00148     0.39947
      H   18    0.09595      0.00000     0.40311    0.00094     0.40405
      H   19    0.09174      0.00000     0.40733    0.00092     0.40826
      H   20    0.10596      0.00000     0.39306    0.00098     0.39404
      H   21    0.09530      0.00000     0.40403    0.00068     0.40470
      H   22    0.10461      0.00000     0.39393    0.00145     0.39539
      H   23    0.10207      0.00000     0.39692    0.00100     0.39793
      H   24    0.09841      0.00000     0.40023    0.00137     0.40159
      H   25    0.10348      0.00000     0.39406    0.00246     0.39652
      H   26    0.11269      0.00000     0.38493    0.00238     0.38731
      H   27    0.10231      0.00000     0.39509    0.00260     0.39769
      H   28    0.10186      0.00000     0.39618    0.00196     0.39814
      H   29    0.10422      0.00000     0.39431    0.00147     0.39578
      H   30    0.11181      0.00000     0.38711    0.00108     0.38819
      H   31    0.11090      0.00000     0.38796    0.00114     0.38910
      H   32    0.10435      0.00000     0.39258    0.00306     0.39565
      H   33    0.10620      0.00000     0.38961    0.00419     0.39380
      H   34    0.10935      0.00000     0.38920    0.00145     0.39065
 =======================================================================
   * Total *   -0.00000     16.99534    38.83081    0.17386    56.00000

 Normal termination of Gaussian 16 at Mon Dec 14 17:44:02 2020.
