 Gaussian 16, Revision A.03,

 -----------------------------------------------------------
 # opt freq B3LYP/6-31G(d) empiricaldispersion=gd3bj scf=xqc
 -----------------------------------------------------------

 ------------------------------
 CID_57051963_JID_2082_neutraal
 ------------------------------
 Symbolic Z-matrix:
 Charge =  0 Multiplicity = 1

 SCF Done:  E(RB3LYP) =  -626.519097189     A.U. after   17 cycles
 SCF Done:  E(RB3LYP) =  -626.521886689     A.U. after   16 cycles
 SCF Done:  E(RB3LYP) =  -626.516909715     A.U. after   16 cycles
 SCF Done:  E(RB3LYP) =  -626.526202288     A.U. after   14 cycles
 SCF Done:  E(RB3LYP) =  -626.527271841     A.U. after   13 cycles
 SCF Done:  E(RB3LYP) =  -626.527522132     A.U. after   12 cycles
 SCF Done:  E(RB3LYP) =  -626.528349029     A.U. after   15 cycles
 SCF Done:  E(RB3LYP) =  -626.528880928     A.U. after   14 cycles
 SCF Done:  E(RB3LYP) =  -626.529571678     A.U. after   13 cycles
 SCF Done:  E(RB3LYP) =  -626.529785858     A.U. after   14 cycles
 SCF Done:  E(RB3LYP) =  -626.534367090     A.U. after   14 cycles
 SCF Done:  E(RB3LYP) =  -626.534374252     A.U. after   10 cycles
 SCF Done:  E(RB3LYP) =  -626.534376394     A.U. after   12 cycles
 SCF Done:  E(RB3LYP) =  -626.534376938     A.U. after    9 cycles
 SCF Done:  E(RB3LYP) =  -626.534376945     A.U. after    9 cycles
 Optimization completed.
    -- Stationary point found.
 Normal termination of Gaussian 16 at Wed Dec  9 16:55:17 2020.

 --------------------------------------------------------------------
 #N Geom=AllCheck Guess=TCheck SCRF=Check GenChk RB3LYP/6-31G(d) Freq
 --------------------------------------------------------------------

 Structure from the checkpoint file:  "JID_2082.chk"
 ------------------------------
 CID_57051963_JID_2082_neutraal
 ------------------------------
 Charge =  0 Multiplicity = 1

 SCF Done:  E(RB3LYP) =  -626.534376945     A.U. after    1 cycles

  Exact polarizability: 112.689  -3.847  97.696  -7.445  -6.280  53.640
 Approx polarizability: 165.944 -12.848 189.221 -12.633 -15.506  83.870

                      1                      2                      3
                      A                      A                      A
 Frequencies --     28.6376                52.0452                96.5970
 Red. masses --      6.3572                 6.9136                 7.0937
 Frc consts  --      0.0031                 0.0110                 0.0390
 IR Inten    --      0.6141                 0.2080                 1.1157

                      4                      5                      6
                      A                      A                      A
 Frequencies --    205.2996               233.9978               270.5935
 Red. masses --      5.5882                 4.6521                 8.2084
 Frc consts  --      0.1388                 0.1501                 0.3541
 IR Inten    --      0.5965                 3.1281                 8.0053

                      7                      8                      9
                      A                      A                      A
 Frequencies --    343.8429               386.8436               395.5270
 Red. masses --      5.0145                 2.2718                 3.8529
 Frc consts  --      0.3493                 0.2003                 0.3551
 IR Inten    --     21.1272                46.4783                37.6749

                     10                     11                     12
                      A                      A                      A
 Frequencies --    407.8908               417.9097               478.4380
 Red. masses --      3.0700                 2.9677                 2.3345
 Frc consts  --      0.3009                 0.3054                 0.3148
 IR Inten    --      1.8582                 1.2038                16.8253

                     13                     14                     15
                      A                      A                      A
 Frequencies --    522.7491               571.1122               608.4294
 Red. masses --      2.6510                 2.3952                 3.8528
 Frc consts  --      0.4268                 0.4603                 0.8403
 IR Inten    --     80.4157                19.0420                10.6813

                     16                     17                     18
                      A                      A                      A
 Frequencies --    634.5275               668.3004               706.3106
 Red. masses --      6.3388                 4.1391                 4.0119
 Frc consts  --      1.5037                 1.0892                 1.1792
 IR Inten    --      0.0628                76.3083                22.0472

                     19                     20                     21
                      A                      A                      A
 Frequencies --    712.9165               795.3168               825.0663
 Red. masses --      1.9970                 2.6369                 3.9466
 Frc consts  --      0.5980                 0.9827                 1.5829
 IR Inten    --     27.1931                11.2399                12.0830

                     22                     23                     24
                      A                      A                      A
 Frequencies --    831.1362               861.1777               944.1198
 Red. masses --     11.4067                 1.2486                 1.4241
 Frc consts  --      4.6425                 0.5456                 0.7479
 IR Inten    --     37.4242                 0.2864                 2.2902

                     25                     26                     27
                      A                      A                      A
 Frequencies --    975.1809              1003.0628              1023.3368
 Red. masses --      1.3526                 1.2648                 6.2689
 Frc consts  --      0.7578                 0.7498                 3.8679
 IR Inten    --      0.0666                 0.3840                 2.8507

                     28                     29                     30
                      A                      A                      A
 Frequencies --   1053.0927              1077.3169              1113.0495
 Red. masses --      3.4818                 2.4771                 1.6044
 Frc consts  --      2.2750                 1.6938                 1.1711
 IR Inten    --     41.5406                74.0047                16.5203

                     31                     32                     33
                      A                      A                      A
 Frequencies --   1196.4500              1202.4156              1218.9109
 Red. masses --      1.1039                 1.6740                 1.3148
 Frc consts  --      0.9310                 1.4260                 1.1510
 IR Inten    --      1.1409                81.3732                11.8575

                     34                     35                     36
                      A                      A                      A
 Frequencies --   1258.9273              1356.3782              1369.8887
 Red. masses --      4.5467                 1.8155                 2.9315
 Frc consts  --      4.2456                 1.9679                 3.2412
 IR Inten    --    196.0979                16.7590                 0.9915

                     37                     38                     39
                      A                      A                      A
 Frequencies --   1401.2926              1414.5359              1439.9777
 Red. masses --     10.1538                 1.5161                 2.0966
 Frc consts  --     11.7473                 1.7873                 2.5614
 IR Inten    --     75.4765               241.2316               147.9500

                     40                     41                     42
                      A                      A                      A
 Frequencies --   1503.8412              1547.8676              1650.6940
 Red. masses --      2.3021                 2.2847                 5.8133
 Frc consts  --      3.0675                 3.2252                 9.3327
 IR Inten    --     28.3632                 0.6662                 0.3204

                     43                     44                     45
                      A                      A                      A
 Frequencies --   1667.4544              1689.8973              3190.1574
 Red. masses --      5.5632                10.5939                 1.0858
 Frc consts  --      9.1135                17.8249                 6.5107
 IR Inten    --      4.6044               155.6196                 0.3105

                     46                     47                     48
                      A                      A                      A
 Frequencies --   3202.0366              3212.2749              3227.6221
 Red. masses --      1.0899                 1.0948                 1.0932
 Frc consts  --      6.5838                 6.6557                 6.7098
 IR Inten    --     14.1962                23.7783                 6.6147

                     49                     50                     51
                      A                      A                      A
 Frequencies --   3238.4732              3513.7990              3715.7628
 Red. masses --      1.0932                 1.0636                 1.0649
 Frc consts  --      6.7550                 7.7369                 8.6628
 IR Inten    --      1.3839               156.6899                55.4245

 - Thermochemistry -
 -------------------
 Temperature   298.150 Kelvin.  Pressure   1.00000 Atm.
 Atom     1 has atomic number  6 and mass  12.00000

 Molecular mass:   169.03751 amu.
 Principal axes and moments of inertia in atomic units:
                           1         2         3
     Eigenvalues --  1062.933892604.412802777.37105
           X            0.99983  -0.00680  -0.01699
           Y            0.00559   0.99752  -0.07016
           Z            0.01743   0.07006   0.99739
 This molecule is an asymmetric top.
 Rotational symmetry number  1.
 Warning -- assumption of classical behavior for rotation
           may cause significant error
 Rotational temperatures (Kelvin)      0.08149     0.03326     0.03119
 Rotational constants (GHZ):           1.69789     0.69296     0.64980
 Zero-point vibrational energy     367627.3 (Joules/Mol)
                                   87.86503 (Kcal/Mol)
 Warning -- explicit consideration of  15 degrees of freedom as
           vibrations may cause significant error
 Vibrational temperatures:     41.20    74.88   138.98   295.38   336.67
          (Kelvin)            389.32   494.71   556.58   569.08   586.86
                              601.28   688.37   752.12   821.70   875.39
                              912.94   961.54  1016.22  1025.73  1144.28
                             1187.09  1195.82  1239.04  1358.38  1403.07
                             1443.18  1472.35  1515.17  1550.02  1601.43
                             1721.42  1730.01  1753.74  1811.32  1951.53
                             1970.96  2016.15  2035.20  2071.81  2163.69
                             2227.04  2374.98  2399.09  2431.39  4589.92
                             4607.02  4621.75  4643.83  4659.44  5055.57
                             5346.15

 Zero-point correction=                           0.140022 (Hartree/Particle)
 Thermal correction to Energy=                    0.150328
 Thermal correction to Enthalpy=                  0.151272
 Thermal correction to Gibbs Free Energy=         0.102978
 Sum of electronic and zero-point Energies=           -626.394355
 Sum of electronic and thermal Energies=              -626.384049
 Sum of electronic and thermal Enthalpies=            -626.383104
 Sum of electronic and thermal Free Energies=         -626.431399

                     E (Thermal)             CV                S
                      KCal/Mol        Cal/Mol-Kelvin    Cal/Mol-Kelvin
 Total                   94.332             39.212            101.644
 Electronic               0.000              0.000              0.000
 Translational            0.889              2.981             41.283
 Rotational               0.889              2.981             30.420
 Vibrational             92.555             33.251             29.941
 Vibration     1          0.593              1.984              5.922
 Vibration     2          0.596              1.977              4.738
 Vibration     3          0.603              1.952              3.522
 Vibration     4          0.640              1.832              2.085
 Vibration     5          0.654              1.789              1.848
 Vibration     6          0.674              1.727              1.592
 Vibration     7          0.723              1.588              1.194
 Vibration     8          0.755              1.498              1.012
 Vibration     9          0.762              1.480              0.979
 Vibration    10          0.772              1.453              0.934
 Vibration    11          0.781              1.431              0.899
 Vibration    12          0.835              1.298              0.714
 Vibration    13          0.878              1.200              0.604
 Vibration    14          0.927              1.094              0.502
 Vibration    15          0.967              1.014              0.435

 Optimization completed.
    -- Stationary point found.
 Normal termination of Gaussian 16 at Wed Dec  9 16:59:04 2020.

 ----------------------------------------------------------------------
 # B3LYP/6-311++G(d,p) empiricaldispersion=gd3bj scf=xqc pop=npa geom=c
 heck
 ----------------------------------------------------------------------

 --------------------------------------
 CID_57051963_JID_2082_Energie_neutraal
 --------------------------------------
 Structure from the checkpoint file:  "JID_2082.chk"
 Charge =  0 Multiplicity = 1

 SCF Done:  E(RB3LYP) =  -626.731347271     A.U. after   16 cycles
 Normal termination of Gaussian 16 at Wed Dec  9 17:00:42 2020.

 ----------------------------------------------------------------------
 # B3LYP/6-311++G(d,p) empiricaldispersion=gd3bj scf=xqc pop=npa geom=c
 heck
 ----------------------------------------------------------------------

 ------------------------------------
 CID_57051963_JID_2082_Energie_kation
 ------------------------------------
 Structure from the checkpoint file:  "JID_2082.chk"
 Charge =  1 Multiplicity = 2

 SCF Done:  E(UB3LYP) =  -626.383836050     A.U. after   33 cycles
 SCF Done:  E(UB3LYP) =  -626.384379008     a.u. after    7 cycles
 Normal termination of Gaussian 16 at Wed Dec  9 17:26:52 2020.
 Gaussian 16:  ES64L-G16RevA.03 25-Dec-2016

 ----------------------------------------------------------------------
 # B3LYP/6-311++G(d,p) empiricaldispersion=gd3bj scf=xqc pop=npa geom=c
 heck
 ----------------------------------------------------------------------

 -----------------------------------
 CID_57051963_JID_2082_Energie_anion
 -----------------------------------
 Structure from the checkpoint file:  "JID_2082.chk"
 Charge = -1 Multiplicity = 2

                         Standard orientation:
 ---------------------------------------------------------------------
 Center     Atomic      Atomic             Coordinates (Angstroms)
 Number     Number       Type             X           Y           Z
 ---------------------------------------------------------------------
      1          6           0        3.180539   -0.038431   -0.344672
      2          6           0        2.488431   -1.200261    0.005333
      3          6           0        1.136601   -1.138051    0.333647
      4          6           0        0.476007    0.095391    0.316176
      5          6           0        1.164790    1.257470   -0.036934
      6          6           0        2.518308    1.189255   -0.364635
      7          6           0       -0.993253    0.168531    0.636804
      8          7           0       -1.759770   -0.284339   -0.742297
      9          8           0       -1.715599   -1.453718   -1.063308
     10          8           0       -2.322512    0.621497   -1.367261
     11          8           0       -1.327702   -0.742420    1.601391
     12          8           0       -1.495382    1.419184    0.901065
     13          1           0        4.234936   -0.090986   -0.600553
     14          1           0        3.002705   -2.156585    0.021905
     15          1           0        0.589221   -2.034380    0.600328
     16          1           0        0.643832    2.208378   -0.034464
     17          1           0        3.054336    2.095054   -0.632069
     18          1           0       -2.216299   -0.508424    1.921819
     19          1           0       -1.929319    1.717532    0.069693
 ---------------------------------------------------------------------

 SCF Done:  E(UB3LYP) =  -626.754226750     A.U. after   27 cycles

 The electronic state is 2-A.
 Alpha  occ. eigenvalues --  -19.00964 -18.99923 -18.94656 -18.93934 -14.28730
 Alpha  occ. eigenvalues --  -10.17032 -10.04745 -10.04676 -10.04279 -10.04234
 Alpha  occ. eigenvalues --  -10.04167 -10.03763  -1.01956  -0.95389  -0.88905
 Alpha  occ. eigenvalues --   -0.84668  -0.72773  -0.63738  -0.61819  -0.55597
 Alpha  occ. eigenvalues --   -0.48188  -0.47997  -0.45512  -0.42284  -0.39784
 Alpha  occ. eigenvalues --   -0.37400  -0.35156  -0.32479  -0.31943  -0.31073
 Alpha  occ. eigenvalues --   -0.30376  -0.29598  -0.26247  -0.25653  -0.23999
 Alpha  occ. eigenvalues --   -0.22669  -0.21727  -0.21289  -0.17944  -0.13697
 Alpha  occ. eigenvalues --   -0.13214  -0.12622  -0.10509  -0.09368   0.04875
 Alpha virt. eigenvalues --    0.08522   0.10105   0.10253   0.11215   0.11495
 Alpha virt. eigenvalues --    0.11597   0.12778   0.14926   0.15338   0.16191
 Alpha virt. eigenvalues --    0.17715   0.18194   0.19353   0.19981   0.20318

  Beta  occ. eigenvalues --  -19.00920 -18.99920 -18.94178 -18.93331 -14.27750
  Beta  occ. eigenvalues --  -10.17075 -10.04757 -10.04706 -10.04155 -10.04126
  Beta  occ. eigenvalues --  -10.04099 -10.03690  -1.00713  -0.95188  -0.88775
  Beta  occ. eigenvalues --   -0.83714  -0.72612  -0.63470  -0.61701  -0.55123
  Beta  occ. eigenvalues --   -0.47970  -0.47125  -0.45229  -0.42184  -0.39596
  Beta  occ. eigenvalues --   -0.36519  -0.34398  -0.31934  -0.31389  -0.30147
  Beta  occ. eigenvalues --   -0.29574  -0.28174  -0.26129  -0.25397  -0.23558
  Beta  occ. eigenvalues --   -0.22535  -0.21664  -0.21077  -0.17821  -0.12680
  Beta  occ. eigenvalues --   -0.12454  -0.10026  -0.09821  -0.08741
  Beta virt. eigenvalues --    0.08477   0.10030   0.10147   0.11152   0.11515
  Beta virt. eigenvalues --    0.11664   0.12740   0.14874   0.15164   0.16121
  Beta virt. eigenvalues --    0.16381   0.17706   0.18261   0.19341   0.19979

 Mulliken charges and spin densities:
               1          2
     1  C   -0.293045   0.086696
     2  C   -0.317135  -0.021616
     3  C   -0.274411   0.033968
     4  C    0.429331   0.023562
     5  C   -0.257407   0.184241
     6  C   -0.508590   0.021129
     7  C    0.078051  -0.106538
     8  N   -0.108174   0.376458
     9  O   -0.236993   0.223090
    10  O   -0.282256   0.165036
    11  O   -0.113349  -0.021228
    12  O   -0.236154   0.001179
    13  H    0.104264  -0.010585
    14  H    0.120121   0.005914
    15  H    0.178956  -0.002247
    16  H    0.123798   0.015160
    17  H    0.120779   0.002539
    18  H    0.229887   0.023602
    19  H    0.242328  -0.000360
 Sum of Mulliken charges =  -1.00000   1.00000

 Dipole moment (field-independent basis, Debye):
    X=              3.5228    Y=              1.5130    Z=              3.1711  Tot=              4.9755
 Quadrupole moment (field-independent basis, Debye-Ang):
   XX=            -90.9013   YY=            -79.4552   ZZ=            -86.2744
   XY=             -2.5824   XZ=            -11.6699   YZ=             -3.8561

 Summary of Natural Population Analysis:

                                       Natural Population
                Natural  -----------------------------------------------
    Atom  No    Charge         Core      Valence    Rydberg      Total
 -----------------------------------------------------------------------
      C    1   -0.08477      0.99958     2.07574    0.00945     3.08477
      C    2   -0.11536      0.99957     2.10665    0.00913     3.11536
      C    3   -0.07144      0.99953     2.06299    0.00892     3.07144
      C    4   -0.02852      0.99944     2.01721    0.01187     3.02852
      C    5   -0.08572      0.99953     2.07634    0.00986     3.08572
      C    6   -0.11394      0.99957     2.10517    0.00920     3.11394
      C    7    0.33752      0.99957     1.63956    0.02335     2.66248
      N    8    0.33707      0.99979     2.13152    0.03162     3.16293
      O    9   -0.16593      0.99989     3.15534    0.01071     4.16593
      O   10   -0.22558      0.99989     3.21533    0.01037     4.22558
      O   11   -0.35657      0.99986     3.34951    0.00720     4.35657
      O   12   -0.39191      0.99987     3.38391    0.00813     4.39191
      H   13    0.08919      0.00000     0.40978    0.00103     0.41081
      H   14    0.09243      0.00000     0.40656    0.00101     0.40757
      H   15    0.11054      0.00000     0.38816    0.00130     0.38946
      H   16    0.10324      0.00000     0.39522    0.00154     0.39676
      H   17    0.09169      0.00000     0.40728    0.00104     0.40831
      H   18    0.23073      0.00000     0.26531    0.00396     0.26927
      H   19    0.24734      0.00000     0.24783    0.00482     0.25266
 =======================================================================
   * Total *   -0.00000     11.99608    31.83940    0.16452    44.00000

 Normal termination of Gaussian 16 at Wed Dec  9 17:30:20 2020.
