 Gaussian 16, Revision A.03,

 -----------------------------------------------------------
 # opt freq B3LYP/6-31G(d) empiricaldispersion=gd3bj scf=xqc
 -----------------------------------------------------------

 ------------------------------
 CID_59660064_JID_1090_neutraal
 ------------------------------
 Symbolic Z-matrix:
 Charge =  0 Multiplicity = 1

 SCF Done:  E(RB3LYP) =  -494.290800721     A.U. after   16 cycles
 SCF Done:  E(RB3LYP) =  -494.336677080     A.U. after   15 cycles
 SCF Done:  E(RB3LYP) =  -494.352362829     A.U. after   18 cycles
 SCF Done:  E(RB3LYP) =  -494.338060018     A.U. after   19 cycles
 SCF Done:  E(RB3LYP) =  -494.354293824     A.U. after   17 cycles
 SCF Done:  E(RB3LYP) =  -494.349973909     A.U. after   19 cycles
 SCF Done:  E(RB3LYP) =  -494.355672607     A.U. after   16 cycles
 SCF Done:  E(RB3LYP) =  -494.355978143     A.U. after   16 cycles
 SCF Done:  E(RB3LYP) =  -494.354554440     A.U. after   17 cycles
 SCF Done:  E(RB3LYP) =  -494.356338379     A.U. after   14 cycles
 SCF Done:  E(RB3LYP) =  -494.356406332     A.U. after   13 cycles
 SCF Done:  E(RB3LYP) =  -494.356406923     A.U. after   11 cycles
 SCF Done:  E(RB3LYP) =  -494.356410316     A.U. after   10 cycles
 SCF Done:  E(RB3LYP) =  -494.356412117     A.U. after   10 cycles
 SCF Done:  E(RB3LYP) =  -494.356412193     A.U. after    9 cycles
 SCF Done:  E(RB3LYP) =  -494.356412236     A.U. after    9 cycles
 Optimization completed.
    -- Stationary point found.
 Normal termination of Gaussian 16 at Tue Dec  8 19:11:10 2020.

 --------------------------------------------------------------------
 #N Geom=AllCheck Guess=TCheck SCRF=Check GenChk RB3LYP/6-31G(d) Freq
 --------------------------------------------------------------------

 Structure from the checkpoint file:  "JID_1090.chk"
 ------------------------------
 CID_59660064_JID_1090_neutraal
 ------------------------------
 Charge =  0 Multiplicity = 1

 SCF Done:  E(RB3LYP) =  -494.356412236     A.U. after    1 cycles

  Exact polarizability: 366.381 -16.793  44.377  -0.001  -0.000  31.531
 Approx polarizability: 750.860 -60.145  73.697  -0.003  -0.000  43.084

                      1                      2                      3
                      A                      A                      A
 Frequencies --     38.7187                49.6417                87.8355
 Red. masses --      7.9070                 6.8401                 8.7767
 Frc consts  --      0.0070                 0.0099                 0.0399
 IR Inten    --      1.6141                 3.6571                 0.4782

                      4                      5                      6
                      A                      A                      A
 Frequencies --    130.4225               168.3136               215.6543
 Red. masses --      5.2877                 7.8888                 3.8789
 Frc consts  --      0.0530                 0.1317                 0.1063
 IR Inten    --      1.3297                 1.5827                13.5203

                      7                      8                      9
                      A                      A                      A
 Frequencies --    287.1872               302.3781               377.5603
 Red. masses --      7.7228                 5.3427                10.1193
 Frc consts  --      0.3753                 0.2878                 0.8499
 IR Inten    --      1.6235                 1.4804                 0.4852

                     10                     11                     12
                      A                      A                      A
 Frequencies --    425.2303               428.5591               557.2317
 Red. masses --      9.4538                 7.6600                 1.5049
 Frc consts  --      1.0072                 0.8289                 0.2753
 IR Inten    --      0.5910                 8.7621                33.2675

                     13                     14                     15
                      A                      A                      A
 Frequencies --    558.5475               586.2694               586.4090
 Red. masses --      2.0191                 4.9038                 2.6508
 Frc consts  --      0.3711                 0.9931                 0.5371
 IR Inten    --     26.5238                17.3535                24.3312

                     16                     17                     18
                      A                      A                      A
 Frequencies --    736.6700               743.9121               771.1548
 Red. masses --     11.3982                11.2397                 9.6526
 Frc consts  --      3.6445                 3.6648                 3.3820
 IR Inten    --      2.0605                 0.4713                 0.0555

                     19                     20                     21
                      A                      A                      A
 Frequencies --    799.4960               980.0075               993.7592
 Red. masses --     10.7426                11.7901                 2.4032
 Frc consts  --      4.0457                 6.6715                 1.3983
 IR Inten    --     21.4520                13.2177                 0.0067

                     22                     23                     24
                      A                      A                      A
 Frequencies --    996.1028               996.1499              1186.2286
 Red. masses --      8.9680                 3.3763                 9.5683
 Frc consts  --      5.2427                 1.9740                 7.9327
 IR Inten    --    716.9899                 0.2706               412.3744

                     25                     26                     27
                      A                      A                      A
 Frequencies --   1387.8800              1459.2318              1872.2195
 Red. masses --      1.2297                 6.4446                 9.2089
 Frc consts  --      1.3956                 8.0853                19.0182
 IR Inten    --     15.8793               167.4430               424.0605

                     28                     29                     30
                      A                      A                      A
 Frequencies --   2142.8482              2263.6711              2272.7792
 Red. masses --      7.6051                 9.4638                11.9421
 Frc consts  --     20.5750                28.5720                36.3451
 IR Inten    --      2.1550                36.2354                19.3600

                     31                     32                     33
                      A                      A                      A
 Frequencies --   2367.5277              3140.6753              3494.0055
 Red. masses --     11.8601                 1.0992                 1.1504
 Frc consts  --     39.1678                 6.3879                 8.2747
 IR Inten    --    255.1632                42.4771               167.8849

 - Thermochemistry -
 -------------------
 Temperature   298.150 Kelvin.  Pressure   1.00000 Atm.
 Atom     1 has atomic number  6 and mass  12.00000

 Molecular mass:   142.00548 amu.
 Principal axes and moments of inertia in atomic units:
                           1         2         3
     Eigenvalues --   197.433027346.405957543.83897
           X            1.00000  -0.00180  -0.00000
           Y            0.00180   1.00000   0.00000
           Z            0.00000  -0.00000   1.00000
 This molecule is an asymmetric top.
 Rotational symmetry number  1.
 Rotational temperatures (Kelvin)      0.43870     0.01179     0.01148
 Rotational constants (GHZ):           9.14103     0.24566     0.23923
 Zero-point vibrational energy     199802.0 (Joules/Mol)
                                   47.75381 (Kcal/Mol)
 Warning -- explicit consideration of  15 degrees of freedom as
           vibrations may cause significant error
 Vibrational temperatures:     55.71    71.42   126.38   187.65   242.17
          (Kelvin)            310.28   413.20   435.05   543.23   611.81
                              616.60   801.73   803.63   843.51   843.71
                             1059.90  1070.32  1109.52  1150.30  1410.01
                             1429.80  1433.17  1433.24  1706.72  1996.85
                             2099.51  2693.71  3083.08  3256.92  3270.02
                             3406.34  4518.73  5027.09

 Zero-point correction=                           0.076101 (Hartree/Particle)
 Thermal correction to Energy=                    0.086217
 Thermal correction to Enthalpy=                  0.087161
 Thermal correction to Gibbs Free Energy=         0.038744
 Sum of electronic and zero-point Energies=           -494.280312
 Sum of electronic and thermal Energies=              -494.270195
 Sum of electronic and thermal Enthalpies=            -494.269251
 Sum of electronic and thermal Free Energies=         -494.317669

                     E (Thermal)             CV                S
                      KCal/Mol        Cal/Mol-Kelvin    Cal/Mol-Kelvin
 Total                   54.102             34.429            101.903
 Electronic               0.000              0.000              0.000
 Translational            0.889              2.981             40.763
 Rotational               0.889              2.981             30.771
 Vibrational             52.324             28.467             30.368
 Vibration     1          0.594              1.981              5.324
 Vibration     2          0.595              1.978              4.832
 Vibration     3          0.601              1.958              3.708
 Vibration     4          0.612              1.923              2.940
 Vibration     5          0.625              1.881              2.454
 Vibration     6          0.645              1.817              1.995
 Vibration     7          0.684              1.698              1.490
 Vibration     8          0.694              1.669              1.404
 Vibration     9          0.748              1.518              1.049
 Vibration    10          0.787              1.415              0.874
 Vibration    11          0.790              1.408              0.863
 Vibration    12          0.913              1.124              0.529
 Vibration    13          0.914              1.121              0.527
 Vibration    14          0.943              1.061              0.474
 Vibration    15          0.943              1.061              0.474

 Optimization completed.
    -- Stationary point found.
 Normal termination of Gaussian 16 at Tue Dec  8 19:12:24 2020.

 ----------------------------------------------------------------------
 # B3LYP/6-311++G(d,p) empiricaldispersion=gd3bj scf=xqc pop=npa geom=c
 heck
 ----------------------------------------------------------------------

 --------------------------------------
 CID_59660064_JID_1090_Energie_neutraal
 --------------------------------------
 Structure from the checkpoint file:  "JID_1090.chk"
 Charge =  0 Multiplicity = 1

 SCF Done:  E(RB3LYP) =  -494.500091615     A.U. after   16 cycles
 Normal termination of Gaussian 16 at Tue Dec  8 19:12:59 2020.

 ----------------------------------------------------------------------
 # B3LYP/6-311++G(d,p) empiricaldispersion=gd3bj scf=xqc pop=npa geom=c
 heck
 ----------------------------------------------------------------------

 ------------------------------------
 CID_59660064_JID_1090_Energie_kation
 ------------------------------------
 Structure from the checkpoint file:  "JID_1090.chk"
 Charge =  1 Multiplicity = 2

 SCF Done:  E(UB3LYP) =  -494.192280107     A.U. after   22 cycles
 Normal termination of Gaussian 16 at Tue Dec  8 19:14:09 2020.
 Gaussian 16:  ES64L-G16RevA.03 25-Dec-2016

 ----------------------------------------------------------------------
 # B3LYP/6-311++G(d,p) empiricaldispersion=gd3bj scf=xqc pop=npa geom=c
 heck
 ----------------------------------------------------------------------

 -----------------------------------
 CID_59660064_JID_1090_Energie_anion
 -----------------------------------
 Structure from the checkpoint file:  "JID_1090.chk"
 Charge = -1 Multiplicity = 2

                         Standard orientation:
 ---------------------------------------------------------------------
 Center     Atomic      Atomic             Coordinates (Angstroms)
 Number     Number       Type             X           Y           Z
 ---------------------------------------------------------------------
      1          6           0       -6.356613    0.311262    0.000029
      2          6           0       -5.147313    0.187279    0.000016
      3          6           0       -3.798075    0.049056    0.000002
      4          6           0       -2.577468   -0.076463   -0.000013
      5          6           0       -1.237353   -0.213878   -0.000033
      6          6           0       -0.016475   -0.339365   -0.000052
      7          6           0        1.329840   -0.478489   -0.000021
      8          6           0        2.537170   -0.604833    0.000004
      9          8           0        3.830706   -0.816802    0.000032
     10          6           0        4.683017    0.295227    0.000023
     11          8           0        4.320531    1.428505   -0.000010
     12          1           0       -7.417308    0.420147    0.000038
     13          1           0        5.707036   -0.092543    0.000050
 ---------------------------------------------------------------------

 SCF Done:  E(UB3LYP) =  -494.529218531     A.U. after   28 cycles

 The electronic state is 2-A.
 Alpha  occ. eigenvalues --  -19.11995 -19.05640 -10.23011 -10.09361 -10.05956
 Alpha  occ. eigenvalues --  -10.04811 -10.03871 -10.03780 -10.03402 -10.03151
 Alpha  occ. eigenvalues --  -10.02876  -1.04643  -0.97320  -0.67161  -0.65733
 Alpha  occ. eigenvalues --   -0.63390  -0.60580  -0.57604  -0.50872  -0.46573
 Alpha  occ. eigenvalues --   -0.45445  -0.41933  -0.40759  -0.38802  -0.37571
 Alpha  occ. eigenvalues --   -0.34824  -0.29324  -0.23557  -0.22729  -0.22717
 Alpha  occ. eigenvalues --   -0.20544  -0.19700  -0.15652  -0.14610  -0.09157
 Alpha  occ. eigenvalues --   -0.08047   0.02921
 Alpha virt. eigenvalues --    0.04734   0.06407   0.08571   0.08923   0.11495
 Alpha virt. eigenvalues --    0.12310   0.13795   0.14157   0.15099   0.15471
 Alpha virt. eigenvalues --    0.16868   0.17200   0.17366   0.17824   0.18349

  Beta  occ. eigenvalues --  -19.11994 -19.05642 -10.22930 -10.08990 -10.06030
  Beta  occ. eigenvalues --  -10.04871 -10.03767 -10.03682 -10.03121 -10.02862
  Beta  occ. eigenvalues --  -10.02546  -1.04541  -0.97278  -0.66629  -0.65192
  Beta  occ. eigenvalues --   -0.62895  -0.60221  -0.57359  -0.49924  -0.46353
  Beta  occ. eigenvalues --   -0.45008  -0.41738  -0.40417  -0.38721  -0.37265
  Beta  occ. eigenvalues --   -0.34556  -0.29264  -0.22825  -0.22574  -0.21857
  Beta  occ. eigenvalues --   -0.19558  -0.19153  -0.14488  -0.14169  -0.07785
  Beta  occ. eigenvalues --   -0.07212
  Beta virt. eigenvalues --    0.04866   0.06418   0.08823   0.08904   0.08916
  Beta virt. eigenvalues --    0.11521   0.12212   0.13697   0.15003   0.15106
  Beta virt. eigenvalues --    0.15468   0.16867   0.17257   0.17772   0.17809

 Mulliken charges and spin densities:
               1          2
     1  C   -2.002615   0.321933
     2  C    1.585358  -0.119826
     3  C   -0.016857   0.247146
     4  C   -0.125932   0.044394
     5  C   -0.327575   0.088954
     6  C   -0.257543   0.236299
     7  C    0.257416  -0.099198
     8  C    0.023532   0.255273
     9  O   -0.171836   0.001932
    10  C    0.173535  -0.060392
    11  O   -0.241215   0.000735
    12  H    0.100632  -0.013783
    13  H    0.003100   0.096533
 Sum of Mulliken charges =  -1.00000   1.00000

 Dipole moment (field-independent basis, Debye):
    X=              8.5548    Y=             -0.8507    Z=              0.0001  Tot=              8.5970
 Quadrupole moment (field-independent basis, Debye-Ang):
   XX=           -124.7020   YY=            -73.7178   ZZ=            -65.4457
   XY=             -3.6447   XZ=              0.0003   YZ=              0.0001

 Summary of Natural Population Analysis:

                                       Natural Population
                Natural  -----------------------------------------------
    Atom  No    Charge         Core      Valence    Rydberg      Total
 -----------------------------------------------------------------------
      C    1   -0.01959      0.99919     2.01417    0.00622     3.01959
      C    2   -0.04220      0.99952     2.02683    0.01585     3.04220
      C    3    0.03090      0.99921     1.94733    0.02256     2.96910
      C    4    0.01883      0.99921     1.96617    0.01578     2.98117
      C    5   -0.03886      0.99924     2.02220    0.01742     3.03886
      C    6    0.06036      0.99911     1.92765    0.01287     2.93964
      C    7   -0.10511      0.99922     2.09523    0.01066     3.10511
      C    8    0.20761      0.99899     1.78183    0.01157     2.79239
      O    9   -0.25956      0.99985     3.25129    0.00842     4.25956
      C   10    0.33283      0.99976     1.64204    0.02536     2.66717
      O   11   -0.26812      0.99987     3.26154    0.00672     4.26812
      H   12    0.09537      0.00000     0.40215    0.00248     0.40463
      H   13    0.05447      0.00000     0.44345    0.00208     0.44553
 =======================================================================
   * Total *    0.06693     10.99317    24.78189    0.15800    35.93307

 Normal termination of Gaussian 16 at Tue Dec  8 19:15:38 2020.
