 Gaussian 16, Revision A.03,

 -----------------------------------------------------------
 # opt freq B3LYP/6-31G(d) empiricaldispersion=gd3bj scf=xqc
 -----------------------------------------------------------

 -------------------------------
 CID_66404451_JID_10136_neutraal
 -------------------------------
 Symbolic Z-matrix:
 Charge =  0 Multiplicity = 1

 SCF Done:  E(RB3LYP) =  -1167.61541554     A.U. after   15 cycles
 SCF Done:  E(RB3LYP) =  -1167.62014986     A.U. after   12 cycles
 SCF Done:  E(RB3LYP) =  -1167.62139879     A.U. after   12 cycles
 SCF Done:  E(RB3LYP) =  -1167.62202056     A.U. after   12 cycles
 SCF Done:  E(RB3LYP) =  -1167.62237482     A.U. after   12 cycles
 SCF Done:  E(RB3LYP) =  -1167.62268158     A.U. after   12 cycles
 SCF Done:  E(RB3LYP) =  -1167.62280557     A.U. after   12 cycles
 SCF Done:  E(RB3LYP) =  -1167.62302563     A.U. after   12 cycles
 SCF Done:  E(RB3LYP) =  -1167.62323994     A.U. after   14 cycles
 SCF Done:  E(RB3LYP) =  -1167.62347504     A.U. after   11 cycles
 SCF Done:  E(RB3LYP) =  -1167.62379801     A.U. after    9 cycles
 SCF Done:  E(RB3LYP) =  -1167.62379943     A.U. after    9 cycles
 SCF Done:  E(RB3LYP) =  -1167.62379973     A.U. after    8 cycles
 SCF Done:  E(RB3LYP) =  -1167.62379994     A.U. after    8 cycles
 SCF Done:  E(RB3LYP) =  -1167.62379998     A.U. after    7 cycles
 Optimization completed.
    -- Stationary point found.
 Normal termination of Gaussian 16 at Sun Dec 13 13:03:16 2020.

 --------------------------------------------------------------------
 #N Geom=AllCheck Guess=TCheck SCRF=Check GenChk RB3LYP/6-31G(d) Freq
 --------------------------------------------------------------------

 Structure from the checkpoint file:  "JID_10136.chk"
 -------------------------------
 CID_66404451_JID_10136_neutraal
 -------------------------------
 Charge =  0 Multiplicity = 1

 SCF Done:  E(RB3LYP) =  -1167.62379998     A.U. after    1 cycles

  Exact polarizability: 233.728 -13.406 206.387   0.646  17.647 152.174
 Approx polarizability: 367.050 -31.750 318.290   9.417  39.414 265.090

                      1                      2                      3
                      A                      A                      A
 Frequencies --     17.4576                24.0108                28.7857
 Red. masses --      5.5102                 5.0570                 5.0319
 Frc consts  --      0.0010                 0.0017                 0.0025
 IR Inten    --      0.0960                 0.1928                 0.0951

                      4                      5                      6
                      A                      A                      A
 Frequencies --     38.3339                72.7251                84.3854
 Red. masses --      4.9824                 3.8648                 4.0748
 Frc consts  --      0.0043                 0.0120                 0.0171
 IR Inten    --      0.0573                 0.1006                 0.1533

                      7                      8                      9
                      A                      A                      A
 Frequencies --    125.6470               145.2867               177.4513
 Red. masses --      2.3171                 5.0005                 2.0919
 Frc consts  --      0.0216                 0.0622                 0.0388
 IR Inten    --      0.1950                 0.3822                 0.7273

                     10                     11                     12
                      A                      A                      A
 Frequencies --    181.4284               207.4213               233.5892
 Red. masses --      4.7359                 4.7078                 1.8688
 Frc consts  --      0.0918                 0.1193                 0.0601
 IR Inten    --      0.2881                 2.2858                 0.6517

                     13                     14                     15
                      A                      A                      A
 Frequencies --    242.4522               274.2670               296.1317
 Red. masses --      2.5276                 3.1886                 2.4476
 Frc consts  --      0.0875                 0.1413                 0.1265
 IR Inten    --      0.5021                 1.1472                 2.5356

                     16                     17                     18
                      A                      A                      A
 Frequencies --    315.1499               329.6854               377.4973
 Red. masses --      1.6629                 1.4703                 4.9640
 Frc consts  --      0.0973                 0.0942                 0.4168
 IR Inten    --      9.7140                29.3148                 0.2476

                     19                     20                     21
                      A                      A                      A
 Frequencies --    408.2847               437.6975               462.0615
 Red. masses --      1.9974                 3.0064                 3.1837
 Frc consts  --      0.1962                 0.3393                 0.4005
 IR Inten    --      5.7185                 5.1316                 4.6424

                     22                     23                     24
                      A                      A                      A
 Frequencies --    474.0425               503.7250               535.3840
 Red. masses --      4.8293                 3.3990                 3.2301
 Frc consts  --      0.6394                 0.5081                 0.5455
 IR Inten    --      4.0767                 1.7073                 1.8450

                     25                     26                     27
                      A                      A                      A
 Frequencies --    558.0579               572.5934               580.6760
 Red. masses --      5.4735                 3.6044                 4.1539
 Frc consts  --      1.0043                 0.6963                 0.8252
 IR Inten    --      0.7726                 0.2868                 1.9073

                     28                     29                     30
                      A                      A                      A
 Frequencies --    585.6976               616.8153               654.6326
 Red. masses --      4.4548                 4.4267                 4.5339
 Frc consts  --      0.9004                 0.9923                 1.1448
 IR Inten    --      4.8441                 3.5922                21.8844

                     31                     32                     33
                      A                      A                      A
 Frequencies --    667.0740               708.8032               717.8890
 Red. masses --      4.9022                 1.2482                 2.5154
 Frc consts  --      1.2853                 0.3695                 0.7638
 IR Inten    --      1.0500                40.1892                18.5070

                     34                     35                     36
                      A                      A                      A
 Frequencies --    751.3182               757.0925               763.2577
 Red. masses --      1.4551                 3.9254                 2.2372
 Frc consts  --      0.4839                 1.3256                 0.7679
 IR Inten    --     55.5103                22.8845                10.7107

                     37                     38                     39
                      A                      A                      A
 Frequencies --    778.8585               785.6527               798.7781
 Red. masses --      2.5314                 4.1968                 2.3716
 Frc consts  --      0.9048                 1.5263                 0.8915
 IR Inten    --      3.0801                 5.9258                 3.7005

                     40                     41                     42
                      A                      A                      A
 Frequencies --    804.1782               837.5964               844.4390
 Red. masses --      2.1028                 1.3488                 1.6080
 Frc consts  --      0.8012                 0.5575                 0.6756
 IR Inten    --      4.3175                 7.3018                10.8741

                     43                     44                     45
                      A                      A                      A
 Frequencies --    856.4099               866.5667               906.5680
 Red. masses --      1.6345                 4.1571                 2.0918
 Frc consts  --      0.7063                 1.8393                 1.0129
 IR Inten    --      1.9277                 6.1693                47.2288

                     46                     47                     48
                      A                      A                      A
 Frequencies --    908.3123               918.5506               927.4923
 Red. masses --      1.3372                 1.3621                 1.3663
 Frc consts  --      0.6500                 0.6771                 0.6925
 IR Inten    --      1.8705                14.7377                84.6817

                     49                     50                     51
                      A                      A                      A
 Frequencies --    963.1499               977.6144               979.8616
 Red. masses --      1.2306                 1.9211                 2.0151
 Frc consts  --      0.6726                 1.0817                 1.1399
 IR Inten    --      0.1138                55.1449                 7.9004

                     52                     53                     54
                      A                      A                      A
 Frequencies --   1043.0579              1048.3219              1061.3979
 Red. masses --      3.4193                 2.2036                 3.1081
 Frc consts  --      2.1918                 1.4268                 2.0630
 IR Inten    --      2.2584                10.5216                 0.1324

                     55                     56                     57
                      A                      A                      A
 Frequencies --   1064.8962              1070.1568              1101.6640
 Red. masses --      1.3078                 1.5656                 1.9271
 Frc consts  --      0.8738                 1.0564                 1.3780
 IR Inten    --      0.6728                 5.6130                 6.6806

                     58                     59                     60
                      A                      A                      A
 Frequencies --   1115.7573              1128.8252              1141.1537
 Red. masses --      1.2299                 1.5248                 2.4318
 Frc consts  --      0.9021                 1.1447                 1.8658
 IR Inten    --      0.6200                 8.5898                 3.8629

                     61                     62                     63
                      A                      A                      A
 Frequencies --   1160.0727              1183.1024              1195.3875
 Red. masses --      1.5595                 2.4695                 1.4571
 Frc consts  --      1.2366                 2.0366                 1.2268
 IR Inten    --      5.7471                 9.1242                 8.5372

                     64                     65                     66
                      A                      A                      A
 Frequencies --   1206.7019              1233.9920              1247.2777
 Red. masses --      1.4896                 1.6092                 1.6481
 Frc consts  --      1.2780                 1.4437                 1.5106
 IR Inten    --     39.2119                 3.7578                 3.6190

                     67                     68                     69
                      A                      A                      A
 Frequencies --   1252.0899              1269.6751              1288.7449
 Red. masses --      1.5092                 1.4821                 1.3490
 Frc consts  --      1.3940                 1.4077                 1.3201
 IR Inten    --      4.9543                13.2715                 6.5803

                     70                     71                     72
                      A                      A                      A
 Frequencies --   1304.6411              1344.8050              1369.1371
 Red. masses --      1.4080                 1.2955                 1.7134
 Frc consts  --      1.4120                 1.3804                 1.8924
 IR Inten    --      9.9153                 9.5548                26.0684

                     73                     74                     75
                      A                      A                      A
 Frequencies --   1372.2778              1383.6095              1391.8143
 Red. masses --      1.6847                 1.7387                 2.9467
 Frc consts  --      1.8692                 1.9611                 3.3632
 IR Inten    --     70.2768                22.6563                12.8052

                     76                     77                     78
                      A                      A                      A
 Frequencies --   1406.0710              1414.8680              1421.0564
 Red. masses --      1.9673                 1.8323                 2.2718
 Frc consts  --      2.2916                 2.1612                 2.7030
 IR Inten    --     11.1488                18.5008                11.8904

                     79                     80                     81
                      A                      A                      A
 Frequencies --   1430.1697              1440.5039              1445.6353
 Red. masses --      2.5902                 1.3416                 1.4819
 Frc consts  --      3.1214                 1.6403                 1.8247
 IR Inten    --     11.8205                 1.5029                 8.2406

                     82                     83                     84
                      A                      A                      A
 Frequencies --   1500.1068              1504.3041              1511.2212
 Red. masses --      1.7964                 4.0523                 1.2929
 Frc consts  --      2.3818                 5.4029                 1.7397
 IR Inten    --     29.8324                 8.4000                12.5362

                     85                     86                     87
                      A                      A                      A
 Frequencies --   1514.8460              1521.2229              1531.9045
 Red. masses --      1.3717                 1.0741                 1.0658
 Frc consts  --      1.8546                 1.4644                 1.4737
 IR Inten    --     27.0484                 5.8235                 7.8692

                     88                     89                     90
                      A                      A                      A
 Frequencies --   1534.1035              1539.0768              1606.2059
 Red. masses --      2.6647                 1.0640                 5.5559
 Frc consts  --      3.6949                 1.4850                 8.4451
 IR Inten    --      7.2005                 1.3919                 6.1155

                     91                     92                     93
                      A                      A                      A
 Frequencies --   1611.2498              1629.9315              1673.2441
 Red. masses --      5.6084                 6.2051                 6.4913
 Frc consts  --      8.5786                 9.7126                10.7079
 IR Inten    --      5.7036                 0.4303                 6.3624

                     94                     95                     96
                      A                      A                      A
 Frequencies --   1697.0161              3019.8486              3036.7955
 Red. masses --      1.0901                 1.0793                 1.0661
 Frc consts  --      1.8496                 5.7989                 5.7929
 IR Inten    --     25.8622                19.9699                65.5660

                     97                     98                     99
                      A                      A                      A
 Frequencies --   3044.6858              3048.8185              3056.0893
 Red. masses --      1.0446                 1.0585                 1.0587
 Frc consts  --      5.7057                 5.7969                 5.8260
 IR Inten    --     12.2525                50.9320                36.5227

                    100                    101                    102
                      A                      A                      A
 Frequencies --   3075.7940              3087.9533              3096.1538
 Red. masses --      1.0990                 1.0983                 1.1059
 Frc consts  --      6.1257                 6.1703                 6.2459
 IR Inten    --     38.8183                 6.3079                 8.5162

                    103                    104                    105
                      A                      A                      A
 Frequencies --   3109.7852              3116.7624              3183.5420
 Red. masses --      1.1020                 1.1008                 1.0849
 Frc consts  --      6.2789                 6.3003                 6.4784
 IR Inten    --     49.6122                64.3872                 1.0151

                    106                    107                    108
                      A                      A                      A
 Frequencies --   3193.9817              3205.0588              3209.8258
 Red. masses --      1.0886                 1.0934                 1.0902
 Frc consts  --      6.5429                 6.6174                 6.6177
 IR Inten    --     14.2234                38.3810                 7.0491

                    109                    110                    111
                      A                      A                      A
 Frequencies --   3214.7436              3229.3026              3256.5695
 Red. masses --      1.0960                 1.0938                 1.0960
 Frc consts  --      6.6734                 6.7207                 6.8480
 IR Inten    --     18.0053                 8.4446                 1.4683

                    112                    113                    114
                      A                      A                      A
 Frequencies --   3272.5243              3456.0508              3540.8675
 Red. masses --      1.0972                 1.0492                 1.0917
 Frc consts  --      6.9230                 7.3839                 8.0644
 IR Inten    --      1.4211                 2.1722                 2.2306

 - Thermochemistry -
 -------------------
 Temperature   298.150 Kelvin.  Pressure   1.00000 Atm.
 Atom     1 has atomic number  6 and mass  12.00000

 Molecular mass:   284.13472 amu.
 Principal axes and moments of inertia in atomic units:
                           1         2         3
     Eigenvalues --  4520.477666845.891269333.83745
           X            0.99880  -0.04887   0.00178
           Y            0.04884   0.99868   0.01562
           Z           -0.00254  -0.01551   0.99988
 This molecule is an asymmetric top.
 Rotational symmetry number  1.
 Warning -- assumption of classical behavior for rotation
           may cause significant error
 Rotational temperatures (Kelvin)      0.01916     0.01265     0.00928
 Rotational constants (GHZ):           0.39924     0.26362     0.19335
 Zero-point vibrational energy     887912.0 (Joules/Mol)
                                  212.21605 (Kcal/Mol)
 Warning -- explicit consideration of  29 degrees of freedom as
           vibrations may cause significant error
 Vibrational temperatures:     25.12    34.55    41.42    55.15   104.64
          (Kelvin)            121.41   180.78   209.04   255.31   261.03
                              298.43   336.08   348.83   394.61   426.07
                              453.43   474.34   543.13   587.43   629.75
                              664.80   682.04   724.75   770.30   802.92
                              823.83   835.46   842.69   887.46   941.87
                              959.77  1019.81  1032.88  1080.98  1089.29
                             1098.16  1120.60  1130.38  1149.26  1157.03
                             1205.11  1214.96  1232.18  1246.80  1304.35
                             1306.86  1321.59  1334.45  1385.76  1406.57
                             1409.80  1500.73  1508.30  1527.11  1532.15
                             1539.72  1585.05  1605.33  1624.13  1641.87
                             1669.09  1702.22  1719.90  1736.17  1775.44
                             1794.55  1801.48  1826.78  1854.22  1877.09
                             1934.87  1969.88  1974.40  1990.71  2002.51
                             2023.02  2035.68  2044.58  2057.70  2072.56
                             2079.95  2158.32  2164.36  2174.31  2179.53
                             2188.70  2204.07  2207.23  2214.39  2310.97
                             2318.23  2345.11  2407.42  2441.63  4344.89
                             4369.27  4380.62  4386.57  4397.03  4425.38
                             4442.88  4454.67  4474.29  4484.33  4580.41
                             4595.43  4611.36  4618.22  4625.30  4646.25
                             4685.48  4708.43  4972.49  5094.52

 Zero-point correction=                           0.338188 (Hartree/Particle)
 Thermal correction to Energy=                    0.356708
 Thermal correction to Enthalpy=                  0.357652
 Thermal correction to Gibbs Free Energy=         0.289002
 Sum of electronic and zero-point Energies=          -1167.285612
 Sum of electronic and thermal Energies=             -1167.267092
 Sum of electronic and thermal Enthalpies=           -1167.266148
 Sum of electronic and thermal Free Energies=        -1167.334798

                     E (Thermal)             CV                S
                      KCal/Mol        Cal/Mol-Kelvin    Cal/Mol-Kelvin
 Total                  223.838             72.325            144.487
 Electronic               0.000              0.000              0.000
 Translational            0.889              2.981             42.831
 Rotational               0.889              2.981             34.023
 Vibrational            222.060             66.363             67.632
 Vibration     1          0.593              1.986              6.904
 Vibration     2          0.593              1.985              6.271
 Vibration     3          0.593              1.984              5.911
 Vibration     4          0.594              1.982              5.343
 Vibration     5          0.599              1.967              4.078
 Vibration     6          0.601              1.960              3.786
 Vibration     7          0.611              1.927              3.012
 Vibration     8          0.617              1.908              2.733
 Vibration     9          0.628              1.870              2.355
 Vibration    10          0.630              1.865              2.314
 Vibration    11          0.641              1.829              2.066
 Vibration    12          0.654              1.790              1.851
 Vibration    13          0.659              1.775              1.785
 Vibration    14          0.677              1.721              1.569
 Vibration    15          0.690              1.681              1.439
 Vibration    16          0.703              1.645              1.335
 Vibration    17          0.712              1.616              1.262
 Vibration    18          0.748              1.518              1.049
 Vibration    19          0.773              1.452              0.933
 Vibration    20          0.798              1.388              0.834
 Vibration    21          0.820              1.334              0.760
 Vibration    22          0.831              1.308              0.726
 Vibration    23          0.859              1.242              0.649
 Vibration    24          0.890              1.172              0.575
 Vibration    25          0.914              1.122              0.528
 Vibration    26          0.929              1.091              0.499
 Vibration    27          0.937              1.073              0.484
 Vibration    28          0.943              1.062              0.475
 Vibration    29          0.976              0.996              0.422

 Optimization completed.
    -- Stationary point found.
 Normal termination of Gaussian 16 at Sun Dec 13 13:29:06 2020.

 ----------------------------------------------------------------------
 # B3LYP/6-311++G(d,p) empiricaldispersion=gd3bj scf=xqc pop=npa geom=c
 heck
 ----------------------------------------------------------------------

 ---------------------------------------
 CID_66404451_JID_10136_Energie_neutraal
 ---------------------------------------
 Structure from the checkpoint file:  "JID_10136.chk"
 Charge =  0 Multiplicity = 1

 SCF Done:  E(RB3LYP) =  -1167.85546140     A.U. after   16 cycles
 Normal termination of Gaussian 16 at Sun Dec 13 13:42:20 2020.

 ----------------------------------------------------------------------
 # B3LYP/6-311++G(d,p) empiricaldispersion=gd3bj scf=xqc pop=npa geom=c
 heck
 ----------------------------------------------------------------------

 -------------------------------------
 CID_66404451_JID_10136_Energie_kation
 -------------------------------------
 Structure from the checkpoint file:  "JID_10136.chk"
 Charge =  1 Multiplicity = 2

 SCF Done:  E(UB3LYP) =  -1167.59424904     A.U. after   30 cycles
 Normal termination of Gaussian 16 at Sun Dec 13 14:16:29 2020.
 Gaussian 16:  ES64L-G16RevA.03 25-Dec-2016

 ----------------------------------------------------------------------
 # B3LYP/6-311++G(d,p) empiricaldispersion=gd3bj scf=xqc pop=npa geom=c
 heck
 ----------------------------------------------------------------------

 ------------------------------------
 CID_66404451_JID_10136_Energie_anion
 ------------------------------------
 Structure from the checkpoint file:  "JID_10136.chk"
 Charge = -1 Multiplicity = 2

                         Standard orientation:
 ---------------------------------------------------------------------
 Center     Atomic      Atomic             Coordinates (Angstroms)
 Number     Number       Type             X           Y           Z
 ---------------------------------------------------------------------
      1          6           0        2.678027   -3.262170   -0.519405
      2          6           0        2.482791   -2.258607    0.618974
      3          6           0        3.355008   -1.000463    0.519018
      4          6           0        3.091365   -0.176400   -0.776088
      5          6           0        1.684210    0.327315   -0.899415
      6          6           0        0.645609   -0.286565   -1.554631
      7          7           0       -0.523881    0.450435   -1.421409
      8          6           0       -0.256802    1.551963   -0.627987
      9          6           0       -1.110354    2.561631   -0.174373
     10          6           0       -0.552067    3.574075    0.597589
     11          6           0        0.822175    3.580328    0.910528
     12          6           0        1.662208    2.565147    0.471027
     13          6           0        1.127552    1.518851   -0.299730
     14          6           0       -1.849436   -0.024693   -1.771766
     15          6           0       -2.617786   -0.544255   -0.588630
     16          6           0       -3.900191   -0.246404   -0.214900
     17          6           0       -4.315853   -0.930656    0.969333
     18          6           0       -3.336327   -1.733676    1.481626
     19         16           0       -1.886373   -1.670697    0.527295
     20          7           0        3.196982   -0.237590    1.762891
     21          1           0        2.363224   -2.855946   -1.487123
     22          1           0        2.093883   -4.171784   -0.341617
     23          1           0        3.730881   -3.555952   -0.613521
     24          1           0        1.428175   -1.955630    0.666696
     25          1           0        2.714131   -2.734729    1.578196
     26          1           0        4.405966   -1.321413    0.478699
     27          1           0        3.791196    0.670295   -0.785664
     28          1           0        3.344984   -0.788277   -1.650183
     29          1           0        0.638414   -1.201512   -2.131642
     30          1           0       -2.171223    2.549902   -0.402525
     31          1           0       -1.187459    4.373085    0.968464
     32          1           0        1.226827    4.390249    1.510629
     33          1           0        2.718558    2.576571    0.723654
     34          1           0       -2.420133    0.789397   -2.233041
     35          1           0       -1.720306   -0.798988   -2.536352
     36          1           0       -4.528608    0.443738   -0.768786
     37          1           0       -5.295044   -0.818239    1.421157
     38          1           0       -3.369507   -2.348456    2.370682
     39          1           0        3.801317    0.583097    1.743791
     40          1           0        2.244198    0.123307    1.814377
 ---------------------------------------------------------------------

 SCF Done:  E(UB3LYP) =  -1167.84694908     A.U. after   33 cycles
 SCF Done:  E(UB3LYP) =  -1167.84694907     a.u. after    1 cycles

 The electronic state is 2-A.
 Alpha  occ. eigenvalues --  -88.76725 -14.25438 -14.19364 -10.12225 -10.10043
 Alpha  occ. eigenvalues --  -10.09979 -10.09444 -10.09209 -10.09064 -10.07488
 Alpha  occ. eigenvalues --  -10.07273 -10.07133 -10.07087 -10.07083 -10.07077
 Alpha  occ. eigenvalues --  -10.06980 -10.06884 -10.06349 -10.06278 -10.06134
 Alpha  occ. eigenvalues --   -7.85344  -5.81632  -5.81265  -5.80950  -0.88632
 Alpha  occ. eigenvalues --   -0.79277  -0.77814  -0.74689  -0.71013  -0.67642
 Alpha  occ. eigenvalues --   -0.66029  -0.63731  -0.63137  -0.62879  -0.60545
 Alpha  occ. eigenvalues --   -0.57093  -0.54386  -0.51911  -0.49017  -0.48180
 Alpha  occ. eigenvalues --   -0.46052  -0.45054  -0.44132  -0.41402  -0.40342
 Alpha  occ. eigenvalues --   -0.39220  -0.39046  -0.37561  -0.36247  -0.35418
 Alpha  occ. eigenvalues --   -0.34638  -0.33904  -0.32998  -0.32357  -0.31353
 Alpha  occ. eigenvalues --   -0.30856  -0.30308  -0.29851  -0.28654  -0.28245
 Alpha  occ. eigenvalues --   -0.27617  -0.27114  -0.26630  -0.25895  -0.25275
 Alpha  occ. eigenvalues --   -0.24426  -0.23702  -0.23335  -0.22892  -0.22361
 Alpha  occ. eigenvalues --   -0.17620  -0.15246  -0.15088  -0.13558  -0.12726
 Alpha  occ. eigenvalues --   -0.10197   0.04274
 Alpha virt. eigenvalues --    0.06333   0.06682   0.07036   0.07321   0.07587
 Alpha virt. eigenvalues --    0.08052   0.08545   0.08831   0.09479   0.10058
 Alpha virt. eigenvalues --    0.10390   0.10648   0.10889   0.11133   0.11330

  Beta  occ. eigenvalues --  -88.76710 -14.25425 -14.19362 -10.12207 -10.10052
  Beta  occ. eigenvalues --  -10.09973 -10.09305 -10.09130 -10.08939 -10.07494
  Beta  occ. eigenvalues --  -10.07235 -10.07087 -10.07068 -10.07062 -10.07060
  Beta  occ. eigenvalues --  -10.06982 -10.06875 -10.06331 -10.06275 -10.06111
  Beta  occ. eigenvalues --   -7.85330  -5.81625  -5.81260  -5.80898  -0.88584
  Beta  occ. eigenvalues --   -0.79266  -0.77673  -0.74631  -0.70929  -0.67610
  Beta  occ. eigenvalues --   -0.65928  -0.63647  -0.63040  -0.62798  -0.60433
  Beta  occ. eigenvalues --   -0.57020  -0.54345  -0.51789  -0.48980  -0.48097
  Beta  occ. eigenvalues --   -0.45945  -0.44998  -0.43969  -0.41326  -0.40243
  Beta  occ. eigenvalues --   -0.39161  -0.39006  -0.37507  -0.36219  -0.35398
  Beta  occ. eigenvalues --   -0.34576  -0.33849  -0.32921  -0.32279  -0.31300
  Beta  occ. eigenvalues --   -0.30812  -0.30260  -0.29790  -0.28549  -0.28183
  Beta  occ. eigenvalues --   -0.27549  -0.26933  -0.26506  -0.25850  -0.25229
  Beta  occ. eigenvalues --   -0.24317  -0.23644  -0.23309  -0.22744  -0.22335
  Beta  occ. eigenvalues --   -0.17408  -0.15116  -0.14917  -0.12893  -0.12567
  Beta  occ. eigenvalues --   -0.09949
  Beta virt. eigenvalues --    0.06363   0.06804   0.07108   0.07493   0.07811
  Beta virt. eigenvalues --    0.07979   0.08239   0.08894   0.09256   0.09558
  Beta virt. eigenvalues --    0.10369   0.10492   0.10779   0.11064   0.11187

 Mulliken charges and spin densities:
               1          2
     1  C    0.042591  -0.729561
     2  C   -0.604864   0.527065
     3  C    0.000807  -0.462509
     4  C    0.365348  -0.696283
     5  C    0.475067   0.378661
     6  C   -0.237290  -0.092199
     7  N    0.239235   0.125266
     8  C   -0.064069  -0.038670
     9  C   -0.447070   0.008356
    10  C   -0.370889  -0.117432
    11  C   -0.413974  -0.101183
    12  C   -0.425117   0.075797
    13  C    0.260151   0.114407
    14  C    2.037468  -2.771127
    15  C   -0.058406   0.721759
    16  C   -1.176973   1.257510
    17  C    0.220391  -0.886036
    18  C   -0.222782   0.393633
    19  S   -0.248628  -0.054689
    20  N   -0.305611   0.008961
    21  H   -0.059849   0.196974
    22  H   -0.028521   0.159160
    23  H   -0.009258   0.136103
    24  H    0.220215  -0.070186
    25  H    0.131389   0.054170
    26  H    0.018364   0.168360
    27  H    0.001686   0.172308
    28  H   -0.119766   0.296295
    29  H   -0.196711   0.380917
    30  H    0.129428  -0.010461
    31  H    0.129435   0.011924
    32  H    0.101979   0.031834
    33  H    0.031650   0.074837
    34  H    0.038617   0.130378
    35  H   -0.693604   0.915277
    36  H   -0.351348   0.503258
    37  H    0.061888   0.057652
    38  H    0.110263   0.104680
    39  H    0.201763   0.020225
    40  H    0.216995   0.004566
 Sum of Mulliken charges =  -1.00000   1.00000

 Dipole moment (field-independent basis, Debye):
    X=              0.2038    Y=              2.4855    Z=              4.1488  Tot=              4.8406
 Quadrupole moment (field-independent basis, Debye-Ang):
   XX=           -186.1732   YY=           -167.0477   ZZ=           -171.4847
   XY=              0.9055   XZ=             -6.9242   YZ=             -5.0277

 Summary of Natural Population Analysis:

                                       Natural Population
                Natural  -----------------------------------------------
    Atom  No    Charge         Core      Valence    Rydberg      Total
 -----------------------------------------------------------------------
      C    1   -0.28597      0.99966     2.28144    0.00486     3.28597
      C    2   -0.19879      0.99961     2.19032    0.00886     3.19879
      C    3   -0.00582      0.99960     1.99430    0.01193     3.00582
      C    4   -0.20469      0.99958     2.19498    0.01013     3.20469
      C    5   -0.05814      0.99948     2.04742    0.01124     3.05814
      C    6    0.02514      0.99948     1.96374    0.01164     2.97486
      N    7   -0.20919      0.99962     2.69764    0.01193     3.70919
      C    8    0.08618      0.99947     1.90348    0.01087     2.91382
      C    9   -0.11036      0.99952     2.10219    0.00865     3.11036
      C   10   -0.10641      0.99959     2.09729    0.00953     3.10641
      C   11   -0.12160      0.99958     2.11199    0.01003     3.12160
      C   12   -0.09210      0.99953     2.08472    0.00785     3.09210
      C   13   -0.04321      0.99946     2.03402    0.00973     3.04321
      C   14   -0.09416      0.99955     2.08069    0.01393     3.09416
      C   15   -0.08521      0.99949     2.07244    0.01328     3.08521
      C   16   -0.12996      0.99945     2.11945    0.01106     3.12996
      C   17   -0.13272      0.99953     2.12355    0.00964     3.13272
      C   18   -0.17618      0.99954     2.16593    0.01071     3.17618
      S   19    0.21096      4.99940     2.76857    0.02107     7.78904
      N   20   -0.42347      0.99977     2.91400    0.00971     3.92347
      H   21    0.09763      0.00000     0.40123    0.00114     0.40237
      H   22    0.09910      0.00000     0.40017    0.00073     0.40090
      H   23    0.09356      0.00000     0.40548    0.00096     0.40644
      H   24    0.10208      0.00000     0.39638    0.00154     0.39792
      H   25    0.09919      0.00000     0.39971    0.00110     0.40081
      H   26    0.08449      0.00000     0.41380    0.00171     0.41551
      H   27    0.09936      0.00000     0.39938    0.00127     0.40064
      H   28    0.10604      0.00000     0.39277    0.00119     0.39396
      H   29    0.10375      0.00000     0.39456    0.00169     0.39625
      H   30    0.10382      0.00000     0.39474    0.00144     0.39618
      H   31    0.09601      0.00000     0.40326    0.00074     0.40399
      H   32    0.09592      0.00000     0.40330    0.00078     0.40408
      H   33    0.09621      0.00000     0.40218    0.00160     0.40379
      H   34    0.10500      0.00000     0.39318    0.00182     0.39500
      H   35    0.11461      0.00000     0.38092    0.00447     0.38539
      H   36    0.10453      0.00000     0.39435    0.00112     0.39547
      H   37    0.10228      0.00000     0.39694    0.00078     0.39772
      H   38    0.10444      0.00000     0.39477    0.00078     0.39556
      H   39    0.16980      0.00000     0.32851    0.00169     0.33020
      H   40    0.17791      0.00000     0.32004    0.00205     0.32209
 =======================================================================
   * Total *    0.00000     23.99091    51.76384    0.24525    76.00000

 Normal termination of Gaussian 16 at Sun Dec 13 14:52:28 2020.
