 Gaussian 16, Revision A.03,

 -----------------------------------------------------------
 # opt freq B3LYP/6-31G(d) empiricaldispersion=gd3bj scf=xqc
 -----------------------------------------------------------

 -------------------------------
 CID_116809768_JID_6799_neutraal
 -------------------------------
 Symbolic Z-matrix:
 Charge =  0 Multiplicity = 1

 SCF Done:  E(RB3LYP) =  -767.804464220     A.U. after   15 cycles
 SCF Done:  E(RB3LYP) =  -767.808161995     A.U. after   14 cycles
 SCF Done:  E(RB3LYP) =  -767.807042387     A.U. after   13 cycles
 SCF Done:  E(RB3LYP) =  -767.809575433     A.U. after   13 cycles
 SCF Done:  E(RB3LYP) =  -767.810854231     A.U. after   13 cycles
 SCF Done:  E(RB3LYP) =  -767.812161994     A.U. after   11 cycles
 SCF Done:  E(RB3LYP) =  -767.812596411     A.U. after   12 cycles
 SCF Done:  E(RB3LYP) =  -767.813083223     A.U. after   13 cycles
 SCF Done:  E(RB3LYP) =  -767.813688738     A.U. after   13 cycles
 SCF Done:  E(RB3LYP) =  -767.814042085     A.U. after   12 cycles
 SCF Done:  E(RB3LYP) =  -767.814654691     A.U. after   10 cycles
 SCF Done:  E(RB3LYP) =  -767.814654800     A.U. after    9 cycles
 SCF Done:  E(RB3LYP) =  -767.814655120     A.U. after    8 cycles
 SCF Done:  E(RB3LYP) =  -767.814655201     A.U. after    7 cycles
 SCF Done:  E(RB3LYP) =  -767.814655203     A.U. after    8 cycles
 Optimization completed.
    -- Stationary point found.
 Normal termination of Gaussian 16 at Fri Dec 11 00:46:32 2020.

 --------------------------------------------------------------------
 #N Geom=AllCheck Guess=TCheck SCRF=Check GenChk RB3LYP/6-31G(d) Freq
 --------------------------------------------------------------------

 Structure from the checkpoint file:  "JID_6799.chk"
 -------------------------------
 CID_116809768_JID_6799_neutraal
 -------------------------------
 Charge =  0 Multiplicity = 1

 SCF Done:  E(RB3LYP) =  -767.814655203     A.U. after    1 cycles

  Exact polarizability: 159.554  -5.872 148.054   5.460   7.704  93.878
 Approx polarizability: 236.152 -12.859 227.640  13.756  19.270 146.553

                      1                      2                      3
                      A                      A                      A
 Frequencies --     27.8655                55.0050                71.7122
 Red. masses --      5.1369                 6.6297                 3.1861
 Frc consts  --      0.0024                 0.0118                 0.0097
 IR Inten    --      0.5244                 3.3522                 3.7425

                      4                      5                      6
                      A                      A                      A
 Frequencies --     82.7283                87.0251               129.0163
 Red. masses --      3.8244                 3.7191                 3.0565
 Frc consts  --      0.0154                 0.0166                 0.0300
 IR Inten    --      8.0670                 4.7009                 3.9389

                      7                      8                      9
                      A                      A                      A
 Frequencies --    166.0697               175.7588               191.2655
 Red. masses --      2.9771                 2.9214                 1.2450
 Frc consts  --      0.0484                 0.0532                 0.0268
 IR Inten    --      2.7928                 1.4721                 0.4640

                     10                     11                     12
                      A                      A                      A
 Frequencies --    209.5061               238.0734               273.1459
 Red. masses --      3.6696                 2.6547                 2.9533
 Frc consts  --      0.0949                 0.0887                 0.1298
 IR Inten    --      2.4575                 1.2562                 1.0085

                     13                     14                     15
                      A                      A                      A
 Frequencies --    294.8420               319.2536               321.5255
 Red. masses --      1.4649                 3.4664                 2.5498
 Frc consts  --      0.0750                 0.2082                 0.1553
 IR Inten    --      1.0071                 1.3406                 3.1739

                     16                     17                     18
                      A                      A                      A
 Frequencies --    339.1360               352.9021               382.4267
 Red. masses --      1.6722                 2.2732                 4.3236
 Frc consts  --      0.1133                 0.1668                 0.3726
 IR Inten    --      0.3230                 1.2405                 6.7012

                     19                     20                     21
                      A                      A                      A
 Frequencies --    389.1006               431.8487               463.2264
 Red. masses --      3.4632                 3.3859                 3.7777
 Frc consts  --      0.3089                 0.3720                 0.4776
 IR Inten    --      6.2518                 2.6900                 3.3074

                     22                     23                     24
                      A                      A                      A
 Frequencies --    509.1045               540.0165               549.4742
 Red. masses --      3.7840                 5.6612                 3.2672
 Frc consts  --      0.5778                 0.9727                 0.5812
 IR Inten    --      2.2341                 2.3618                13.2505

                     25                     26                     27
                      A                      A                      A
 Frequencies --    584.5733               602.1027               640.7923
 Red. masses --      3.7103                 3.2659                 1.3118
 Frc consts  --      0.7470                 0.6976                 0.3174
 IR Inten    --      0.3295                12.4448                99.5555

                     28                     29                     30
                      A                      A                      A
 Frequencies --    654.4466               673.8276               745.4987
 Red. masses --      3.0194                 3.6547                 1.7159
 Frc consts  --      0.7619                 0.9777                 0.5619
 IR Inten    --     13.7450                17.3117                17.5034

                     31                     32                     33
                      A                      A                      A
 Frequencies --    767.1976               795.6838               842.7039
 Red. masses --      5.2660                 2.7974                 1.6948
 Frc consts  --      1.8262                 1.0435                 0.7091
 IR Inten    --      3.2354                25.7296                 7.1154

                     34                     35                     36
                      A                      A                      A
 Frequencies --    864.8995               894.4193               930.0916
 Red. masses --      1.4643                 2.9594                 5.0670
 Frc consts  --      0.6454                 1.3949                 2.5826
 IR Inten    --      0.5392                 5.4949                 2.5191

                     37                     38                     39
                      A                      A                      A
 Frequencies --    955.4211               960.0405              1003.9074
 Red. masses --      1.2910                 2.1384                 1.7563
 Frc consts  --      0.6943                 1.1612                 1.0429
 IR Inten    --      3.6486                46.3341                 9.3245

                     40                     41                     42
                      A                      A                      A
 Frequencies --   1054.1488              1061.6829              1092.0522
 Red. masses --      2.6492                 6.8126                 3.2753
 Frc consts  --      1.7345                 4.5243                 2.3014
 IR Inten    --     15.8217                36.8831                12.3880

                     43                     44                     45
                      A                      A                      A
 Frequencies --   1127.3148              1136.2593              1158.4019
 Red. masses --      3.9342                 1.9816                 2.1488
 Frc consts  --      2.9458                 1.5073                 1.6989
 IR Inten    --    196.2171                60.2085                25.0597

                     46                     47                     48
                      A                      A                      A
 Frequencies --   1173.7173              1185.3760              1196.0025
 Red. masses --      2.3478                 1.2706                 1.2728
 Frc consts  --      1.9056                 1.0519                 1.0727
 IR Inten    --     75.7663                 0.3674                 5.2577

                     49                     50                     51
                      A                      A                      A
 Frequencies --   1200.8195              1206.7908              1223.2672
 Red. masses --      1.9172                 1.3665                 1.4093
 Frc consts  --      1.6288                 1.1725                 1.2425
 IR Inten    --      8.2247                13.0123                 0.1983

                     52                     53                     54
                      A                      A                      A
 Frequencies --   1230.0569              1258.5740              1275.7687
 Red. masses --      1.3866                 1.4872                 2.0771
 Frc consts  --      1.2361                 1.3880                 1.9918
 IR Inten    --      7.6324                12.0975               132.2516

                     55                     56                     57
                      A                      A                      A
 Frequencies --   1306.0876              1319.5703              1346.2246
 Red. masses --      1.6227                 4.6004                 6.6176
 Frc consts  --      1.6310                 4.7196                 7.0661
 IR Inten    --     47.1540                84.7920                 5.7551

                     58                     59                     60
                      A                      A                      A
 Frequencies --   1424.5954              1444.5056              1452.9388
 Red. masses --      1.2574                 1.2034                 1.4250
 Frc consts  --      1.5035                 1.4794                 1.7725
 IR Inten    --     89.7103                 1.8940                81.0854

                     61                     62                     63
                      A                      A                      A
 Frequencies --   1488.1639              1496.8617              1498.0243
 Red. masses --      1.4025                 1.6658                 1.1617
 Frc consts  --      1.8300                 2.1991                 1.5360
 IR Inten    --     74.5410                 8.2044                10.3828

                     64                     65                     66
                      A                      A                      A
 Frequencies --   1512.3510              1515.5820              1522.6768
 Red. masses --      1.1998                 1.3235                 1.0480
 Frc consts  --      1.6168                 1.7911                 1.4317
 IR Inten    --      5.5732                 7.5159                 5.4193

                     67                     68                     69
                      A                      A                      A
 Frequencies --   1523.6614              1528.9774              1531.1487
 Red. masses --      1.0667                 1.4795                 1.1652
 Frc consts  --      1.4591                 2.0379                 1.6095
 IR Inten    --      9.0392                66.5968                30.0531

                     70                     71                     72
                      A                      A                      A
 Frequencies --   1539.3360              1544.0021              1643.5320
 Red. masses --      1.1237                 1.0615                 6.2971
 Frc consts  --      1.5687                 1.4910                10.0218
 IR Inten    --      3.9614                 7.0095                79.9977

                     73                     74                     75
                      A                      A                      A
 Frequencies --   1653.9064              1816.8433              2918.7818
 Red. masses --      6.0934                 9.3863                 1.0836
 Frc consts  --      9.8204                18.2548                 5.4390
 IR Inten    --     51.7836               133.6702                86.3561

                     76                     77                     78
                      A                      A                      A
 Frequencies --   3030.7014              3051.4280              3056.6902
 Red. masses --      1.0341                 1.0304                 1.0676
 Frc consts  --      5.5963                 5.6528                 5.8773
 IR Inten    --     56.9240                50.7383                13.1682

                     79                     80                     81
                      A                      A                      A
 Frequencies --   3078.9930              3092.4135              3125.9570
 Red. masses --      1.0387                 1.1070                 1.1075
 Frc consts  --      5.8018                 6.2370                 6.3760
 IR Inten    --     22.2754                35.8439                16.6346

                     82                     83                     84
                      A                      A                      A
 Frequencies --   3152.0796              3155.8216              3158.7111
 Red. masses --      1.0998                 1.0954                 1.1004
 Frc consts  --      6.4379                 6.4278                 6.4689
 IR Inten    --     23.4096                12.0719                22.4550

                     85                     86                     87
                      A                      A                      A
 Frequencies --   3160.0237              3180.3822              3198.7524
 Red. masses --      1.1049                 1.1028                 1.0880
 Frc consts  --      6.5007                 6.5721                 6.5588
 IR Inten    --     16.5156                17.9383                 9.2470

                     88                     89                     90
                      A                      A                      A
 Frequencies --   3222.9731              3242.8928              3669.2971
 Red. masses --      1.0935                 1.0914                 1.0646
 Frc consts  --      6.6922                 6.7627                 8.4448
 IR Inten    --     12.1515                 8.9876               108.4779

 - Thermochemistry -
 -------------------
 Temperature   298.150 Kelvin.  Pressure   1.00000 Atm.
 Atom     1 has atomic number  6 and mass  12.00000

 Molecular mass:   224.10486 amu.
 Principal axes and moments of inertia in atomic units:
                           1         2         3
     Eigenvalues --  2838.116253453.199814396.47559
           X            0.99924  -0.03887   0.00049
           Y            0.03885   0.99899   0.02254
           Z           -0.00137  -0.02251   0.99975
 This molecule is an asymmetric top.
 Rotational symmetry number  1.
 Warning -- assumption of classical behavior for rotation
           may cause significant error
 Rotational temperatures (Kelvin)      0.03052     0.02508     0.01970
 Rotational constants (GHZ):           0.63589     0.52263     0.41050
 Zero-point vibrational energy     698025.5 (Joules/Mol)
                                  166.83211 (Kcal/Mol)
 Warning -- explicit consideration of  26 degrees of freedom as
           vibrations may cause significant error
 Vibrational temperatures:     40.09    79.14   103.18   119.03   125.21
          (Kelvin)            185.63   238.94   252.88   275.19   301.43
                              342.53   393.00   424.21   459.33   462.60
                              487.94   507.75   550.23   559.83   621.33
                              666.48   732.49   776.96   790.57   841.07
                              866.29   921.96   941.60   969.49  1072.61
                             1103.83  1144.81  1212.46  1244.40  1286.87
                             1338.19  1374.64  1381.28  1444.40  1516.68
                             1527.52  1571.22  1621.95  1634.82  1666.68
                             1688.72  1705.49  1720.78  1727.71  1736.30
                             1760.01  1769.78  1810.81  1835.55  1879.17
                             1898.57  1936.92  2049.68  2078.32  2090.45
                             2141.14  2153.65  2155.32  2175.94  2180.58
                             2190.79  2192.21  2199.86  2202.98  2214.76
                             2221.47  2364.68  2379.60  2614.03  4199.48
                             4360.50  4390.32  4397.90  4429.98  4449.29
                             4497.55  4535.14  4540.52  4544.68  4546.57
                             4575.86  4602.29  4637.14  4665.80  5279.30

 Zero-point correction=                           0.265864 (Hartree/Particle)
 Thermal correction to Energy=                    0.282165
 Thermal correction to Enthalpy=                  0.283110
 Thermal correction to Gibbs Free Energy=         0.222095
 Sum of electronic and zero-point Energies=           -767.548791
 Sum of electronic and thermal Energies=              -767.532490
 Sum of electronic and thermal Enthalpies=            -767.531546
 Sum of electronic and thermal Free Energies=         -767.592560

                     E (Thermal)             CV                S
                      KCal/Mol        Cal/Mol-Kelvin    Cal/Mol-Kelvin
 Total                  177.061             61.324            128.415
 Electronic               0.000              0.000              0.000
 Translational            0.889              2.981             42.123
 Rotational               0.889              2.981             32.133
 Vibrational            175.284             55.363             54.159
 Vibration     1          0.593              1.984              5.976
 Vibration     2          0.596              1.976              4.629
 Vibration     3          0.598              1.967              4.106
 Vibration     4          0.600              1.961              3.825
 Vibration     5          0.601              1.958              3.726
 Vibration     6          0.612              1.924              2.961
 Vibration     7          0.624              1.884              2.480
 Vibration     8          0.628              1.872              2.373
 Vibration     9          0.634              1.852              2.216
 Vibration    10          0.642              1.826              2.048
 Vibration    11          0.656              1.782              1.817
 Vibration    12          0.676              1.723              1.576
 Vibration    13          0.689              1.683              1.446
 Vibration    14          0.705              1.637              1.314
 Vibration    15          0.707              1.632              1.302
 Vibration    16          0.719              1.597              1.216
 Vibration    17          0.729              1.569              1.153
 Vibration    18          0.752              1.508              1.030
 Vibration    19          0.757              1.493              1.004
 Vibration    20          0.793              1.401              0.853
 Vibration    21          0.821              1.332              0.757
 Vibration    22          0.864              1.230              0.636
 Vibration    23          0.895              1.162              0.565
 Vibration    24          0.905              1.141              0.545
 Vibration    25          0.942              1.065              0.477
 Vibration    26          0.960              1.027              0.446

 Optimization completed.
    -- Stationary point found.
 Normal termination of Gaussian 16 at Fri Dec 11 00:58:32 2020.

 ----------------------------------------------------------------------
 # B3LYP/6-311++G(d,p) empiricaldispersion=gd3bj scf=xqc pop=npa geom=c
 heck
 ----------------------------------------------------------------------

 ---------------------------------------
 CID_116809768_JID_6799_Energie_neutraal
 ---------------------------------------
 Structure from the checkpoint file:  "JID_6799.chk"
 Charge =  0 Multiplicity = 1

 SCF Done:  E(RB3LYP) =  -768.041149043     A.U. after   16 cycles
 Normal termination of Gaussian 16 at Fri Dec 11 01:03:33 2020.

 ----------------------------------------------------------------------
 # B3LYP/6-311++G(d,p) empiricaldispersion=gd3bj scf=xqc pop=npa geom=c
 heck
 ----------------------------------------------------------------------

 -------------------------------------
 CID_116809768_JID_6799_Energie_kation
 -------------------------------------
 Structure from the checkpoint file:  "JID_6799.chk"
 Charge =  1 Multiplicity = 2

 SCF Done:  E(UB3LYP) =  -767.739579590     A.U. after   27 cycles
 Normal termination of Gaussian 16 at Fri Dec 11 01:14:49 2020.
 Gaussian 16:  ES64L-G16RevA.03 25-Dec-2016

 ----------------------------------------------------------------------
 # B3LYP/6-311++G(d,p) empiricaldispersion=gd3bj scf=xqc pop=npa geom=c
 heck
 ----------------------------------------------------------------------

 ------------------------------------
 CID_116809768_JID_6799_Energie_anion
 ------------------------------------
 Structure from the checkpoint file:  "JID_6799.chk"
 Charge = -1 Multiplicity = 2

                         Standard orientation:
 ---------------------------------------------------------------------
 Center     Atomic      Atomic             Coordinates (Angstroms)
 Number     Number       Type             X           Y           Z
 ---------------------------------------------------------------------
      1          6           0        0.804622   -2.343802   -1.067454
      2          6           0       -0.315026   -1.354296   -0.729213
      3          6           0       -1.118268   -1.880065    0.510769
      4          6           0       -0.494953   -1.490515    1.824555
      5          8           0       -1.021064   -0.755224    2.635982
      6          6           0        0.120753    0.109539   -0.462904
      7          6           0       -0.856219    1.121021   -0.482534
      8          6           0       -0.561157    2.469694   -0.283085
      9          6           0        0.748164    2.841506   -0.014828
     10          6           0        1.744857    1.874386    0.067765
     11          6           0        1.434890    0.524209   -0.139585
     12          8           0        2.378978   -0.453586   -0.003328
     13          6           0        3.709429   -0.085699    0.316898
     14          8           0       -2.173027    0.757699   -0.732953
     15          6           0       -3.100397    1.078297    0.314554
     16          8           0       -1.157372   -1.417353   -1.877205
     17          1           0        1.429358   -2.584374   -0.207677
     18          1           0        1.441235   -1.954999   -1.864265
     19          1           0        0.314738   -3.253973   -1.426605
     20          1           0       -2.133680   -1.482720    0.483994
     21          1           0       -1.171649   -2.973989    0.435518
     22          1           0        0.519871   -1.901198    2.019390
     23          1           0       -1.353150    3.207107   -0.349210
     24          1           0        0.998982    3.886820    0.138553
     25          1           0        2.758734    2.173950    0.298395
     26          1           0        4.269579   -1.021083    0.364311
     27          1           0        4.146259    0.560308   -0.455105
     28          1           0        3.764801    0.421704    1.288394
     29          1           0       -4.046549    0.613342    0.030134
     30          1           0       -2.750096    0.673893    1.270055
     31          1           0       -3.243485    2.160766    0.398988
     32          1           0       -1.865229   -0.763507   -1.734471
 ---------------------------------------------------------------------

 SCF Done:  E(UB3LYP) =  -768.031627733     A.U. after   33 cycles
 SCF Done:  E(UB3LYP) =  -768.031627733     a.u. after    1 cycles

 The electronic state is 2-A.
 Alpha  occ. eigenvalues --  -19.05644 -19.05180 -19.00910 -18.99448 -10.14135
 Alpha  occ. eigenvalues --  -10.13909 -10.13189 -10.12820 -10.12748 -10.11932
 Alpha  occ. eigenvalues --  -10.08123 -10.07540 -10.06857 -10.06714 -10.06601
 Alpha  occ. eigenvalues --  -10.05360  -0.97163  -0.96931  -0.92486  -0.91827
 Alpha  occ. eigenvalues --   -0.75513  -0.69378  -0.65639  -0.65334  -0.61078
 Alpha  occ. eigenvalues --   -0.60088  -0.59547  -0.52689  -0.49296  -0.48686
 Alpha  occ. eigenvalues --   -0.45923  -0.44085  -0.41375  -0.40308  -0.38673
 Alpha  occ. eigenvalues --   -0.38212  -0.37884  -0.36833  -0.36396  -0.35096
 Alpha  occ. eigenvalues --   -0.33619  -0.32975  -0.31857  -0.30680  -0.29886
 Alpha  occ. eigenvalues --   -0.28755  -0.28567  -0.28385  -0.26943  -0.26529
 Alpha  occ. eigenvalues --   -0.25696  -0.25599  -0.23447  -0.22829  -0.21739
 Alpha  occ. eigenvalues --   -0.19712  -0.17621  -0.14179  -0.13573  -0.12512
 Alpha  occ. eigenvalues --    0.04440
 Alpha virt. eigenvalues --    0.06329   0.06488   0.07434   0.08358   0.08701
 Alpha virt. eigenvalues --    0.08892   0.09710   0.09815   0.10429   0.10632
 Alpha virt. eigenvalues --    0.11153   0.11446   0.12298   0.13224   0.13347

  Beta  occ. eigenvalues --  -19.05643 -19.05169 -19.00897 -18.99244 -10.14101
  Beta  occ. eigenvalues --  -10.13915 -10.13145 -10.12796 -10.12530 -10.11878
  Beta  occ. eigenvalues --  -10.08106 -10.07495 -10.06862 -10.06731 -10.06564
  Beta  occ. eigenvalues --  -10.05358  -0.97136  -0.96905  -0.92124  -0.91753
  Beta  occ. eigenvalues --   -0.75454  -0.69291  -0.65578  -0.65252  -0.60990
  Beta  occ. eigenvalues --   -0.60016  -0.59491  -0.52599  -0.49140  -0.48608
  Beta  occ. eigenvalues --   -0.45610  -0.44027  -0.41323  -0.40257  -0.38638
  Beta  occ. eigenvalues --   -0.38120  -0.37813  -0.36786  -0.36327  -0.35040
  Beta  occ. eigenvalues --   -0.33477  -0.32835  -0.31758  -0.30478  -0.29816
  Beta  occ. eigenvalues --   -0.28679  -0.28508  -0.28276  -0.26791  -0.26480
  Beta  occ. eigenvalues --   -0.25656  -0.24870  -0.23283  -0.22793  -0.21670
  Beta  occ. eigenvalues --   -0.19663  -0.17563  -0.13985  -0.13410  -0.12432
  Beta virt. eigenvalues --    0.06653   0.07336   0.07915   0.08177   0.08929
  Beta virt. eigenvalues --    0.09110   0.09430   0.09849   0.10092   0.10631
  Beta virt. eigenvalues --    0.11133   0.11372   0.11610   0.12465   0.13347

 Mulliken charges and spin densities:
               1          2
     1  C   -0.158273  -0.055075
     2  C   -0.652966  -0.175002
     3  C   -0.180333   0.147148
     4  C   -0.055017  -0.053807
     5  O   -0.265359   0.072040
     6  C    1.145486   0.381826
     7  C   -0.886438   0.512820
     8  C    0.357331  -0.620008
     9  C    0.991502  -1.421405
    10  C   -0.027394  -0.305960
    11  C   -1.090853   0.661417
    12  O   -0.157185   0.057294
    13  C    1.059762  -1.293648
    14  O   -0.176450   0.004107
    15  C    0.024634  -0.336025
    16  O   -0.139781  -0.000812
    17  H    0.122538   0.034209
    18  H    0.155209   0.021061
    19  H    0.154746   0.001835
    20  H    0.176149  -0.005640
    21  H    0.123981   0.027215
    22  H    0.014360   0.074912
    23  H   -0.039769   0.186064
    24  H   -0.539488   0.707270
    25  H   -0.293202   0.472993
    26  H   -0.560368   0.737231
    27  H   -0.230279   0.379050
    28  H   -0.250768   0.401437
    29  H   -0.024382   0.157740
    30  H    0.148779   0.039419
    31  H   -0.067438   0.183827
    32  H    0.321266   0.006466
 Sum of Mulliken charges =  -1.00000   1.00000

 Dipole moment (field-independent basis, Debye):
    X=             -5.9574    Y=             -2.4578    Z=             -1.9711  Tot=              6.7392
 Quadrupole moment (field-independent basis, Debye-Ang):
   XX=           -155.7050   YY=           -136.3950   ZZ=           -134.7846
   XY=             -4.2817   XZ=             -2.5178   YZ=             -1.1245

 Summary of Natural Population Analysis:

                                       Natural Population
                Natural  -----------------------------------------------
    Atom  No    Charge         Core      Valence    Rydberg      Total
 -----------------------------------------------------------------------
      C    1   -0.28790      0.99962     2.28001    0.00827     3.28790
      C    2    0.13767      0.99953     1.84678    0.01602     2.86233
      C    3   -0.24470      0.99957     2.23558    0.00955     3.24470
      C    4    0.24853      0.99972     1.73154    0.02020     2.75147
      O    5   -0.26708      0.99988     3.26028    0.00692     4.26708
      C    6   -0.06280      0.99939     2.05110    0.01231     3.06280
      C    7    0.17199      0.99934     1.81544    0.01323     2.82801
      C    8   -0.14024      0.99951     2.13122    0.00951     3.14024
      C    9   -0.07822      0.99957     2.06857    0.01007     3.07822
      C   10   -0.14278      0.99952     2.13392    0.00934     3.14278
      C   11    0.17370      0.99936     1.81386    0.01308     2.82630
      O   12   -0.27663      0.99986     3.26586    0.01091     4.27663
      C   13   -0.09944      0.99959     2.09084    0.00901     3.09944
      O   14   -0.30716      0.99986     3.29724    0.01006     4.30716
      C   15   -0.10301      0.99959     2.09449    0.00893     3.10301
      O   16   -0.38239      0.99989     3.37606    0.00644     4.38239
      H   17    0.10591      0.00000     0.39278    0.00132     0.39409
      H   18    0.10577      0.00000     0.39334    0.00089     0.39423
      H   19    0.09826      0.00000     0.40085    0.00089     0.40174
      H   20    0.10498      0.00000     0.39352    0.00150     0.39502
      H   21    0.10604      0.00000     0.39290    0.00107     0.39396
      H   22    0.04453      0.00000     0.45308    0.00239     0.45547
      H   23    0.10331      0.00000     0.39557    0.00112     0.39669
      H   24    0.10123      0.00000     0.39749    0.00127     0.39877
      H   25    0.10881      0.00000     0.38936    0.00183     0.39119
      H   26    0.09487      0.00000     0.40357    0.00155     0.40513
      H   27    0.08600      0.00000     0.41219    0.00181     0.41400
      H   28    0.08780      0.00000     0.41035    0.00185     0.41220
      H   29    0.08778      0.00000     0.41139    0.00083     0.41222
      H   30    0.10133      0.00000     0.39744    0.00123     0.39867
      H   31    0.08337      0.00000     0.41554    0.00109     0.41663
      H   32    0.24047      0.00000     0.25677    0.00275     0.25953
 =======================================================================
   * Total *    0.00000     15.99379    43.80895    0.19726    60.00000

 Normal termination of Gaussian 16 at Fri Dec 11 01:28:16 2020.
