 Gaussian 16, Revision A.03,

 -----------------------------------------------------------
 # opt freq B3LYP/6-31G(d) empiricaldispersion=gd3bj scf=xqc
 -----------------------------------------------------------

 -------------------------------
 CID_151921732_JID_2778_neutraal
 -------------------------------
 Symbolic Z-matrix:
 Charge =  0 Multiplicity = 1

 SCF Done:  E(RB3LYP) =  -877.515887679     A.U. after   14 cycles
 SCF Done:  E(RB3LYP) =  -877.515765830     A.U. after   15 cycles
 SCF Done:  E(RB3LYP) =  -877.518805832     A.U. after   13 cycles
 SCF Done:  E(RB3LYP) =  -877.519852362     A.U. after   14 cycles
 SCF Done:  E(RB3LYP) =  -877.520485027     A.U. after   11 cycles
 SCF Done:  E(RB3LYP) =  -877.520352042     A.U. after   14 cycles
 SCF Done:  E(RB3LYP) =  -877.520839947     A.U. after   14 cycles
 SCF Done:  E(RB3LYP) =  -877.520739159     A.U. after   13 cycles
 SCF Done:  E(RB3LYP) =  -877.521014976     A.U. after   14 cycles
 SCF Done:  E(RB3LYP) =  -877.521290106     A.U. after   15 cycles
 SCF Done:  E(RB3LYP) =  -877.522212563     A.U. after   12 cycles
 SCF Done:  E(RB3LYP) =  -877.522215639     A.U. after   10 cycles
 SCF Done:  E(RB3LYP) =  -877.522216266     A.U. after   10 cycles
 SCF Done:  E(RB3LYP) =  -877.522215788     A.U. after   10 cycles
 SCF Done:  E(RB3LYP) =  -877.522216239     A.U. after    9 cycles
 Optimization completed.
    -- Stationary point found.
 Normal termination of Gaussian 16 at Wed Dec  9 18:07:53 2020.

 --------------------------------------------------------------------
 #N Geom=AllCheck Guess=TCheck SCRF=Check GenChk RB3LYP/6-31G(d) Freq
 --------------------------------------------------------------------

 Structure from the checkpoint file:  "JID_2778.chk"
 -------------------------------
 CID_151921732_JID_2778_neutraal
 -------------------------------
 Charge =  0 Multiplicity = 1

 SCF Done:  E(RB3LYP) =  -877.522216239     A.U. after    1 cycles

  Exact polarizability: 118.275   5.022 131.738   9.464   7.375 107.801
 Approx polarizability: 167.226  20.264 202.160  31.323  34.327 187.453

                      1                      2                      3
                      A                      A                      A
 Frequencies --     30.9407                43.3913                54.7309
 Red. masses --      7.0145                 3.9254                 3.2518
 Frc consts  --      0.0040                 0.0044                 0.0057
 IR Inten    --      0.5751                 0.0870                 0.2174

                      4                      5                      6
                      A                      A                      A
 Frequencies --     61.2611                82.2486               111.0149
 Red. masses --      5.4012                 4.6480                 3.3197
 Frc consts  --      0.0119                 0.0185                 0.0241
 IR Inten    --      0.0835                 3.8364                 0.1402

                      7                      8                      9
                      A                      A                      A
 Frequencies --    130.6684               182.8190               210.6330
 Red. masses --      2.5031                 2.7707                 1.7300
 Frc consts  --      0.0252                 0.0546                 0.0452
 IR Inten    --      0.2025                 1.3877                 0.1972

                     10                     11                     12
                      A                      A                      A
 Frequencies --    231.0365               250.7123               264.4248
 Red. masses --      1.6683                 1.5138                 2.5342
 Frc consts  --      0.0525                 0.0561                 0.1044
 IR Inten    --      1.3835                 1.4254                 0.7966

                     13                     14                     15
                      A                      A                      A
 Frequencies --    299.6488               329.5007               357.2343
 Red. masses --      1.7933                 1.9135                 2.4389
 Frc consts  --      0.0949                 0.1224                 0.1834
 IR Inten    --      0.1629                 0.1622                 0.8002

                     16                     17                     18
                      A                      A                      A
 Frequencies --    367.3933               412.1950               473.3436
 Red. masses --      4.8015                 2.0562                 2.2111
 Frc consts  --      0.3818                 0.2058                 0.2919
 IR Inten    --      2.0154                 0.4500                 1.3813

                     19                     20                     21
                      A                      A                      A
 Frequencies --    502.0158               557.6578               643.7276
 Red. masses --      2.5327                13.8575                 5.0878
 Frc consts  --      0.3761                 2.5390                 1.2422
 IR Inten    --      0.6343                 7.0653                 0.9367

                     22                     23                     24
                      A                      A                      A
 Frequencies --    651.1293               711.7389               729.8120
 Red. masses --      5.2428                 5.8365                 1.6635
 Frc consts  --      1.3096                 1.7420                 0.5220
 IR Inten    --      9.0681                36.6046                 2.1045

                     25                     26                     27
                      A                      A                      A
 Frequencies --    793.0010               851.2670               863.7669
 Red. masses --      1.4024                 2.1017                 1.5092
 Frc consts  --      0.5196                 0.8973                 0.6634
 IR Inten    --      9.6789                 1.4495                 6.1782

                     28                     29                     30
                      A                      A                      A
 Frequencies --    893.4416               906.0545               926.6833
 Red. masses --      2.9369                 1.6471                 1.9477
 Frc consts  --      1.3812                 0.7967                 0.9855
 IR Inten    --     29.8557                12.4200                 4.6722

                     31                     32                     33
                      A                      A                      A
 Frequencies --    949.6784               989.1327              1016.3643
 Red. masses --      1.8743                 1.7136                 2.1544
 Frc consts  --      0.9960                 0.9878                 1.3112
 IR Inten    --      2.5174                 5.2030                 1.3984

                     34                     35                     36
                      A                      A                      A
 Frequencies --   1026.8077              1070.2156              1086.6942
 Red. masses --      1.3265                 1.7093                 2.5243
 Frc consts  --      0.8240                 1.1535                 1.7564
 IR Inten    --      0.9749                 0.6825                 0.4611

                     37                     38                     39
                      A                      A                      A
 Frequencies --   1136.8874              1143.6508              1192.6478
 Red. masses --      1.4721                 1.8373                 1.9507
 Frc consts  --      1.1210                 1.4158                 1.6348
 IR Inten    --      0.6915                 0.2989                 3.0515

                     40                     41                     42
                      A                      A                      A
 Frequencies --   1205.8378              1246.2641              1264.4456
 Red. masses --      1.3552                 1.3500                 1.3236
 Frc consts  --      1.1610                 1.2354                 1.2468
 IR Inten    --      2.4988                 6.4881                 4.6550

                     43                     44                     45
                      A                      A                      A
 Frequencies --   1294.7626              1311.1491              1320.3162
 Red. masses --      1.2645                 1.2810                 1.3763
 Frc consts  --      1.2490                 1.2975                 1.4136
 IR Inten    --      0.1821                63.0836                25.7995

                     46                     47                     48
                      A                      A                      A
 Frequencies --   1338.6830              1362.2722              1370.1751
 Red. masses --      1.3267                 1.1767                 2.1405
 Frc consts  --      1.4008                 1.2866                 2.3676
 IR Inten    --     55.7525                 2.9994                30.8630

                     49                     50                     51
                      A                      A                      A
 Frequencies --   1377.0101              1396.8069              1416.2343
 Red. masses --      1.3079                 1.3927                 1.4671
 Frc consts  --      1.4612                 1.6010                 1.7338
 IR Inten    --      5.2178                 3.9992                 0.3977

                     52                     53                     54
                      A                      A                      A
 Frequencies --   1424.0521              1438.3211              1443.4543
 Red. masses --      1.4756                 1.2488                 1.2594
 Frc consts  --      1.7631                 1.5222                 1.5460
 IR Inten    --      1.5469                 2.3900                 6.4647

                     55                     56                     57
                      A                      A                      A
 Frequencies --   1494.0247              1498.0845              1508.4570
 Red. masses --      1.0795                 1.0809                 1.0889
 Frc consts  --      1.4197                 1.4293                 1.4598
 IR Inten    --      7.9813                 6.2725                 2.8637

                     58                     59                     60
                      A                      A                      A
 Frequencies --   1513.9160              1523.3741              1530.1331
 Red. masses --      1.0694                 1.0721                 1.0610
 Frc consts  --      1.4440                 1.4659                 1.4637
 IR Inten    --      0.9671                 3.0525                 6.6316

                     61                     62                     63
                      A                      A                      A
 Frequencies --   1533.8681              1536.3662              1544.5257
 Red. masses --      1.0419                 1.0524                 1.0673
 Frc consts  --      1.4443                 1.4636                 1.5001
 IR Inten    --      0.8655                 8.1485                 8.8177

                     64                     65                     66
                      A                      A                      A
 Frequencies --   2248.6508              3017.7500              3024.8232
 Red. masses --     13.6528                 1.0664                 1.0669
 Frc consts  --     40.6738                 5.7217                 5.7513
 IR Inten    --    452.7864                15.4399                17.7522

                     67                     68                     69
                      A                      A                      A
 Frequencies --   3039.7206              3043.8076              3047.2111
 Red. masses --      1.0547                 1.0446                 1.0576
 Frc consts  --      5.7416                 5.7023                 5.7860
 IR Inten    --      8.9820                 8.4705                15.0873

                     70                     71                     72
                      A                      A                      A
 Frequencies --   3049.3955              3066.6166              3073.0043
 Red. masses --      1.0562                 1.0980                 1.0950
 Frc consts  --      5.7868                 6.0837                 6.0922
 IR Inten    --     68.7748                20.2338                16.1734

                     73                     74                     75
                      A                      A                      A
 Frequencies --   3081.2389              3088.4448              3096.2649
 Red. masses --      1.0969                 1.0666                 1.0577
 Frc consts  --      6.1356                 5.9943                 5.9744
 IR Inten    --     39.0006                25.6140                16.1777

                     76                     77                     78
                      A                      A                      A
 Frequencies --   3107.4180              3111.7765              3114.2655
 Red. masses --      1.0998                 1.1021                 1.1007
 Frc consts  --      6.2569                 6.2877                 6.2897
 IR Inten    --     29.8334                59.6447                48.2924

                     79                     80                     81
                      A                      A                      A
 Frequencies --   3123.5753              3132.8803              3161.1020
 Red. masses --      1.1006                 1.1029                 1.1101
 Frc consts  --      6.3270                 6.3776                 6.5356
 IR Inten    --     36.0069                15.1667                 1.3224

 - Thermochemistry -
 -------------------
 Temperature   298.150 Kelvin.  Pressure   1.00000 Atm.
 Atom     1 has atomic number  6 and mass  12.00000

 Molecular mass:   187.11432 amu.
 Principal axes and moments of inertia in atomic units:
                           1         2         3
     Eigenvalues --  2127.717212855.765024090.54386
           X            0.99975   0.02202  -0.00311
           Y           -0.02212   0.99897  -0.03954
           Z            0.00223   0.03959   0.99921
 This molecule is an asymmetric top.
 Rotational symmetry number  1.
 Warning -- assumption of classical behavior for rotation
           may cause significant error
 Rotational temperatures (Kelvin)      0.04071     0.03033     0.02117
 Rotational constants (GHZ):           0.84821     0.63196     0.44120
 Zero-point vibrational energy     664262.7 (Joules/Mol)
                                  158.76260 (Kcal/Mol)
 Warning -- explicit consideration of  20 degrees of freedom as
           vibrations may cause significant error
 Vibrational temperatures:     44.52    62.43    78.75    88.14   118.34
          (Kelvin)            159.73   188.00   263.04   303.05   332.41
                              360.72   380.45   431.13   474.08   513.98
                              528.60   593.06   681.04   722.29   802.35
                              926.18   936.83  1024.03  1050.04  1140.95
                             1224.78  1242.77  1285.46  1303.61  1333.29
                             1366.38  1423.14  1462.32  1477.35  1539.80
                             1563.51  1635.73  1645.46  1715.95  1734.93
                             1793.10  1819.26  1862.87  1886.45  1899.64
                             1926.07  1960.01  1971.38  1981.21  2009.69
                             2037.65  2048.89  2069.42  2076.81  2149.57
                             2155.41  2170.33  2178.19  2191.80  2201.52
                             2206.89  2210.49  2222.23  3235.31  4341.87
                             4352.05  4373.48  4379.36  4384.26  4387.40
                             4412.18  4421.37  4433.22  4443.58  4454.83
                             4470.88  4477.15  4480.73  4494.13  4507.52
                             4548.12

 Zero-point correction=                           0.253004 (Hartree/Particle)
 Thermal correction to Energy=                    0.267702
 Thermal correction to Enthalpy=                  0.268646
 Thermal correction to Gibbs Free Energy=         0.209825
 Sum of electronic and zero-point Energies=           -877.269212
 Sum of electronic and thermal Energies=              -877.254514
 Sum of electronic and thermal Enthalpies=            -877.253570
 Sum of electronic and thermal Free Energies=         -877.312391

                     E (Thermal)             CV                S
                      KCal/Mol        Cal/Mol-Kelvin    Cal/Mol-Kelvin
 Total                  167.985             52.304            123.799
 Electronic               0.000              0.000              0.000
 Translational            0.889              2.981             41.586
 Rotational               0.889              2.981             31.586
 Vibrational            166.208             46.343             50.627
 Vibration     1          0.594              1.984              5.768
 Vibration     2          0.595              1.980              5.098
 Vibration     3          0.596              1.976              4.639
 Vibration     4          0.597              1.973              4.416
 Vibration     5          0.600              1.961              3.836
 Vibration     6          0.607              1.940              3.251
 Vibration     7          0.612              1.923              2.936
 Vibration     8          0.630              1.863              2.299
 Vibration     9          0.643              1.825              2.038
 Vibration    10          0.653              1.794              1.871
 Vibration    11          0.663              1.762              1.726
 Vibration    12          0.671              1.738              1.632
 Vibration    13          0.692              1.674              1.419
 Vibration    14          0.712              1.617              1.263
 Vibration    15          0.732              1.560              1.134
 Vibration    16          0.740              1.539              1.091
 Vibration    17          0.776              1.444              0.919
 Vibration    18          0.830              1.309              0.728
 Vibration    19          0.857              1.246              0.653
 Vibration    20          0.913              1.123              0.529

 Optimization completed.
    -- Stationary point found.
 Normal termination of Gaussian 16 at Wed Dec  9 18:16:00 2020.

 ----------------------------------------------------------------------
 # B3LYP/6-311++G(d,p) empiricaldispersion=gd3bj scf=xqc pop=npa geom=c
 heck
 ----------------------------------------------------------------------

 ---------------------------------------
 CID_151921732_JID_2778_Energie_neutraal
 ---------------------------------------
 Structure from the checkpoint file:  "JID_2778.chk"
 Charge =  0 Multiplicity = 1

 SCF Done:  E(RB3LYP) =  -877.683081704     A.U. after   15 cycles
 Normal termination of Gaussian 16 at Wed Dec  9 18:19:58 2020.

 ----------------------------------------------------------------------
 # B3LYP/6-311++G(d,p) empiricaldispersion=gd3bj scf=xqc pop=npa geom=c
 heck
 ----------------------------------------------------------------------

 -------------------------------------
 CID_151921732_JID_2778_Energie_kation
 -------------------------------------
 Structure from the checkpoint file:  "JID_2778.chk"
 Charge =  1 Multiplicity = 2

 SCF Done:  E(UB3LYP) =  -877.366107694     A.U. after   22 cycles
 Normal termination of Gaussian 16 at Wed Dec  9 18:29:53 2020.
 Gaussian 16:  ES64L-G16RevA.03 25-Dec-2016

 ----------------------------------------------------------------------
 # B3LYP/6-311++G(d,p) empiricaldispersion=gd3bj scf=xqc pop=npa geom=c
 heck
 ----------------------------------------------------------------------

 ------------------------------------
 CID_151921732_JID_2778_Energie_anion
 ------------------------------------
 Structure from the checkpoint file:  "JID_2778.chk"
 Charge = -1 Multiplicity = 2

                         Standard orientation:
 ---------------------------------------------------------------------
 Center     Atomic      Atomic             Coordinates (Angstroms)
 Number     Number       Type             X           Y           Z
 ---------------------------------------------------------------------
      1          6           0        1.600581    2.156957   -1.165573
      2          6           0        2.372515    1.660227    0.060419
      3          6           0        1.701326    0.488216    0.792916
      4          6           0        1.563214   -0.820604   -0.008043
      5          6           0        2.933651   -1.395903   -0.388431
      6          6           0        0.757861   -1.869310    0.778874
      7          6           0       -0.732727   -1.573960    0.973692
      8         16           0       -1.749732   -1.673478   -0.559916
      9          6           0       -1.833022    0.071009   -1.107274
     10          7           0       -2.631776    0.945738   -0.230579
     11          7           0       -1.989065    1.673568    0.530566
     12          7           0       -1.509797    2.401950    1.270824
     13          1           0        1.505263    1.378803   -1.931884
     14          1           0        2.104063    3.011884   -1.629925
     15          1           0        0.591471    2.483253   -0.885788
     16          1           0        3.391886    1.383366   -0.235774
     17          1           0        2.480288    2.489914    0.770403
     18          1           0        2.272771    0.266531    1.705910
     19          1           0        0.713561    0.823191    1.134148
     20          1           0        1.020125   -0.621907   -0.941645
     21          1           0        3.525980   -1.616669    0.509073
     22          1           0        2.822896   -2.327621   -0.954321
     23          1           0        3.511387   -0.700427   -1.005305
     24          1           0        0.848630   -2.841386    0.278931
     25          1           0        1.210245   -1.989666    1.775114
     26          1           0       -1.172216   -2.320553    1.641918
     27          1           0       -0.910263   -0.602680    1.443204
     28          1           0       -0.832863    0.481557   -1.264914
     29          1           0       -2.353445    0.029487   -2.065646
 ---------------------------------------------------------------------

 SCF Done:  E(UB3LYP) =  -877.674728483     A.U. after   33 cycles
 SCF Done:  E(UB3LYP) =  -877.674728483     a.u. after    1 cycles

 The electronic state is 2-A.
 Alpha  occ. eigenvalues --  -88.72536 -14.31362 -14.22081 -14.21865 -10.11585
 Alpha  occ. eigenvalues --  -10.09034 -10.06761 -10.06422 -10.06189 -10.05852
 Alpha  occ. eigenvalues --  -10.05458 -10.05429  -7.81162  -5.77552  -5.77184
 Alpha  occ. eigenvalues --   -5.76544  -0.99050  -0.83642  -0.72248  -0.68795
 Alpha  occ. eigenvalues --   -0.65995  -0.62591  -0.57782  -0.55968  -0.50979
 Alpha  occ. eigenvalues --   -0.48420  -0.44336  -0.41265  -0.38792  -0.37522
 Alpha  occ. eigenvalues --   -0.36647  -0.35753  -0.33946  -0.32954  -0.32026
 Alpha  occ. eigenvalues --   -0.31225  -0.30537  -0.29962  -0.29245  -0.27076
 Alpha  occ. eigenvalues --   -0.26301  -0.25874  -0.24567  -0.24110  -0.21506
 Alpha  occ. eigenvalues --   -0.21474  -0.20918  -0.19836  -0.17383  -0.12707
 Alpha  occ. eigenvalues --   -0.11038   0.05076
 Alpha virt. eigenvalues --    0.06655   0.07910   0.08592   0.08668   0.09411
 Alpha virt. eigenvalues --    0.10467   0.10749   0.11335   0.12017   0.12562
 Alpha virt. eigenvalues --    0.12913   0.13134   0.13751   0.14019   0.14729

  Beta  occ. eigenvalues --  -88.72529 -14.30956 -14.21921 -14.21616 -10.11412
  Beta  occ. eigenvalues --  -10.09026 -10.06758 -10.06407 -10.06175 -10.05851
  Beta  occ. eigenvalues --  -10.05432 -10.05413  -7.81155  -5.77529  -5.77179
  Beta  occ. eigenvalues --   -5.76542  -0.98315  -0.83295  -0.72220  -0.68713
  Beta  occ. eigenvalues --   -0.65908  -0.62442  -0.57750  -0.55829  -0.50891
  Beta  occ. eigenvalues --   -0.48337  -0.44282  -0.41047  -0.37917  -0.37381
  Beta  occ. eigenvalues --   -0.36273  -0.35632  -0.33857  -0.32787  -0.31400
  Beta  occ. eigenvalues --   -0.31078  -0.30149  -0.29713  -0.28692  -0.27028
  Beta  occ. eigenvalues --   -0.26222  -0.25850  -0.24547  -0.24056  -0.21461
  Beta  occ. eigenvalues --   -0.21430  -0.20886  -0.19754  -0.16460  -0.12608
  Beta  occ. eigenvalues --   -0.10905
  Beta virt. eigenvalues --    0.07208   0.07967   0.08462   0.08842   0.09683
  Beta virt. eigenvalues --    0.10676   0.10771   0.11409   0.11746   0.12228
  Beta virt. eigenvalues --    0.12770   0.13122   0.13314   0.13765   0.14253

 Mulliken charges and spin densities:
               1          2
     1  C   -0.647777   0.138386
     2  C    0.209445  -0.719944
     3  C    0.110471  -0.018845
     4  C   -0.880208   1.093828
     5  C    0.695187  -1.439988
     6  C    0.265541  -0.669973
     7  C   -0.236464   0.023547
     8  S    0.037585   0.026109
     9  C   -0.147562  -0.466322
    10  N   -0.322512  -0.129590
    11  N    0.597306   0.179417
    12  N   -0.468940   0.316274
    13  H    0.143117   0.001033
    14  H    0.128440   0.004094
    15  H    0.124686   0.001916
    16  H   -0.063513   0.176633
    17  H   -0.020352   0.176434
    18  H   -0.225856   0.395447
    19  H    0.133033   0.002283
    20  H    0.079775  -0.023341
    21  H   -0.273086   0.430482
    22  H   -0.020702   0.146013
    23  H   -0.079194   0.203853
    24  H   -0.063232   0.209858
    25  H    0.003003   0.111796
    26  H    0.102698   0.159621
    27  H    0.148046  -0.016401
    28  H    0.188022  -0.079971
    29  H   -0.516958   0.767352
 Sum of Mulliken charges =  -1.00000   1.00000

 Dipole moment (field-independent basis, Debye):
    X=              0.6681    Y=             -0.4475    Z=             -1.4329  Tot=              1.6431
 Quadrupole moment (field-independent basis, Debye-Ang):
   XX=           -144.1029   YY=           -120.8423   ZZ=           -109.0742
   XY=              9.5283   XZ=             -8.9094   YZ=             -5.5227

 Summary of Natural Population Analysis:

                                       Natural Population
                Natural  -----------------------------------------------
    Atom  No    Charge         Core      Valence    Rydberg      Total
 -----------------------------------------------------------------------
      C    1   -0.28896      0.99966     2.28461    0.00469     3.28896
      C    2   -0.18965      0.99964     2.18149    0.00852     3.18965
      C    3   -0.19361      0.99960     2.18369    0.01032     3.19361
      C    4   -0.12190      0.99959     2.11195    0.01035     3.12190
      C    5   -0.28325      0.99965     2.27762    0.00598     3.28325
      C    6   -0.19144      0.99960     2.18060    0.01124     3.19144
      C    7   -0.25114      0.99958     2.24112    0.01045     3.25114
      S    8    0.08209      4.99962     2.90143    0.01686     7.91791
      C    9   -0.15455      0.99958     2.13934    0.01563     3.15455
      N   10   -0.21616      0.99969     2.70087    0.01561     3.71616
      N   11    0.14291      0.99970     2.34146    0.01593     3.35709
      N   12   -0.00668      0.99982     2.49400    0.01286     3.50668
      H   13    0.09378      0.00000     0.40541    0.00081     0.40622
      H   14    0.09438      0.00000     0.40495    0.00068     0.40562
      H   15    0.10266      0.00000     0.39649    0.00085     0.39734
      H   16    0.09167      0.00000     0.40730    0.00102     0.40833
      H   17    0.09688      0.00000     0.40226    0.00086     0.40312
      H   18    0.09637      0.00000     0.40241    0.00121     0.40363
      H   19    0.10348      0.00000     0.39477    0.00175     0.39652
      H   20    0.09629      0.00000     0.40168    0.00203     0.40371
      H   21    0.09854      0.00000     0.40006    0.00139     0.40146
      H   22    0.09749      0.00000     0.40160    0.00092     0.40251
      H   23    0.09762      0.00000     0.40158    0.00080     0.40238
      H   24    0.09853      0.00000     0.40022    0.00125     0.40147
      H   25    0.09719      0.00000     0.40148    0.00133     0.40281
      H   26    0.10340      0.00000     0.39572    0.00088     0.39660
      H   27    0.10753      0.00000     0.39147    0.00100     0.39247
      H   28    0.09409      0.00000     0.40441    0.00150     0.40591
      H   29    0.10247      0.00000     0.39559    0.00194     0.39753
 =======================================================================
   * Total *    0.00000     15.99572    34.84561    0.15867    51.00000

 Normal termination of Gaussian 16 at Wed Dec  9 18:42:08 2020.
