 Gaussian 16, Revision A.03,

 -----------------------------------------------------------
 # opt freq B3LYP/6-31G(d) empiricaldispersion=gd3bj scf=xqc
 -----------------------------------------------------------

 ------------------------------
 CID_59288106_JID_1486_neutraal
 ------------------------------
 Symbolic Z-matrix:
 Charge =  0 Multiplicity = 1

 SCF Done:  E(RB3LYP) =  -1251.57563752     A.U. after   16 cycles
 SCF Done:  E(RB3LYP) =  -1251.61756269     A.U. after   14 cycles
 SCF Done:  E(RB3LYP) =  -1251.62621940     A.U. after   18 cycles
 SCF Done:  E(RB3LYP) =  -1251.63278090     A.U. after   16 cycles
 SCF Done:  E(RB3LYP) =  -1251.61808014     A.U. after   18 cycles
 SCF Done:  E(RB3LYP) =  -1251.63153835     A.U. after   15 cycles
 SCF Done:  E(RB3LYP) =  -1251.63332348     A.U. after   14 cycles
 SCF Done:  E(RB3LYP) =  -1251.63243203     A.U. after   18 cycles
 SCF Done:  E(RB3LYP) =  -1251.63338375     A.U. after   17 cycles
 SCF Done:  E(RB3LYP) =  -1251.63357441     A.U. after   16 cycles
 SCF Done:  E(RB3LYP) =  -1251.63615589     A.U. after   14 cycles
 SCF Done:  E(RB3LYP) =  -1251.63624543     A.U. after   15 cycles
 SCF Done:  E(RB3LYP) =  -1251.63626697     A.U. after   14 cycles
 SCF Done:  E(RB3LYP) =  -1251.63627052     A.U. after   13 cycles
 SCF Done:  E(RB3LYP) =  -1251.63627126     A.U. after   11 cycles
 SCF Done:  E(RB3LYP) =  -1251.63627134     A.U. after   10 cycles
 Optimization completed.
    -- Stationary point found.
 Normal termination of Gaussian 16 at Tue Dec  8 20:14:22 2020.

 --------------------------------------------------------------------
 #N Geom=AllCheck Guess=TCheck SCRF=Check GenChk RB3LYP/6-31G(d) Freq
 --------------------------------------------------------------------

 Structure from the checkpoint file:  "JID_1486.chk"
 ------------------------------
 CID_59288106_JID_1486_neutraal
 ------------------------------
 Charge =  0 Multiplicity = 1

 SCF Done:  E(RB3LYP) =  -1251.63627134     A.U. after    1 cycles

  Exact polarizability: 346.597  -6.166  58.041  -0.437   1.919  52.387
 Approx polarizability: 644.071 -10.832  93.973   1.352   7.769  81.510

                      1                      2                      3
                      A                      A                      A
 Frequencies --     33.7006                36.1875                67.0321
 Red. masses --     12.7302                11.7305                 1.3686
 Frc consts  --      0.0085                 0.0091                 0.0036
 IR Inten    --      0.6182                 0.5131                20.5868

                      4                      5                      6
                      A                      A                      A
 Frequencies --     89.1675                93.5276               181.6953
 Red. masses --      5.5299                 6.5866                 7.1516
 Frc consts  --      0.0259                 0.0339                 0.1391
 IR Inten    --      3.2093                 3.0527                 7.2493

                      7                      8                      9
                      A                      A                      A
 Frequencies --    199.1016               224.3221               249.7212
 Red. masses --      8.1213                 1.4337                12.2448
 Frc consts  --      0.1897                 0.0425                 0.4499
 IR Inten    --      1.8923                77.5739                 0.4023

                     10                     11                     12
                      A                      A                      A
 Frequencies --    314.5000               340.3894               384.9485
 Red. masses --      7.8413                 9.6904                11.4522
 Frc consts  --      0.4570                 0.6615                 0.9999
 IR Inten    --      7.7476                 0.7647                 1.7775

                     13                     14                     15
                      A                      A                      A
 Frequencies --    391.2116               475.9850               497.5112
 Red. masses --      3.7136                 8.1502                13.8607
 Frc consts  --      0.3349                 1.0879                 2.0213
 IR Inten    --     25.8932                32.8117                54.5423

                     16                     17                     18
                      A                      A                      A
 Frequencies --    505.6624               564.8556               583.7107
 Red. masses --     14.9357                11.8854                11.5120
 Frc consts  --      2.2501                 2.2343                 2.3110
 IR Inten    --     81.6592                15.6604                13.6611

                     19                     20                     21
                      A                      A                      A
 Frequencies --    641.6773               741.6874               758.1772
 Red. masses --     17.5685                12.0020                11.8960
 Frc consts  --      4.2620                 3.8900                 4.0289
 IR Inten    --    225.4507                 7.6961                 0.5805

                     22                     23                     24
                      A                      A                      A
 Frequencies --    796.3593               937.3816               990.5497
 Red. masses --     17.6550                 5.6251                 1.2666
 Frc consts  --      6.5969                 2.9121                 0.7322
 IR Inten    --    456.0499               102.4393                88.8947

                     25                     26                     27
                      A                      A                      A
 Frequencies --   1147.7719              1176.1514              1355.5447
 Red. masses --      5.4914                 1.4527                11.6475
 Frc consts  --      4.2623                 1.1840                12.6099
 IR Inten    --    237.7919               146.7842                38.2099

                     28                     29                     30
                      A                      A                      A
 Frequencies --   1393.1956              2169.0589              2267.7848
 Red. masses --      9.5657                11.8690                11.7805
 Frc consts  --     10.9393                32.9008                35.6958
 IR Inten    --    212.1551               268.5398               367.0088

                     31                     32                     33
                      A                      A                      A
 Frequencies --   2284.3627              2629.7188              3694.3042
 Red. masses --     11.9252                 1.0414                 1.0659
 Frc consts  --     36.6646                 4.2431                 8.5713
 IR Inten    --    155.3027                20.5194               161.6799

 - Thermochemistry -
 -------------------
 Temperature   298.150 Kelvin.  Pressure   1.00000 Atm.
 Atom     1 has atomic number  6 and mass  12.00000

 Molecular mass:   185.94454 amu.
 Principal axes and moments of inertia in atomic units:
                           1         2         3
     Eigenvalues --   380.04568********************
           X            0.99999  -0.00448   0.00145
           Y            0.00471   0.96246  -0.27138
           Z           -0.00018   0.27139   0.96247
 This molecule is an asymmetric top.
 Rotational symmetry number  1.
 Rotational temperatures (Kelvin)      0.22790     0.00818     0.00817
 Rotational constants (GHZ):           4.74875     0.17035     0.17014
 Zero-point vibrational energy     168774.9 (Joules/Mol)
                                   40.33816 (Kcal/Mol)
 Warning -- explicit consideration of  18 degrees of freedom as
           vibrations may cause significant error
 Vibrational temperatures:     48.49    52.07    96.44   128.29   134.57
          (Kelvin)            261.42   286.46   322.75   359.29   452.50
                              489.74   553.85   562.87   684.84   715.81
                              727.54   812.70   839.83   923.23  1067.12
                             1090.85  1145.78  1348.68  1425.18  1651.39
                             1692.22  1950.33  2004.50  3120.79  3262.84
                             3286.69  3783.58  5315.28

 Zero-point correction=                           0.064283 (Hartree/Particle)
 Thermal correction to Energy=                    0.076316
 Thermal correction to Enthalpy=                  0.077260
 Thermal correction to Gibbs Free Energy=         0.023381
 Sum of electronic and zero-point Energies=          -1251.571988
 Sum of electronic and thermal Energies=             -1251.559955
 Sum of electronic and thermal Enthalpies=           -1251.559011
 Sum of electronic and thermal Free Energies=        -1251.612890

                     E (Thermal)             CV                S
                      KCal/Mol        Cal/Mol-Kelvin    Cal/Mol-Kelvin
 Total                   47.889             39.906            113.398
 Electronic               0.000              0.000              0.000
 Translational            0.889              2.981             41.567
 Rotational               0.889              2.981             32.124
 Vibrational             46.112             33.944             39.707
 Vibration     1          0.594              1.983              5.599
 Vibration     2          0.594              1.982              5.458
 Vibration     3          0.598              1.970              4.239
 Vibration     4          0.602              1.957              3.678
 Vibration     5          0.603              1.954              3.585
 Vibration     6          0.630              1.865              2.311
 Vibration     7          0.637              1.841              2.141
 Vibration     8          0.649              1.804              1.924
 Vibration     9          0.663              1.763              1.733
 Vibration    10          0.702              1.646              1.339
 Vibration    11          0.720              1.595              1.210
 Vibration    12          0.754              1.502              1.020
 Vibration    13          0.759              1.489              0.996
 Vibration    14          0.833              1.303              0.721
 Vibration    15          0.853              1.256              0.664
 Vibration    16          0.861              1.237              0.644
 Vibration    17          0.921              1.107              0.514
 Vibration    18          0.941              1.067              0.479

 Optimization completed.
    -- Stationary point found.
 Normal termination of Gaussian 16 at Tue Dec  8 20:15:55 2020.

 ----------------------------------------------------------------------
 # B3LYP/6-311++G(d,p) empiricaldispersion=gd3bj scf=xqc pop=npa geom=c
 heck
 ----------------------------------------------------------------------

 --------------------------------------
 CID_59288106_JID_1486_Energie_neutraal
 --------------------------------------
 Structure from the checkpoint file:  "JID_1486.chk"
 Charge =  0 Multiplicity = 1

 SCF Done:  E(RB3LYP) =  -1251.82927684     A.U. after   18 cycles
 Normal termination of Gaussian 16 at Tue Dec  8 20:17:07 2020.

 ----------------------------------------------------------------------
 # B3LYP/6-311++G(d,p) empiricaldispersion=gd3bj scf=xqc pop=npa geom=c
 heck
 ----------------------------------------------------------------------

 ------------------------------------
 CID_59288106_JID_1486_Energie_kation
 ------------------------------------
 Structure from the checkpoint file:  "JID_1486.chk"
 Charge =  1 Multiplicity = 2

 SCF Done:  E(UB3LYP) =  -1251.50622546     A.U. after   27 cycles
 Normal termination of Gaussian 16 at Tue Dec  8 20:19:54 2020.
 Gaussian 16:  ES64L-G16RevA.03 25-Dec-2016

 ----------------------------------------------------------------------
 # B3LYP/6-311++G(d,p) empiricaldispersion=gd3bj scf=xqc pop=npa geom=c
 heck
 ----------------------------------------------------------------------

 -----------------------------------
 CID_59288106_JID_1486_Energie_anion
 -----------------------------------
 Structure from the checkpoint file:  "JID_1486.chk"
 Charge = -1 Multiplicity = 2

                         Standard orientation:
 ---------------------------------------------------------------------
 Center     Atomic      Atomic             Coordinates (Angstroms)
 Number     Number       Type             X           Y           Z
 ---------------------------------------------------------------------
      1          6           0        1.975341   -0.007135   -0.050137
      2          6           0        0.748091    0.012627   -0.066321
      3          6           0       -0.600665    0.017481   -0.066290
      4          6           0       -1.820760    0.055816   -0.112264
      5         16           0       -3.506497   -0.084255    0.125028
      6          8           0       -3.868805   -1.482384    0.018936
      7          8           0       -3.876876    0.744180    1.265151
      8          8           0       -4.085546    0.643040   -1.219042
      9          6           0        3.323157   -0.016261   -0.033404
     10          6           0        4.546355   -0.056553   -0.036011
     11         16           0        6.216342    0.097224    0.075740
     12          1           0       -4.285752    1.569402   -0.984121
     13          1           0        6.548937   -1.051431   -0.561967
 ---------------------------------------------------------------------

 SCF Done:  E(UB3LYP) =  -1251.87985840     A.U. after   29 cycles

 The electronic state is 2-A.
 Alpha  occ. eigenvalues --  -88.98476 -88.77283 -19.07931 -19.01930 -19.01670
 Alpha  occ. eigenvalues --  -10.07421 -10.06320 -10.05437 -10.05366 -10.04964
 Alpha  occ. eigenvalues --  -10.04496  -8.04227  -7.85753  -6.00670  -6.00415
 Alpha  occ. eigenvalues --   -6.00339  -5.82121  -5.81755  -5.81211  -1.05041
 Alpha  occ. eigenvalues --   -0.94400  -0.91711  -0.69948  -0.67904  -0.64977
 Alpha  occ. eigenvalues --   -0.61035  -0.57610  -0.51300  -0.47786  -0.43286
 Alpha  occ. eigenvalues --   -0.41181  -0.38314  -0.37606  -0.33978  -0.29066
 Alpha  occ. eigenvalues --   -0.27774  -0.25502  -0.25033  -0.24531  -0.23708
 Alpha  occ. eigenvalues --   -0.23015  -0.21422  -0.21353  -0.18797  -0.16373
 Alpha  occ. eigenvalues --   -0.11883  -0.09519   0.00918
 Alpha virt. eigenvalues --    0.05945   0.07076   0.07632   0.10750   0.11768
 Alpha virt. eigenvalues --    0.13063   0.13306   0.13981   0.14386   0.15235
 Alpha virt. eigenvalues --    0.15721   0.16182   0.17111   0.17417   0.17751

  Beta  occ. eigenvalues --  -88.98481 -88.77287 -19.07933 -19.01862 -19.01590
  Beta  occ. eigenvalues --  -10.07400 -10.05980 -10.05378 -10.05184 -10.04579
  Beta  occ. eigenvalues --  -10.04275  -8.04232  -7.85753  -6.00674  -6.00409
  Beta  occ. eigenvalues --   -6.00356  -5.82113  -5.81776  -5.81214  -1.04950
  Beta  occ. eigenvalues --   -0.94349  -0.91547  -0.69420  -0.67249  -0.64383
  Beta  occ. eigenvalues --   -0.60594  -0.57484  -0.50654  -0.47399  -0.42855
  Beta  occ. eigenvalues --   -0.41036  -0.38187  -0.37027  -0.33840  -0.28375
  Beta  occ. eigenvalues --   -0.27710  -0.25346  -0.24295  -0.24005  -0.23343
  Beta  occ. eigenvalues --   -0.21979  -0.21247  -0.21097  -0.17274  -0.16225
  Beta  occ. eigenvalues --   -0.09835  -0.09303
  Beta virt. eigenvalues --    0.06296   0.06582   0.07674   0.07710   0.11077
  Beta virt. eigenvalues --    0.11901   0.13094   0.13268   0.14038   0.14852
  Beta virt. eigenvalues --    0.15352   0.15819   0.16776   0.17205   0.17464

 Mulliken charges and spin densities:
               1          2
     1  C    0.237122   0.143427
     2  C   -0.025470   0.186577
     3  C    0.423367  -0.046501
     4  C   -1.503198   0.291937
     5  S    0.808518   0.085462
     6  O   -0.179616  -0.001943
     7  O   -0.221008  -0.005971
     8  O   -0.258261  -0.008772
     9  C    0.270231  -0.001854
    10  C   -0.202544   0.234661
    11  S   -0.611337   0.019224
    12  H    0.276151  -0.000651
    13  H   -0.013955   0.104403
 Sum of Mulliken charges =  -1.00000   1.00000

 Dipole moment (field-independent basis, Debye):
    X=             -0.9322    Y=              1.9149    Z=             -1.3458  Tot=              2.5193
 Quadrupole moment (field-independent basis, Debye-Ang):
   XX=           -145.3812   YY=            -82.4495   ZZ=            -85.9927
   XY=            -13.6389   XZ=              4.1409   YZ=             -3.0395

 Summary of Natural Population Analysis:

                                       Natural Population
                Natural  -----------------------------------------------
    Atom  No    Charge         Core      Valence    Rydberg      Total
 -----------------------------------------------------------------------
      C    1    0.04662      0.99925     1.93788    0.01626     2.95338
      C    2    0.00096      0.99945     1.98312    0.01648     2.99904
      C    3    0.05860      0.99911     1.93037    0.01191     2.94140
      C    4   -0.15144      0.99909     2.12969    0.02266     3.15144
      S    5    1.14428      4.99884     1.74369    0.11319     6.85572
      O    6   -0.43886      0.99990     3.43154    0.00742     4.43886
      O    7   -0.45422      0.99990     3.44714    0.00717     4.45422
      O    8   -0.43911      0.99991     3.43089    0.00831     4.43911
      C    9    0.02093      0.99907     1.97249    0.00751     2.97907
      C   10   -0.08534      0.99922     2.06656    0.01957     3.08534
      S   11    0.03969      4.99947     2.93867    0.02217     7.96031
      H   12    0.24263      0.00000     0.25345    0.00392     0.25737
      H   13    0.06884      0.00000     0.42688    0.00428     0.43116
 =======================================================================
   * Total *    0.05357     18.99321    27.69238    0.26085    46.94643

 Normal termination of Gaussian 16 at Tue Dec  8 20:22:30 2020.
