 Gaussian 16, Revision A.03,

 -----------------------------------------------------------
 # opt freq B3LYP/6-31G(d) empiricaldispersion=gd3bj scf=xqc
 -----------------------------------------------------------

 ------------------------------
 CID_28378495_JID_8229_neutraal
 ------------------------------
 Symbolic Z-matrix:
 Charge =  0 Multiplicity = 1

 SCF Done:  E(RB3LYP) =  -805.554336258     A.U. after   15 cycles
 SCF Done:  E(RB3LYP) =  -805.556931989     A.U. after   13 cycles
 SCF Done:  E(RB3LYP) =  -805.557478540     A.U. after   13 cycles
 SCF Done:  E(RB3LYP) =  -805.559417905     A.U. after   13 cycles
 SCF Done:  E(RB3LYP) =  -805.560229235     A.U. after   12 cycles
 SCF Done:  E(RB3LYP) =  -805.560181114     A.U. after   12 cycles
 SCF Done:  E(RB3LYP) =  -805.560815760     A.U. after   12 cycles
 SCF Done:  E(RB3LYP) =  -805.561051389     A.U. after   11 cycles
 SCF Done:  E(RB3LYP) =  -805.561213660     A.U. after   12 cycles
 SCF Done:  E(RB3LYP) =  -805.561283909     A.U. after   10 cycles
 SCF Done:  E(RB3LYP) =  -805.561546625     A.U. after   10 cycles
 SCF Done:  E(RB3LYP) =  -805.561547115     A.U. after   10 cycles
 SCF Done:  E(RB3LYP) =  -805.561547483     A.U. after    9 cycles
 SCF Done:  E(RB3LYP) =  -805.561547718     A.U. after    7 cycles
 SCF Done:  E(RB3LYP) =  -805.561547663     A.U. after    6 cycles
 Optimization completed.
    -- Stationary point found.
 Normal termination of Gaussian 16 at Fri Dec 11 19:44:48 2020.

 --------------------------------------------------------------------
 #N Geom=AllCheck Guess=TCheck SCRF=Check GenChk RB3LYP/6-31G(d) Freq
 --------------------------------------------------------------------

 Structure from the checkpoint file:  "JID_8229.chk"
 ------------------------------
 CID_28378495_JID_8229_neutraal
 ------------------------------
 Charge =  0 Multiplicity = 1

 SCF Done:  E(RB3LYP) =  -805.561547663     A.U. after    1 cycles

  Exact polarizability: 165.798  16.706 146.319   3.215  -9.720 159.860
 Approx polarizability: 235.774  37.654 217.355   6.294 -25.169 260.991

                      1                      2                      3
                      A                      A                      A
 Frequencies --     17.6000                32.5980                47.2292
 Red. masses --      4.7149                 3.5347                 3.5597
 Frc consts  --      0.0009                 0.0022                 0.0047
 IR Inten    --      0.2044                 0.6552                 2.3991

                      4                      5                      6
                      A                      A                      A
 Frequencies --     56.6830                70.7227                99.2543
 Red. masses --      3.5697                 3.4942                 5.9562
 Frc consts  --      0.0068                 0.0103                 0.0346
 IR Inten    --      0.5986                 1.1569                 6.4630

                      7                      8                      9
                      A                      A                      A
 Frequencies --    150.1866               169.3421               201.7605
 Red. masses --      3.7115                 2.7326                 2.4735
 Frc consts  --      0.0493                 0.0462                 0.0593
 IR Inten    --      1.9382                 4.1586                 2.1083

                     10                     11                     12
                      A                      A                      A
 Frequencies --    205.5678               269.3658               279.2183
 Red. masses --      4.5915                 2.1678                 3.3958
 Frc consts  --      0.1143                 0.0927                 0.1560
 IR Inten    --      2.9702                 1.0200                11.8421

                     13                     14                     15
                      A                      A                      A
 Frequencies --    289.8648               301.2950               326.1697
 Red. masses --      1.3888                 3.8686                 2.2735
 Frc consts  --      0.0688                 0.2069                 0.1425
 IR Inten    --     48.9839                14.2569                 3.7005

                     16                     17                     18
                      A                      A                      A
 Frequencies --    375.2842               406.3899               426.0595
 Red. masses --      4.1853                 3.6009                 1.8838
 Frc consts  --      0.3473                 0.3504                 0.2015
 IR Inten    --      3.0156                 2.8088                 2.0078

                     19                     20                     21
                      A                      A                      A
 Frequencies --    438.5501               448.2817               461.3158
 Red. masses --      3.9204                 2.8578                 3.4069
 Frc consts  --      0.4442                 0.3384                 0.4272
 IR Inten    --      2.8470                 1.5957                 0.7823

                     22                     23                     24
                      A                      A                      A
 Frequencies --    505.7613               541.6263               555.3271
 Red. masses --      3.1351                 4.0124                 2.3857
 Frc consts  --      0.4725                 0.6935                 0.4335
 IR Inten    --      3.2976                 1.8219                 5.4811

                     25                     26                     27
                      A                      A                      A
 Frequencies --    573.8893               590.3236               630.4333
 Red. masses --      3.7200                 4.3937                 4.4107
 Frc consts  --      0.7219                 0.9021                 1.0328
 IR Inten    --      9.2318                13.1677                11.8317

                     28                     29                     30
                      A                      A                      A
 Frequencies --    696.6123               709.5428               733.7373
 Red. masses --      4.0639                 2.8194                 3.3928
 Frc consts  --      1.1619                 0.8363                 1.0762
 IR Inten    --     13.5274                 7.0773                 8.3117

                     31                     32                     33
                      A                      A                      A
 Frequencies --    743.7597               805.2191               827.6605
 Red. masses --      5.1696                 1.4093                 1.5152
 Frc consts  --      1.6849                 0.5384                 0.6115
 IR Inten    --     24.8259                42.7247                 1.3145

                     34                     35                     36
                      A                      A                      A
 Frequencies --    844.5412               869.9917               872.1726
 Red. masses --      2.8982                 1.2382                 1.4249
 Frc consts  --      1.2179                 0.5522                 0.6386
 IR Inten    --      0.5555                81.5813                10.2568

                     37                     38                     39
                      A                      A                      A
 Frequencies --    905.1642               911.2488               912.4628
 Red. masses --      1.4166                 2.5308                 1.4411
 Frc consts  --      0.6839                 1.2382                 0.7069
 IR Inten    --     22.5340                 3.2523                 8.4341

                     40                     41                     42
                      A                      A                      A
 Frequencies --    923.3283               968.9442               978.7074
 Red. masses --      3.0179                 2.7083                 1.2595
 Frc consts  --      1.5159                 1.4981                 0.7108
 IR Inten    --     33.5095                 8.2065                 1.8563

                     43                     44                     45
                      A                      A                      A
 Frequencies --    980.9211              1015.1004              1019.1244
 Red. masses --      1.3343                 1.7423                 5.9487
 Frc consts  --      0.7564                 1.0578                 3.6402
 IR Inten    --      3.7138                22.9841                 1.8463

                     46                     47                     48
                      A                      A                      A
 Frequencies --   1028.0427              1048.6899              1064.7811
 Red. masses --      2.1826                 2.3052                 2.0991
 Frc consts  --      1.3591                 1.4937                 1.4022
 IR Inten    --     23.6064                19.2749                12.4898

                     49                     50                     51
                      A                      A                      A
 Frequencies --   1079.1196              1086.6831              1094.5204
 Red. masses --      3.2984                 1.7424                 2.9360
 Frc consts  --      2.2631                 1.2123                 2.0723
 IR Inten    --     16.8411                 0.3738                33.7531

                     52                     53                     54
                      A                      A                      A
 Frequencies --   1115.6568              1160.4955              1180.0912
 Red. masses --      1.5563                 1.9271                 2.0774
 Frc consts  --      1.1413                 1.5291                 1.7045
 IR Inten    --      9.7633                 5.3557                 6.2851

                     55                     56                     57
                      A                      A                      A
 Frequencies --   1187.2887              1193.6231              1199.6160
 Red. masses --      1.2816                 1.1230                 1.2878
 Frc consts  --      1.0644                 0.9427                 1.0919
 IR Inten    --      6.9946                 2.3533                 1.0138

                     58                     59                     60
                      A                      A                      A
 Frequencies --   1214.0119              1266.0135              1280.5838
 Red. masses --      1.7388                 1.6584                 2.5408
 Frc consts  --      1.5099                 1.5661                 2.4549
 IR Inten    --     65.2951                42.8537                33.7273

                     61                     62                     63
                      A                      A                      A
 Frequencies --   1301.8625              1304.0808              1311.4723
 Red. masses --      1.2914                 1.9002                 1.7366
 Frc consts  --      1.2895                 1.9040                 1.7598
 IR Inten    --     15.1653               100.5907                64.5374

                     64                     65                     66
                      A                      A                      A
 Frequencies --   1316.2252              1326.4275              1360.1453
 Red. masses --      1.3773                 1.2333                 1.3760
 Frc consts  --      1.4059                 1.2785                 1.4998
 IR Inten    --     13.0979                15.1753                 1.9918

                     67                     68                     69
                      A                      A                      A
 Frequencies --   1371.5014              1377.6238              1398.5082
 Red. masses --      1.2838                 2.4875                 1.4589
 Frc consts  --      1.4228                 2.7815                 1.6812
 IR Inten    --      0.2230                14.6795                 2.0184

                     70                     71                     72
                      A                      A                      A
 Frequencies --   1399.4061              1402.7168              1407.4034
 Red. masses --      1.3808                 1.4245                 1.4683
 Frc consts  --      1.5931                 1.6514                 1.7136
 IR Inten    --      1.5198                 1.2215                 3.8537

                     73                     74                     75
                      A                      A                      A
 Frequencies --   1423.8760              1438.1920              1493.6710
 Red. masses --      1.3326                 1.5027                 2.4970
 Frc consts  --      1.5918                 1.8313                 3.2823
 IR Inten    --      9.9345                18.8739                55.9479

                     76                     77                     78
                      A                      A                      A
 Frequencies --   1499.3888              1508.4024              1515.3295
 Red. masses --      2.6467                 1.0979                 1.0887
 Frc consts  --      3.5058                 1.4718                 1.4729
 IR Inten    --    114.5138                 2.1122                 3.5391

                     79                     80                     81
                      A                      A                      A
 Frequencies --   1518.2323              1521.2657              1522.0642
 Red. masses --      1.1201                 1.1450                 1.1448
 Frc consts  --      1.5213                 1.5612                 1.5627
 IR Inten    --     10.6847                15.6639                12.5530

                     82                     83                     84
                      A                      A                      A
 Frequencies --   1532.8241              1534.6656              1549.3311
 Red. masses --      1.1512                 1.1162                 2.1516
 Frc consts  --      1.5936                 1.5489                 3.0429
 IR Inten    --     12.1182                11.4909                40.7274

                     85                     86                     87
                      A                      A                      A
 Frequencies --   1653.6793              1663.9966              1692.6911
 Red. masses --      5.7766                 5.2642                 1.1118
 Frc consts  --      9.3073                 8.5880                 1.8768
 IR Inten    --     24.3409                79.2074                32.3382

                     88                     89                     90
                      A                      A                      A
 Frequencies --   1743.5535              2974.1421              3012.8902
 Red. masses --      9.8223                 1.0720                 1.0744
 Frc consts  --     17.5928                 5.5866                 5.7462
 IR Inten    --    289.7785                56.7061                35.9581

                     91                     92                     93
                      A                      A                      A
 Frequencies --   3022.3856              3025.5516              3042.0715
 Red. masses --      1.0701                 1.0718                 1.0893
 Frc consts  --      5.7595                 5.7807                 5.9392
 IR Inten    --      8.5502                85.4653                35.8592

                     94                     95                     96
                      A                      A                      A
 Frequencies --   3044.1336              3057.2411              3077.5781
 Red. masses --      1.0609                 1.0633                 1.0574
 Frc consts  --      5.7922                 5.8553                 5.9007
 IR Inten    --     23.8094                25.8703                33.3420

                     97                     98                     99
                      A                      A                      A
 Frequencies --   3082.4152              3089.7807              3108.6351
 Red. masses --      1.0937                 1.1048                 1.1019
 Frc consts  --      6.1223                 6.2145                 6.2737
 IR Inten    --     40.9964                50.7853                35.5605

                    100                    101                    102
                      A                      A                      A
 Frequencies --   3127.5267              3169.0116              3187.3471
 Red. masses --      1.1090                 1.0913                 1.0897
 Frc consts  --      6.3912                 6.4571                 6.5228
 IR Inten    --     11.6229                 2.8587                 6.1304

                    103                    104                    105
                      A                      A                      A
 Frequencies --   3188.9484              3213.8418              3224.8759
 Red. masses --      1.0876                 1.0929                 1.0905
 Frc consts  --      6.5164                 6.6507                 6.6818
 IR Inten    --     14.4834                 9.4686                 1.0616

                    106                    107                    108
                      A                      A                      A
 Frequencies --   3227.4999              3466.1096              3554.6442
 Red. masses --      1.0927                 1.0497                 1.0928
 Frc consts  --      6.7066                 7.4303                 8.1352
 IR Inten    --      4.7585                 2.5448                 0.7226

 - Thermochemistry -
 -------------------
 Temperature   298.150 Kelvin.  Pressure   1.00000 Atm.
 Atom     1 has atomic number  6 and mass  12.00000

 Molecular mass:   248.15248 amu.
 Principal axes and moments of inertia in atomic units:
                           1         2         3
     Eigenvalues --  3306.011625821.726576054.26433
           X            0.99967   0.00821  -0.02430
           Y           -0.00815   0.99996   0.00252
           Z            0.02432  -0.00232   0.99970
 This molecule is an asymmetric top.
 Rotational symmetry number  1.
 Warning -- assumption of classical behavior for rotation
           may cause significant error
 Rotational temperatures (Kelvin)      0.02620     0.01488     0.01431
 Rotational constants (GHZ):           0.54590     0.31000     0.29809
 Zero-point vibrational energy     869522.0 (Joules/Mol)
                                  207.82074 (Kcal/Mol)
 Warning -- explicit consideration of  26 degrees of freedom as
           vibrations may cause significant error
 Vibrational temperatures:     25.32    46.90    67.95    81.55   101.75
          (Kelvin)            142.80   216.08   243.65   290.29   295.77
                              387.56   401.73   417.05   433.50   469.29
                              539.95   584.70   613.00   630.98   644.98
                              663.73   727.68   779.28   798.99   825.70
                              849.34   907.05  1002.27  1020.87  1055.68
                             1070.10  1158.53  1190.82  1215.11  1251.72
                             1254.86  1302.33  1311.08  1312.83  1328.46
                             1394.09  1408.14  1411.33  1460.50  1466.29
                             1479.12  1508.83  1531.98  1552.61  1563.49
                             1574.77  1605.18  1669.69  1697.89  1708.24
                             1717.36  1725.98  1746.69  1821.51  1842.47
                             1873.09  1876.28  1886.92  1893.75  1908.43
                             1956.95  1973.28  1982.09  2012.14  2013.43
                             2018.20  2024.94  2048.64  2069.24  2149.06
                             2157.29  2170.25  2180.22  2184.40  2188.76
                             2189.91  2205.39  2208.04  2229.14  2379.28
                             2394.12  2435.41  2508.58  4279.13  4334.88
                             4348.54  4353.09  4376.86  4379.83  4398.69
                             4427.95  4434.91  4445.51  4472.63  4499.81
                             4559.50  4585.88  4588.19  4624.00  4639.88
                             4643.65  4986.96  5114.34

 Zero-point correction=                           0.331183 (Hartree/Particle)
 Thermal correction to Energy=                    0.347943
 Thermal correction to Enthalpy=                  0.348887
 Thermal correction to Gibbs Free Energy=         0.285011
 Sum of electronic and zero-point Energies=           -805.230364
 Sum of electronic and thermal Energies=              -805.213605
 Sum of electronic and thermal Enthalpies=            -805.212660
 Sum of electronic and thermal Free Energies=         -805.276537

                     E (Thermal)             CV                S
                      KCal/Mol        Cal/Mol-Kelvin    Cal/Mol-Kelvin
 Total                  218.338             64.980            134.439
 Electronic               0.000              0.000              0.000
 Translational            0.889              2.981             42.427
 Rotational               0.889              2.981             33.121
 Vibrational            216.560             59.018             58.890
 Vibration     1          0.593              1.986              6.888
 Vibration     2          0.594              1.983              5.665
 Vibration     3          0.595              1.979              4.930
 Vibration     4          0.596              1.975              4.569
 Vibration     5          0.598              1.968              4.133
 Vibration     6          0.604              1.950              3.469
 Vibration     7          0.618              1.902              2.670
 Vibration     8          0.625              1.880              2.443
 Vibration     9          0.639              1.837              2.117
 Vibration    10          0.640              1.832              2.083
 Vibration    11          0.674              1.730              1.600
 Vibration    12          0.680              1.712              1.538
 Vibration    13          0.686              1.693              1.475
 Vibration    14          0.693              1.671              1.410
 Vibration    15          0.710              1.623              1.279
 Vibration    16          0.746              1.523              1.058
 Vibration    17          0.771              1.456              0.939
 Vibration    18          0.788              1.414              0.872
 Vibration    19          0.799              1.386              0.831
 Vibration    20          0.807              1.365              0.801
 Vibration    21          0.819              1.336              0.762
 Vibration    22          0.861              1.237              0.644
 Vibration    23          0.897              1.158              0.562
 Vibration    24          0.911              1.128              0.533
 Vibration    25          0.930              1.088              0.497
 Vibration    26          0.948              1.052              0.467

 Optimization completed.
    -- Stationary point found.
 Normal termination of Gaussian 16 at Fri Dec 11 20:02:49 2020.

 ----------------------------------------------------------------------
 # B3LYP/6-311++G(d,p) empiricaldispersion=gd3bj scf=xqc pop=npa geom=c
 heck
 ----------------------------------------------------------------------

 --------------------------------------
 CID_28378495_JID_8229_Energie_neutraal
 --------------------------------------
 Structure from the checkpoint file:  "JID_8229.chk"
 Charge =  0 Multiplicity = 1

 SCF Done:  E(RB3LYP) =  -805.788869721     A.U. after   16 cycles
 Normal termination of Gaussian 16 at Fri Dec 11 20:10:15 2020.

 ----------------------------------------------------------------------
 # B3LYP/6-311++G(d,p) empiricaldispersion=gd3bj scf=xqc pop=npa geom=c
 heck
 ----------------------------------------------------------------------

 ------------------------------------
 CID_28378495_JID_8229_Energie_kation
 ------------------------------------
 Structure from the checkpoint file:  "JID_8229.chk"
 Charge =  1 Multiplicity = 2

 SCF Done:  E(UB3LYP) =  -805.500755312     A.U. after   28 cycles
 Normal termination of Gaussian 16 at Fri Dec 11 20:27:41 2020.
 Gaussian 16:  ES64L-G16RevA.03 25-Dec-2016

 ----------------------------------------------------------------------
 # B3LYP/6-311++G(d,p) empiricaldispersion=gd3bj scf=xqc pop=npa geom=c
 heck
 ----------------------------------------------------------------------

 -----------------------------------
 CID_28378495_JID_8229_Energie_anion
 -----------------------------------
 Structure from the checkpoint file:  "JID_8229.chk"
 Charge = -1 Multiplicity = 2

                         Standard orientation:
 ---------------------------------------------------------------------
 Center     Atomic      Atomic             Coordinates (Angstroms)
 Number     Number       Type             X           Y           Z
 ---------------------------------------------------------------------
      1          6           0       -2.220422    1.600846    1.926497
      2          6           0       -1.817068    2.237562    0.589669
      3          6           0       -2.507306    1.529519   -0.581312
      4          7           0       -2.206782    0.097544   -0.543465
      5          6           0       -2.614976   -0.571021    0.693023
      6          6           0       -1.956097    0.089310    1.911140
      7          6           0       -1.519456   -0.457666   -1.579232
      8          8           0       -1.271811    0.147425   -2.622364
      9          6           0       -1.021814   -1.907948   -1.443077
     10          8           0       -0.371468   -2.230433   -0.220950
     11          6           0        0.763848   -1.534563    0.119440
     12          6           0        1.292524   -1.834061    1.379883
     13          6           0        2.423290   -1.156520    1.824787
     14          6           0        3.035245   -0.187055    1.027506
     15          6           0        2.511944    0.103380   -0.234546
     16          6           0        1.371814   -0.571480   -0.690020
     17          6           0        3.173275    1.129797   -1.132167
     18          7           0        3.720152    2.247640   -0.355144
     19          1           0       -1.680368    2.072594    2.755615
     20          1           0       -3.291233    1.781822    2.102203
     21          1           0       -2.072038    3.304232    0.574146
     22          1           0       -0.730701    2.155421    0.452998
     23          1           0       -3.597092    1.662348   -0.514276
     24          1           0       -2.174044    1.907418   -1.547109
     25          1           0       -2.361455   -1.627329    0.645839
     26          1           0       -3.709254   -0.484594    0.772826
     27          1           0       -0.877733   -0.100641    1.873380
     28          1           0       -2.339270   -0.380615    2.825237
     29          1           0       -1.861937   -2.606185   -1.508005
     30          1           0       -0.362405   -2.077327   -2.299669
     31          1           0        0.799495   -2.584706    1.989186
     32          1           0        2.829515   -1.385464    2.806344
     33          1           0        3.907111    0.356551    1.373868
     34          1           0        0.963024   -0.316875   -1.660813
     35          1           0        4.017143    0.659005   -1.655605
     36          1           0        2.454233    1.429314   -1.913741
     37          1           0        4.196415    2.896508   -0.978900
     38          1           0        2.954432    2.765696    0.073704
 ---------------------------------------------------------------------

 SCF Done:  E(UB3LYP) =  -805.778048667     A.U. after   33 cycles
 SCF Done:  E(UB3LYP) =  -805.778048667     a.u. after    1 cycles

 The electronic state is 2-A.
 Alpha  occ. eigenvalues --  -19.06999 -18.99465 -14.25187 -14.19652 -10.17991
 Alpha  occ. eigenvalues --  -10.14948 -10.14305 -10.11191 -10.10402 -10.10079
 Alpha  occ. eigenvalues --  -10.08551 -10.08328 -10.07625 -10.07533 -10.07168
 Alpha  occ. eigenvalues --  -10.07146 -10.07031 -10.06851  -0.98711  -0.94537
 Alpha  occ. eigenvalues --   -0.84984  -0.79232  -0.75790  -0.70734  -0.67981
 Alpha  occ. eigenvalues --   -0.66896  -0.65986  -0.62685  -0.58432  -0.57064
 Alpha  occ. eigenvalues --   -0.54069  -0.51609  -0.50041  -0.49260  -0.45056
 Alpha  occ. eigenvalues --   -0.44631  -0.41006  -0.40821  -0.39605  -0.39183
 Alpha  occ. eigenvalues --   -0.37705  -0.36881  -0.36349  -0.35445  -0.34192
 Alpha  occ. eigenvalues --   -0.33793  -0.33118  -0.32811  -0.32087  -0.31622
 Alpha  occ. eigenvalues --   -0.30275  -0.29696  -0.28710  -0.28530  -0.27602
 Alpha  occ. eigenvalues --   -0.26279  -0.25914  -0.24694  -0.24137  -0.23774
 Alpha  occ. eigenvalues --   -0.23080  -0.22584  -0.16866  -0.16210  -0.15192
 Alpha  occ. eigenvalues --   -0.14897  -0.13200   0.04092
 Alpha virt. eigenvalues --    0.05728   0.06878   0.07190   0.07378   0.08088
 Alpha virt. eigenvalues --    0.08412   0.08755   0.08891   0.09248   0.09492
 Alpha virt. eigenvalues --    0.10470   0.10782   0.10897   0.11243   0.11334

  Beta  occ. eigenvalues --  -19.06993 -18.99433 -14.25196 -14.19603 -10.17957
  Beta  occ. eigenvalues --  -10.14944 -10.14308 -10.11172 -10.10391 -10.10065
  Beta  occ. eigenvalues --  -10.08518 -10.08319 -10.07589 -10.07523 -10.07149
  Beta  occ. eigenvalues --  -10.07130 -10.07007 -10.06839  -0.98694  -0.94484
  Beta  occ. eigenvalues --   -0.84970  -0.79151  -0.75739  -0.70698  -0.67939
  Beta  occ. eigenvalues --   -0.66853  -0.65938  -0.62634  -0.58387  -0.56984
  Beta  occ. eigenvalues --   -0.54028  -0.51578  -0.49983  -0.49218  -0.45005
  Beta  occ. eigenvalues --   -0.44593  -0.40957  -0.40786  -0.39576  -0.39117
  Beta  occ. eigenvalues --   -0.37664  -0.36843  -0.36320  -0.35407  -0.34155
  Beta  occ. eigenvalues --   -0.33748  -0.33067  -0.32781  -0.32037  -0.31586
  Beta  occ. eigenvalues --   -0.30223  -0.29655  -0.28668  -0.28433  -0.27561
  Beta  occ. eigenvalues --   -0.26249  -0.25880  -0.24638  -0.24089  -0.23734
  Beta  occ. eigenvalues --   -0.23034  -0.22537  -0.16833  -0.16066  -0.15137
  Beta  occ. eigenvalues --   -0.14838  -0.13086
  Beta virt. eigenvalues --    0.06253   0.06702   0.07233   0.07394   0.07812
  Beta virt. eigenvalues --    0.08555   0.08800   0.08977   0.09084   0.09503
  Beta virt. eigenvalues --    0.09723   0.10832   0.10949   0.11181   0.11551

 Mulliken charges and spin densities:
               1          2
     1  C    0.658505  -1.214810
     2  C   -0.045653  -0.064019
     3  C    0.059574  -0.281399
     4  N    0.126706   0.039177
     5  C    0.083282  -0.402728
     6  C   -0.437027   0.210193
     7  C   -0.004501  -0.051044
     8  O   -0.286049   0.018322
     9  C   -0.432115  -0.163080
    10  O   -0.039827   0.010190
    11  C   -0.140607  -0.270866
    12  C   -0.224258   0.133169
    13  C   -0.432874   0.170299
    14  C   -0.114154  -0.215668
    15  C   -0.106766   0.747445
    16  C   -0.092691   0.196852
    17  C    0.984395  -1.723915
    18  N   -0.393375   0.048339
    19  H   -0.418351   0.579205
    20  H   -0.046251   0.186652
    21  H   -0.334557   0.525982
    22  H    0.270952  -0.145669
    23  H   -0.095859   0.265624
    24  H    0.108312   0.085020
    25  H    0.230211  -0.031759
    26  H   -0.544944   0.737067
    27  H    0.644752  -0.456351
    28  H   -0.381651   0.550963
    29  H    0.081134   0.105886
    30  H    0.171646   0.047337
    31  H    0.050924   0.106097
    32  H   -0.002169   0.163881
    33  H    0.179840   0.022844
    34  H    0.347920  -0.166724
    35  H   -0.126320   0.296583
    36  H   -0.104362   0.291538
    37  H   -0.138850   0.379371
    38  H   -0.054943   0.269996
 Sum of Mulliken charges =  -1.00000   1.00000

 Dipole moment (field-independent basis, Debye):
    X=             -0.0035    Y=             -5.8150    Z=             -1.0018  Tot=              5.9006
 Quadrupole moment (field-independent basis, Debye-Ang):
   XX=           -186.3630   YY=           -154.2391   ZZ=           -153.6859
   XY=             -5.1241   XZ=             12.2158   YZ=              1.6465

 Summary of Natural Population Analysis:

                                       Natural Population
                Natural  -----------------------------------------------
    Atom  No    Charge         Core      Valence    Rydberg      Total
 -----------------------------------------------------------------------
      C    1   -0.18906      0.99963     2.18144    0.00799     3.18906
      C    2   -0.19518      0.99963     2.18742    0.00813     3.19518
      C    3   -0.08670      0.99960     2.07649    0.01060     3.08670
      N    4   -0.25211      0.99963     2.74118    0.01130     3.75211
      C    5   -0.08389      0.99960     2.07338    0.01091     3.08389
      C    6   -0.19777      0.99962     2.18921    0.00894     3.19777
      C    7    0.33247      0.99964     1.64587    0.02203     2.66753
      O    8   -0.32774      0.99988     3.32252    0.00534     4.32774
      C    9   -0.05107      0.99953     2.04068    0.01086     3.05107
      O   10   -0.27847      0.99986     3.26958    0.00904     4.27847
      C   11    0.15701      0.99937     1.82987    0.01375     2.84299
      C   12   -0.12324      0.99952     2.11430    0.00943     3.12324
      C   13   -0.09212      0.99957     2.08346    0.00909     3.09212
      C   14   -0.11426      0.99951     2.10599    0.00877     3.11426
      C   15   -0.00365      0.99952     1.99362    0.01052     3.00365
      C   16   -0.14627      0.99946     2.13869    0.00812     3.14627
      C   17   -0.09504      0.99960     2.08334    0.01210     3.09504
      N   18   -0.42100      0.99978     2.91089    0.01033     3.92100
      H   19    0.10145      0.00000     0.39738    0.00117     0.39855
      H   20    0.09420      0.00000     0.40385    0.00194     0.40580
      H   21    0.10162      0.00000     0.39714    0.00124     0.39838
      H   22    0.09905      0.00000     0.39886    0.00209     0.40095
      H   23    0.09169      0.00000     0.40703    0.00128     0.40831
      H   24    0.11657      0.00000     0.38221    0.00121     0.38343
      H   25    0.10792      0.00000     0.39050    0.00157     0.39208
      H   26    0.09264      0.00000     0.40570    0.00166     0.40736
      H   27    0.10226      0.00000     0.39489    0.00285     0.39774
      H   28    0.10072      0.00000     0.39788    0.00141     0.39928
      H   29    0.10068      0.00000     0.39831    0.00101     0.39932
      H   30    0.09879      0.00000     0.40000    0.00121     0.40121
      H   31    0.10471      0.00000     0.39415    0.00113     0.39529
      H   32    0.09825      0.00000     0.40099    0.00076     0.40175
      H   33    0.11073      0.00000     0.38801    0.00126     0.38927
      H   34    0.11291      0.00000     0.38419    0.00290     0.38709
      H   35    0.09575      0.00000     0.40300    0.00125     0.40425
      H   36    0.08533      0.00000     0.41300    0.00167     0.41467
      H   37    0.17776      0.00000     0.31889    0.00334     0.32224
      H   38    0.17506      0.00000     0.32277    0.00218     0.32494
 =======================================================================
   * Total *    0.00000     17.99293    48.78670    0.22037    67.00000

 Normal termination of Gaussian 16 at Fri Dec 11 20:48:21 2020.
