 Gaussian 16, Revision A.03,

 -----------------------------------------------------------
 # opt freq B3LYP/6-31G(d) empiricaldispersion=gd3bj scf=xqc
 -----------------------------------------------------------

 ------------------------------
 CID_82767319_JID_6246_neutraal
 ------------------------------
 Symbolic Z-matrix:
 Charge =  0 Multiplicity = 1

 SCF Done:  E(RB3LYP) =  -695.812968251     A.U. after   13 cycles
 SCF Done:  E(RB3LYP) =  -695.816816028     A.U. after   11 cycles
 SCF Done:  E(RB3LYP) =  -695.815850527     A.U. after   11 cycles
 SCF Done:  E(RB3LYP) =  -695.816208157     A.U. after   11 cycles
 SCF Done:  E(RB3LYP) =  -695.817883666     A.U. after    8 cycles
 SCF Done:  E(RB3LYP) =  -695.818469815     A.U. after   10 cycles
 SCF Done:  E(RB3LYP) =  -695.818288136     A.U. after   10 cycles
 SCF Done:  E(RB3LYP) =  -695.818554084     A.U. after   10 cycles
 SCF Done:  E(RB3LYP) =  -695.818597104     A.U. after    9 cycles
 SCF Done:  E(RB3LYP) =  -695.818600740     A.U. after    8 cycles
 SCF Done:  E(RB3LYP) =  -695.818602348     A.U. after    7 cycles
 SCF Done:  E(RB3LYP) =  -695.818603734     A.U. after    7 cycles
 SCF Done:  E(RB3LYP) =  -695.818604453     A.U. after    7 cycles
 SCF Done:  E(RB3LYP) =  -695.818604634     A.U. after    6 cycles
 SCF Done:  E(RB3LYP) =  -695.818604705     A.U. after    6 cycles
 Optimization completed.
    -- Stationary point found.
 Normal termination of Gaussian 16 at Thu Dec 10 22:00:38 2020.

 --------------------------------------------------------------------
 #N Geom=AllCheck Guess=TCheck SCRF=Check GenChk RB3LYP/6-31G(d) Freq
 --------------------------------------------------------------------

 Structure from the checkpoint file:  "JID_6246.chk"
 ------------------------------
 CID_82767319_JID_6246_neutraal
 ------------------------------
 Charge =  0 Multiplicity = 1

 SCF Done:  E(RB3LYP) =  -695.818604705     A.U. after    1 cycles

  Exact polarizability: 159.511  -1.439 143.400  -0.182   1.212 136.795
 Approx polarizability: 212.264  -1.344 206.547   0.740   4.416 203.628

                      1                      2                      3
                      A                      A                      A
 Frequencies --     42.2306                77.4790                94.7587
 Red. masses --      3.3391                 3.6978                 3.3945
 Frc consts  --      0.0035                 0.0131                 0.0180
 IR Inten    --      0.1921                 0.6232                 2.4189

                      4                      5                      6
                      A                      A                      A
 Frequencies --    137.1003               158.5348               166.2826
 Red. masses --      2.0943                 2.3495                 3.4349
 Frc consts  --      0.0232                 0.0348                 0.0560
 IR Inten    --      0.1458                 0.3059                 1.3846

                      7                      8                      9
                      A                      A                      A
 Frequencies --    188.0303               206.2473               224.0254
 Red. masses --      2.1167                 1.2091                 1.2207
 Frc consts  --      0.0441                 0.0303                 0.0361
 IR Inten    --      2.7572                 0.6688                 3.2204

                     10                     11                     12
                      A                      A                      A
 Frequencies --    236.5992               242.3994               264.2903
 Red. masses --      1.7239                 1.4378                 2.6419
 Frc consts  --      0.0569                 0.0498                 0.1087
 IR Inten    --     15.7520                10.5718                 4.9565

                     13                     14                     15
                      A                      A                      A
 Frequencies --    272.4600               280.5370               290.6183
 Red. masses --      2.5652                 1.4310                 1.4728
 Frc consts  --      0.1122                 0.0664                 0.0733
 IR Inten    --      6.8233                 1.1754                 2.3457

                     16                     17                     18
                      A                      A                      A
 Frequencies --    336.3826               363.0995               374.2190
 Red. masses --      2.4179                 2.2040                 2.4529
 Frc consts  --      0.1612                 0.1712                 0.2024
 IR Inten    --      0.0982                 0.9719                 2.0964

                     19                     20                     21
                      A                      A                      A
 Frequencies --    395.1391               411.1962               434.0162
 Red. masses --      2.5060                 2.1623                 1.9352
 Frc consts  --      0.2305                 0.2154                 0.2148
 IR Inten    --      5.0963                 0.9928                 7.5571

                     22                     23                     24
                      A                      A                      A
 Frequencies --    459.9829               474.6779               504.9614
 Red. masses --      2.2120                 3.8248                 2.7323
 Frc consts  --      0.2757                 0.5078                 0.4105
 IR Inten    --      1.7421                 2.6437                 9.5018

                     25                     26                     27
                      A                      A                      A
 Frequencies --    523.9948               541.3555               574.6083
 Red. masses --      2.7479                 3.1800                 3.4570
 Frc consts  --      0.4445                 0.5491                 0.6725
 IR Inten    --      0.4504                 2.3500                 0.4620

                     28                     29                     30
                      A                      A                      A
 Frequencies --    617.5426               644.3779               728.4653
 Red. masses --      3.0829                 2.4226                 2.3938
 Frc consts  --      0.6927                 0.5927                 0.7484
 IR Inten    --      1.0875                 5.0515                 8.4341

                     31                     32                     33
                      A                      A                      A
 Frequencies --    738.4555               778.6983               838.3614
 Red. masses --      3.0651                 1.6074                 2.0320
 Frc consts  --      0.9848                 0.5743                 0.8415
 IR Inten    --     21.1054                 2.9527                34.3522

                     34                     35                     36
                      A                      A                      A
 Frequencies --    845.1563               882.0374               886.8714
 Red. masses --      2.1985                 1.6478                 1.9621
 Frc consts  --      0.9252                 0.7553                 0.9093
 IR Inten    --     13.3978               117.9659                31.1235

                     37                     38                     39
                      A                      A                      A
 Frequencies --    903.4986               913.8488               927.8578
 Red. masses --      2.0723                 2.3318                 2.0114
 Frc consts  --      0.9967                 1.1473                 1.0203
 IR Inten    --      3.8063                 7.0872                 5.5154

                     40                     41                     42
                      A                      A                      A
 Frequencies --    934.9272               950.8638               954.6661
 Red. masses --      2.2208                 1.5731                 1.5431
 Frc consts  --      1.1437                 0.8380                 0.8286
 IR Inten    --     23.3515                 0.6772                 2.4982

                     43                     44                     45
                      A                      A                      A
 Frequencies --    975.8240              1015.5437              1030.4000
 Red. masses --      1.6231                 1.6506                 1.9017
 Frc consts  --      0.9106                 1.0030                 1.1896
 IR Inten    --      9.3624                10.2745                14.1915

                     46                     47                     48
                      A                      A                      A
 Frequencies --   1034.0287              1040.3751              1051.9223
 Red. masses --      2.1888                 2.9401                 1.5947
 Frc consts  --      1.3789                 1.8750                 1.0397
 IR Inten    --     22.8042                18.5967                 2.9507

                     49                     50                     51
                      A                      A                      A
 Frequencies --   1060.1825              1087.3159              1124.5592
 Red. masses --      1.6054                 1.4739                 2.1281
 Frc consts  --      1.0632                 1.0267                 1.5856
 IR Inten    --      5.2477                 0.8012                 4.7048

                     52                     53                     54
                      A                      A                      A
 Frequencies --   1128.8074              1143.8272              1158.9827
 Red. masses --      2.5738                 2.1877                 2.5005
 Frc consts  --      1.9322                 1.6864                 1.9789
 IR Inten    --     43.8009                16.9033                 4.9730

                     55                     56                     57
                      A                      A                      A
 Frequencies --   1163.3976              1171.9514              1216.7109
 Red. masses --      2.2405                 4.4246                 1.7910
 Frc consts  --      1.7867                 3.5805                 1.5622
 IR Inten    --     10.2356                83.3367                 3.2884

                     58                     59                     60
                      A                      A                      A
 Frequencies --   1220.1807              1223.6149              1239.1945
 Red. masses --      2.1444                 2.5328                 2.5154
 Frc consts  --      1.8811                 2.2343                 2.2758
 IR Inten    --     14.6783                 5.4576                10.3949

                     61                     62                     63
                      A                      A                      A
 Frequencies --   1254.9949              1270.2675              1275.4160
 Red. masses --      1.8772                 1.6287                 1.2178
 Frc consts  --      1.7420                 1.5484                 1.1671
 IR Inten    --      4.7896                 8.1941                 0.2005

                     64                     65                     66
                      A                      A                      A
 Frequencies --   1294.2120              1306.2776              1322.8343
 Red. masses --      1.4594                 1.8578                 1.4411
 Frc consts  --      1.4402                 1.8678                 1.4858
 IR Inten    --      3.8439                 3.7766                15.2646

                     67                     68                     69
                      A                      A                      A
 Frequencies --   1327.3926              1355.4450              1358.3125
 Red. masses --      1.3850                 1.4462                 1.2172
 Frc consts  --      1.4378                 1.5655                 1.3231
 IR Inten    --      9.4081                 0.9095                 8.5817

                     70                     71                     72
                      A                      A                      A
 Frequencies --   1359.3607              1371.8169              1382.4610
 Red. masses --      1.3594                 1.2521                 1.2905
 Frc consts  --      1.4800                 1.3883                 1.4531
 IR Inten    --      0.6449                 8.6785                11.4619

                     73                     74                     75
                      A                      A                      A
 Frequencies --   1400.7361              1421.9701              1424.2741
 Red. masses --      1.3053                 1.2798                 1.3420
 Frc consts  --      1.5089                 1.5247                 1.6040
 IR Inten    --      5.3281                10.0309                 3.9369

                     76                     77                     78
                      A                      A                      A
 Frequencies --   1430.1931              1437.5047              1443.5000
 Red. masses --      1.2982                 1.2954                 1.3516
 Frc consts  --      1.5646                 1.5772                 1.6593
 IR Inten    --      5.8777                 8.2348                12.6146

                     79                     80                     81
                      A                      A                      A
 Frequencies --   1452.0597              1455.3436              1504.7967
 Red. masses --      1.2926                 1.2517                 1.0784
 Frc consts  --      1.6058                 1.5620                 1.4387
 IR Inten    --     10.0428                 3.2141                 1.2848

                     82                     83                     84
                      A                      A                      A
 Frequencies --   1507.6532              1509.9466              1515.3618
 Red. masses --      1.0763                 1.0760                 1.0736
 Frc consts  --      1.4415                 1.4454                 1.4526
 IR Inten    --      0.3778                 3.6331                 2.5168

                     85                     86                     87
                      A                      A                      A
 Frequencies --   1518.8198              1522.4908              1526.4393
 Red. masses --      1.0651                 1.0931                 1.0561
 Frc consts  --      1.4476                 1.4928                 1.4498
 IR Inten    --      1.0047                 1.7409                 5.7677

                     88                     89                     90
                      A                      A                      A
 Frequencies --   1529.3289              1530.5854              1539.5318
 Red. masses --      1.0750                 1.0592                 1.0812
 Frc consts  --      1.4814                 1.4620                 1.5099
 IR Inten    --      2.1569                 2.3352                 4.5037

                     91                     92                     93
                      A                      A                      A
 Frequencies --   1542.2866              1543.1320              1551.9872
 Red. masses --      1.0840                 1.0602                 1.0737
 Frc consts  --      1.5192                 1.4875                 1.5237
 IR Inten    --     14.3178                 9.7621                 2.8752

                     94                     95                     96
                      A                      A                      A
 Frequencies --   1695.3180              2957.8546              2980.8154
 Red. masses --      1.0951                 1.0738                 1.0727
 Frc consts  --      1.8544                 5.5352                 5.6155
 IR Inten    --     14.0024                38.9821                46.6679

                     97                     98                     99
                      A                      A                      A
 Frequencies --   2990.2045              2996.7130              3015.7807
 Red. masses --      1.0697                 1.0699                 1.0837
 Frc consts  --      5.6355                 5.6607                 5.8070
 IR Inten    --     13.0336               100.5064                21.8562

                    100                    101                    102
                      A                      A                      A
 Frequencies --   3031.8525              3042.2590              3057.0229
 Red. masses --      1.0388                 1.0723                 1.0370
 Frc consts  --      5.6261                 5.8474                 5.7098
 IR Inten    --     31.1566                47.8600                17.8817

                    103                    104                    105
                      A                      A                      A
 Frequencies --   3061.7728              3069.6148              3084.2395
 Red. masses --      1.0383                 1.0656                 1.0624
 Frc consts  --      5.7349                 5.9159                 5.9542
 IR Inten    --     14.0341                42.8334                38.7929

                    106                    107                    108
                      A                      A                      A
 Frequencies --   3089.0902              3094.8965              3108.8439
 Red. masses --      1.0955                 1.0924                 1.1005
 Frc consts  --      6.1591                 6.1647                 6.2665
 IR Inten    --      9.9563                39.4991                 3.7769

                    109                    110                    111
                      A                      A                      A
 Frequencies --   3109.3931              3110.6883              3113.4982
 Red. masses --      1.0943                 1.0996                 1.0950
 Frc consts  --      6.2337                 6.2687                 6.2543
 IR Inten    --     24.1126                77.0347                31.1602

                    112                    113                    114
                      A                      A                      A
 Frequencies --   3117.2484              3121.0140              3124.2231
 Red. masses --      1.1000                 1.0892                 1.0958
 Frc consts  --      6.2976                 6.2508                 6.3019
 IR Inten    --      3.5919                 6.1237               100.3623

                    115                    116                    117
                      A                      A                      A
 Frequencies --   3128.8802              3136.3726              3143.4208
 Red. masses --      1.0946                 1.0988                 1.1021
 Frc consts  --      6.3134                 6.3681                 6.4161
 IR Inten    --     41.4402                49.2465                21.1816

                    118                    119                    120
                      A                      A                      A
 Frequencies --   3145.1182              3474.2706              3563.2659
 Red. masses --      1.1004                 1.0495                 1.0912
 Frc consts  --      6.4133                 7.4638                 8.1628
 IR Inten    --     19.1348                 2.6487                 0.3169

 - Thermochemistry -
 -------------------
 Temperature   298.150 Kelvin.  Pressure   1.00000 Atm.
 Atom     1 has atomic number  6 and mass  12.00000

 Molecular mass:   226.20451 amu.
 Principal axes and moments of inertia in atomic units:
                           1         2         3
     Eigenvalues --  2194.924014557.016715027.23231
           X            0.99997  -0.00728   0.00012
           Y            0.00728   0.99991  -0.01133
           Z           -0.00004   0.01133   0.99994
 This molecule is an asymmetric top.
 Rotational symmetry number  1.
 Warning -- assumption of classical behavior for rotation
           may cause significant error
 Rotational temperatures (Kelvin)      0.03946     0.01901     0.01723
 Rotational constants (GHZ):           0.82223     0.39604     0.35899
 Zero-point vibrational energy    1020762.0 (Joules/Mol)
                                  243.96797 (Kcal/Mol)
 Warning -- explicit consideration of  28 degrees of freedom as
           vibrations may cause significant error
 Vibrational temperatures:     60.76   111.47   136.34   197.26   228.10
          (Kelvin)            239.24   270.53   296.74   322.32   340.41
                              348.76   380.25   392.01   403.63   418.13
                              483.98   522.42   538.42   568.52   591.62
                              624.45   661.81   682.96   726.53   753.91
                              778.89   826.73   888.51   927.12  1048.10
                             1062.47  1120.37  1206.22  1215.99  1269.06
                             1276.01  1299.93  1314.82  1334.98  1345.15
                             1368.08  1373.55  1403.99  1461.14  1482.52
                             1487.74  1496.87  1513.48  1525.37  1564.41
                             1617.99  1624.10  1645.71  1667.52  1673.87
                             1686.18  1750.58  1755.57  1760.51  1782.92
                             1805.66  1827.63  1835.04  1862.08  1879.44
                             1903.26  1909.82  1950.18  1954.31  1955.82
                             1973.74  1989.05  2015.35  2045.90  2049.21
                             2057.73  2068.25  2076.87  2089.19  2093.91
                             2165.07  2169.18  2172.48  2180.27  2185.24
                             2190.52  2196.21  2200.36  2202.17  2215.04
                             2219.01  2220.22  2232.96  2439.18  4255.69
                             4288.73  4302.24  4311.60  4339.04  4362.16
                             4377.13  4398.37  4405.21  4416.49  4437.53
                             4444.51  4452.87  4472.93  4473.72  4475.59
                             4479.63  4485.03  4490.44  4495.06  4501.76
                             4512.54  4522.68  4525.12  4998.70  5126.74

 Zero-point correction=                           0.388788 (Hartree/Particle)
 Thermal correction to Energy=                    0.405395
 Thermal correction to Enthalpy=                  0.406339
 Thermal correction to Gibbs Free Energy=         0.346642
 Sum of electronic and zero-point Energies=           -695.429817
 Sum of electronic and thermal Energies=              -695.413210
 Sum of electronic and thermal Enthalpies=            -695.412266
 Sum of electronic and thermal Free Energies=         -695.471963

                     E (Thermal)             CV                S
                      KCal/Mol        Cal/Mol-Kelvin    Cal/Mol-Kelvin
 Total                  254.389             67.182            125.643
 Electronic               0.000              0.000              0.000
 Translational            0.889              2.981             42.151
 Rotational               0.889              2.981             32.286
 Vibrational            252.612             61.221             51.205
 Vibration     1          0.595              1.980              5.152
 Vibration     2          0.599              1.964              3.954
 Vibration     3          0.603              1.953              3.559
 Vibration     4          0.614              1.916              2.844
 Vibration     5          0.621              1.893              2.567
 Vibration     6          0.624              1.884              2.477
 Vibration     7          0.633              1.856              2.247
 Vibration     8          0.641              1.831              2.077
 Vibration     9          0.649              1.804              1.926
 Vibration    10          0.655              1.785              1.828
 Vibration    11          0.659              1.775              1.785
 Vibration    12          0.671              1.738              1.633
 Vibration    13          0.675              1.724              1.581
 Vibration    14          0.680              1.710              1.530
 Vibration    15          0.687              1.691              1.470
 Vibration    16          0.717              1.603              1.229
 Vibration    17          0.737              1.548              1.109
 Vibration    18          0.745              1.525              1.062
 Vibration    19          0.762              1.481              0.981
 Vibration    20          0.775              1.446              0.922
 Vibration    21          0.795              1.396              0.846
 Vibration    22          0.818              1.339              0.766
 Vibration    23          0.831              1.306              0.725
 Vibration    24          0.860              1.239              0.646
 Vibration    25          0.879              1.197              0.601
 Vibration    26          0.896              1.159              0.562
 Vibration    27          0.931              1.086              0.495
 Vibration    28          0.977              0.995              0.420

                           ! Non-Optimized Parameters !
 Normal termination of Gaussian 16 at Thu Dec 10 22:22:16 2020.

 ----------------------------------------------------------------------
 # B3LYP/6-311++G(d,p) empiricaldispersion=gd3bj scf=xqc pop=npa geom=c
 heck
 ----------------------------------------------------------------------

 --------------------------------------
 CID_82767319_JID_6246_Energie_neutraal
 --------------------------------------
 Structure from the checkpoint file:  "JID_6246.chk"
 Charge =  0 Multiplicity = 1

 SCF Done:  E(RB3LYP) =  -696.017648084     A.U. after   13 cycles
 Normal termination of Gaussian 16 at Thu Dec 10 22:32:21 2020.

 ----------------------------------------------------------------------
 # B3LYP/6-311++G(d,p) empiricaldispersion=gd3bj scf=xqc pop=npa geom=c
 heck
 ----------------------------------------------------------------------

 ------------------------------------
 CID_82767319_JID_6246_Energie_kation
 ------------------------------------
 Structure from the checkpoint file:  "JID_6246.chk"
 Charge =  1 Multiplicity = 2

 SCF Done:  E(UB3LYP) =  -695.734757797     A.U. after   23 cycles
 Normal termination of Gaussian 16 at Thu Dec 10 22:56:50 2020.
 Gaussian 16:  ES64L-G16RevA.03 25-Dec-2016

 ----------------------------------------------------------------------
 # B3LYP/6-311++G(d,p) empiricaldispersion=gd3bj scf=xqc pop=npa geom=c
 heck
 ----------------------------------------------------------------------

 -----------------------------------
 CID_82767319_JID_6246_Energie_anion
 -----------------------------------
 Structure from the checkpoint file:  "JID_6246.chk"
 Charge = -1 Multiplicity = 2

                         Standard orientation:
 ---------------------------------------------------------------------
 Center     Atomic      Atomic             Coordinates (Angstroms)
 Number     Number       Type             X           Y           Z
 ---------------------------------------------------------------------
      1          6           0       -2.508130    1.293632   -1.329122
      2          6           0       -1.855919    0.835362   -0.008048
      3          6           0       -2.858956   -0.025504    0.785709
      4          8           0       -3.190549   -1.237901    0.134084
      5          6           0       -2.022918   -2.027156   -0.025421
      6          6           0       -0.968777   -1.285861   -0.833156
      7          7           0       -0.637091   -0.001106   -0.214271
      8          6           0        0.480574    0.666684   -0.898978
      9          6           0        1.872504    0.670190   -0.209332
     10          6           0        1.811407    1.052543    1.283836
     11          6           0        1.512736   -0.254585    2.057862
     12          6           0        1.959084   -1.408502    1.124295
     13          6           0        2.574153   -0.724129   -0.112165
     14          7           0        2.634716   -1.588827   -1.286710
     15          6           0        2.744176    1.643469   -1.015502
     16          6           0       -1.540074    2.050156    0.872574
     17          1           0       -3.349577    1.965313   -1.126044
     18          1           0       -2.895511    0.442674   -1.895015
     19          1           0       -1.795004    1.835978   -1.958637
     20          1           0       -2.433465   -0.238721    1.780269
     21          1           0       -3.796886    0.522734    0.914241
     22          1           0       -2.328159   -2.944416   -0.537290
     23          1           0       -1.609767   -2.291404    0.962317
     24          1           0       -1.318598   -1.171206   -1.875351
     25          1           0       -0.070751   -1.907049   -0.864187
     26          1           0        0.602314    0.247884   -1.911861
     27          1           0        0.217962    1.716200   -1.059104
     28          1           0        2.796268    1.438456    1.578066
     29          1           0        1.090753    1.847009    1.491421
     30          1           0        0.443739   -0.334666    2.264959
     31          1           0        2.039984   -0.274382    3.017570
     32          1           0        1.102978   -2.024000    0.834160
     33          1           0        2.683034   -2.083791    1.590219
     34          1           0        3.621079   -0.497363    0.135406
     35          1           0        1.701954   -1.779064   -1.645515
     36          1           0        3.140356   -1.122746   -2.038376
     37          1           0        2.823989    1.333619   -2.066193
     38          1           0        2.331278    2.659415   -1.005263
     39          1           0        3.758530    1.690826   -0.603528
     40          1           0       -0.871676    2.761062    0.379174
     41          1           0       -2.467108    2.586078    1.105616
     42          1           0       -1.075863    1.736508    1.811825
 ---------------------------------------------------------------------

 SCF Done:  E(UB3LYP) =  -696.003214671     A.U. after   31 cycles

 The electronic state is 2-A.
 Alpha  occ. eigenvalues --  -19.03786 -14.20950 -14.19511 -10.12849 -10.12220
 Alpha  occ. eigenvalues --  -10.11595 -10.10214 -10.09417 -10.09127 -10.07565
 Alpha  occ. eigenvalues --  -10.06503 -10.06310 -10.06273 -10.06060 -10.05819
 Alpha  occ. eigenvalues --  -10.05496  -0.95655  -0.82998  -0.79338  -0.72458
 Alpha  occ. eigenvalues --   -0.70824  -0.66556  -0.63628  -0.60039  -0.59556
 Alpha  occ. eigenvalues --   -0.59084  -0.55308  -0.54659  -0.52547  -0.46871
 Alpha  occ. eigenvalues --   -0.45346  -0.43959  -0.41285  -0.40018  -0.39595
 Alpha  occ. eigenvalues --   -0.38087  -0.38019  -0.36853  -0.35712  -0.34526
 Alpha  occ. eigenvalues --   -0.34057  -0.32801  -0.32197  -0.31655  -0.30527
 Alpha  occ. eigenvalues --   -0.29667  -0.29026  -0.28746  -0.28601  -0.26998
 Alpha  occ. eigenvalues --   -0.26345  -0.25572  -0.25196  -0.24667  -0.24161
 Alpha  occ. eigenvalues --   -0.23239  -0.22799  -0.22077  -0.21655  -0.21389
 Alpha  occ. eigenvalues --   -0.17065  -0.14195  -0.12100   0.04423
 Alpha virt. eigenvalues --    0.06422   0.06786   0.07095   0.08436   0.08520
 Alpha virt. eigenvalues --    0.08958   0.09249   0.09357   0.10850   0.11010
 Alpha virt. eigenvalues --    0.11290   0.11363   0.11700   0.12151   0.12696

  Beta  occ. eigenvalues --  -19.03783 -14.20943 -14.19482 -10.12843 -10.12210
  Beta  occ. eigenvalues --  -10.11592 -10.10201 -10.09406 -10.09106 -10.07564
  Beta  occ. eigenvalues --  -10.06475 -10.06307 -10.06267 -10.06047 -10.05789
  Beta  occ. eigenvalues --  -10.05454  -0.95647  -0.82984  -0.79299  -0.72429
  Beta  occ. eigenvalues --   -0.70805  -0.66531  -0.63601  -0.60001  -0.59511
  Beta  occ. eigenvalues --   -0.59046  -0.55250  -0.54614  -0.52509  -0.46846
  Beta  occ. eigenvalues --   -0.45308  -0.43919  -0.41255  -0.40002  -0.39549
  Beta  occ. eigenvalues --   -0.38065  -0.37995  -0.36822  -0.35668  -0.34502
  Beta  occ. eigenvalues --   -0.34031  -0.32774  -0.32169  -0.31622  -0.30499
  Beta  occ. eigenvalues --   -0.29640  -0.29001  -0.28714  -0.28566  -0.26960
  Beta  occ. eigenvalues --   -0.26316  -0.25544  -0.25167  -0.24644  -0.24144
  Beta  occ. eigenvalues --   -0.23210  -0.22769  -0.22054  -0.21632  -0.21373
  Beta  occ. eigenvalues --   -0.17050  -0.14168  -0.12065
  Beta virt. eigenvalues --    0.06534   0.07185   0.07316   0.07490   0.08887
  Beta virt. eigenvalues --    0.09016   0.09336   0.09640   0.09680   0.11170
  Beta virt. eigenvalues --    0.11389   0.11545   0.11707   0.12059   0.12488

 Mulliken charges and spin densities:
               1          2
     1  C    1.314804  -1.781047
     2  C   -1.913830   1.692542
     3  C   -0.037149  -0.355458
     4  O   -0.084791   0.022809
     5  C   -0.471420   0.015070
     6  C    0.281005  -0.213722
     7  N    0.516266   0.106858
     8  C    0.896346  -2.128769
     9  C   -2.386666   3.113482
    10  C    0.314791  -0.649312
    11  C   -0.149991  -0.263809
    12  C   -0.372428   0.207734
    13  C    0.307145  -1.213750
    14  N   -0.335841   0.108499
    15  C    1.427065  -1.705455
    16  C    0.303591  -0.756371
    17  H   -0.134688   0.302365
    18  H    0.048908   0.118780
    19  H   -0.601847   0.758934
    20  H    0.065433   0.080026
    21  H   -0.006050   0.184035
    22  H    0.024733   0.152132
    23  H    0.123681   0.005626
    24  H   -0.082862   0.243152
    25  H    0.345715  -0.278822
    26  H    0.234949  -0.041335
    27  H    0.790555  -0.617293
    28  H   -0.060221   0.237124
    29  H    0.135703   0.020442
    30  H    0.165644  -0.068676
    31  H    0.040858   0.122881
    32  H    0.036394   0.109071
    33  H    0.053352   0.090374
    34  H    0.013630   0.176319
    35  H   -0.102659   0.325967
    36  H    0.018278   0.239230
    37  H   -0.249106   0.411670
    38  H   -0.477656   0.629873
    39  H   -0.273584   0.410844
    40  H   -0.434911   0.613127
    41  H   -0.328176   0.498021
    42  H    0.045029   0.076833
 Sum of Mulliken charges =  -1.00000   1.00000

 Dipole moment (field-independent basis, Debye):
    X=             -1.8224    Y=             -4.6407    Z=              4.0492  Tot=              6.4229
 Quadrupole moment (field-independent basis, Debye-Ang):
   XX=           -176.7627   YY=           -156.1510   ZZ=           -144.6681
   XY=              4.6939   XZ=              4.3204   YZ=              1.9317

 Summary of Natural Population Analysis:

                                       Natural Population
                Natural  -----------------------------------------------
    Atom  No    Charge         Core      Valence    Rydberg      Total
 -----------------------------------------------------------------------
      C    1   -0.30011      0.99960     2.29310    0.00740     3.30011
      C    2    0.05763      0.99955     1.92732    0.01549     2.94237
      C    3   -0.01025      0.99949     1.99636    0.01440     3.01025
      O    4   -0.29778      0.99989     3.28918    0.00871     4.29778
      C    5   -0.01200      0.99957     2.00046    0.01197     3.01200
      C    6   -0.09503      0.99959     2.08530    0.01013     3.09503
      N    7   -0.30244      0.99968     2.78619    0.01657     3.80244
      C    8   -0.08861      0.99954     2.07372    0.01535     3.08861
      C    9   -0.05221      0.99953     2.03707    0.01561     3.05221
      C   10   -0.18855      0.99959     2.17973    0.00923     3.18855
      C   11   -0.19141      0.99963     2.18466    0.00711     3.19141
      C   12   -0.18993      0.99961     2.18224    0.00808     3.18993
      C   13   -0.00789      0.99952     1.99456    0.01381     3.00789
      N   14   -0.41957      0.99975     2.90966    0.01015     3.91957
      C   15   -0.28398      0.99962     2.27661    0.00774     3.28398
      C   16   -0.29039      0.99960     2.28315    0.00763     3.29039
      H   17    0.10229      0.00000     0.39653    0.00118     0.39771
      H   18    0.10430      0.00000     0.39434    0.00135     0.39570
      H   19    0.10444      0.00000     0.39429    0.00127     0.39556
      H   20    0.08111      0.00000     0.41750    0.00139     0.41889
      H   21    0.09369      0.00000     0.40501    0.00130     0.40631
      H   22    0.09077      0.00000     0.40826    0.00097     0.40923
      H   23    0.07823      0.00000     0.42039    0.00138     0.42177
      H   24    0.08683      0.00000     0.41176    0.00141     0.41317
      H   25    0.09510      0.00000     0.40335    0.00155     0.40490
      H   26    0.09362      0.00000     0.40420    0.00218     0.40638
      H   27    0.10203      0.00000     0.39564    0.00234     0.39797
      H   28    0.09655      0.00000     0.40221    0.00124     0.40345
      H   29    0.10337      0.00000     0.39547    0.00116     0.39663
      H   30    0.10071      0.00000     0.39772    0.00157     0.39929
      H   31    0.09232      0.00000     0.40679    0.00090     0.40768
      H   32    0.09473      0.00000     0.40390    0.00136     0.40527
      H   33    0.09766      0.00000     0.40145    0.00089     0.40234
      H   34    0.09044      0.00000     0.40786    0.00169     0.40956
      H   35    0.17035      0.00000     0.32728    0.00237     0.32965
      H   36    0.17823      0.00000     0.31982    0.00195     0.32177
      H   37    0.10064      0.00000     0.39763    0.00173     0.39936
      H   38    0.10242      0.00000     0.39611    0.00147     0.39758
      H   39    0.10049      0.00000     0.39811    0.00140     0.39951
      H   40    0.10642      0.00000     0.39227    0.00131     0.39358
      H   41    0.10311      0.00000     0.39585    0.00104     0.39689
      H   42    0.10264      0.00000     0.39621    0.00115     0.39736
 =======================================================================
   * Total *    0.00000     15.99378    46.78927    0.21694    63.00000

 Normal termination of Gaussian 16 at Thu Dec 10 23:29:28 2020.
