 Gaussian 16, Revision A.03,

 -----------------------------------------------------------
 # opt freq B3LYP/6-31G(d) empiricaldispersion=gd3bj scf=xqc
 -----------------------------------------------------------

 ------------------------------
 CID_62067539_JID_5934_neutraal
 ------------------------------
 Symbolic Z-matrix:
 Charge =  0 Multiplicity = 1

 SCF Done:  E(RB3LYP) =  -1067.27596908     A.U. after   14 cycles
 SCF Done:  E(RB3LYP) =  -1067.28146711     A.U. after   12 cycles
 SCF Done:  E(RB3LYP) =  -1067.28202035     A.U. after   12 cycles
 SCF Done:  E(RB3LYP) =  -1067.28258733     A.U. after   11 cycles
 SCF Done:  E(RB3LYP) =  -1067.28281457     A.U. after   12 cycles
 SCF Done:  E(RB3LYP) =  -1067.28296222     A.U. after   11 cycles
 SCF Done:  E(RB3LYP) =  -1067.28304669     A.U. after   11 cycles
 SCF Done:  E(RB3LYP) =  -1067.28308803     A.U. after   11 cycles
 SCF Done:  E(RB3LYP) =  -1067.28314800     A.U. after   11 cycles
 SCF Done:  E(RB3LYP) =  -1067.28340248     A.U. after   12 cycles
 SCF Done:  E(RB3LYP) =  -1067.28471942     A.U. after   10 cycles
 SCF Done:  E(RB3LYP) =  -1067.28473426     A.U. after    9 cycles
 SCF Done:  E(RB3LYP) =  -1067.28474048     A.U. after    9 cycles
 SCF Done:  E(RB3LYP) =  -1067.28474440     A.U. after    9 cycles
 SCF Done:  E(RB3LYP) =  -1067.28474614     A.U. after    8 cycles
 SCF Done:  E(RB3LYP) =  -1067.28474636     A.U. after    8 cycles
 Optimization completed.
    -- Stationary point found.
 Normal termination of Gaussian 16 at Thu Dec 10 17:47:50 2020.

 --------------------------------------------------------------------
 #N Geom=AllCheck Guess=TCheck SCRF=Check GenChk RB3LYP/6-31G(d) Freq
 --------------------------------------------------------------------

 Structure from the checkpoint file:  "JID_5934.chk"
 ------------------------------
 CID_62067539_JID_5934_neutraal
 ------------------------------
 Charge =  0 Multiplicity = 1

 SCF Done:  E(RB3LYP) =  -1067.28474636     A.U. after    1 cycles

  Exact polarizability: 147.706   1.378 124.535  -0.141   0.298 120.630
 Approx polarizability: 190.819   2.145 184.644   0.784   0.647 191.814

                      1                      2                      3
                      A                      A                      A
 Frequencies --     29.3459                57.9159                80.8438
 Red. masses --      3.1699                 3.8118                 3.7250
 Frc consts  --      0.0016                 0.0075                 0.0143
 IR Inten    --      0.6881                 1.2690                 1.2428

                      4                      5                      6
                      A                      A                      A
 Frequencies --    100.1542               158.9352               188.7638
 Red. masses --      3.2868                 3.3565                 3.8134
 Frc consts  --      0.0194                 0.0500                 0.0801
 IR Inten    --      0.4076                 1.6212                 0.3832

                      7                      8                      9
                      A                      A                      A
 Frequencies --    206.6247               229.6237               260.2324
 Red. masses --      2.8936                 3.1828                 2.3346
 Frc consts  --      0.0728                 0.0989                 0.0931
 IR Inten    --      2.6987                 1.3571                 0.1568

                     10                     11                     12
                      A                      A                      A
 Frequencies --    274.8726               296.1548               336.6198
 Red. masses --      2.4872                 6.6847                 5.0663
 Frc consts  --      0.1107                 0.3454                 0.3382
 IR Inten    --      2.3764                 3.2640                 0.9613

                     13                     14                     15
                      A                      A                      A
 Frequencies --    359.0699               361.1635               379.8979
 Red. masses --      4.8542                 1.3917                 2.1912
 Frc consts  --      0.3687                 0.1070                 0.1863
 IR Inten    --      1.9027                52.3262                 8.3370

                     16                     17                     18
                      A                      A                      A
 Frequencies --    404.2528               414.6226               437.9045
 Red. masses --      2.2394                 1.9833                 2.5010
 Frc consts  --      0.2156                 0.2009                 0.2826
 IR Inten    --      6.1730                10.9435                23.5264

                     19                     20                     21
                      A                      A                      A
 Frequencies --    456.8959               493.6000               501.0114
 Red. masses --      2.9223                 2.5305                 6.7160
 Frc consts  --      0.3594                 0.3632                 0.9932
 IR Inten    --      0.2113                10.2158                 2.4528

                     22                     23                     24
                      A                      A                      A
 Frequencies --    553.2238               619.9813               682.3368
 Red. masses --      4.5688                 5.9602                 3.2979
 Frc consts  --      0.8239                 1.3498                 0.9046
 IR Inten    --     32.2131               154.9200                60.9406

                     25                     26                     27
                      A                      A                      A
 Frequencies --    717.1441               791.9777               827.2198
 Red. masses --      2.3270                 4.7004                 1.4888
 Frc consts  --      0.7051                 1.7371                 0.6003
 IR Inten    --     18.3080                 9.7693                 1.9199

                     28                     29                     30
                      A                      A                      A
 Frequencies --    840.2332               844.0166               872.3897
 Red. masses --      2.8014                 2.4894                 1.6132
 Frc consts  --      1.1652                 1.0448                 0.7234
 IR Inten    --     12.7259                11.8030                17.1543

                     31                     32                     33
                      A                      A                      A
 Frequencies --    873.5333               915.4595               922.9574
 Red. masses --      1.9964                 3.1076                 1.9864
 Frc consts  --      0.8976                 1.5344                 0.9970
 IR Inten    --     11.6009               102.1252                 1.8669

                     34                     35                     36
                      A                      A                      A
 Frequencies --    925.6895               938.0639               981.4020
 Red. masses --      2.1795                 1.7322                 1.3154
 Frc consts  --      1.1004                 0.8981                 0.7465
 IR Inten    --     10.1095                79.2850                 0.7312

                     37                     38                     39
                      A                      A                      A
 Frequencies --    984.8288              1004.1073              1014.8604
 Red. masses --      2.5275                 1.9770                 1.7131
 Frc consts  --      1.4443                 1.1744                 1.0396
 IR Inten    --     41.0065               159.4704                 3.7186

                     40                     41                     42
                      A                      A                      A
 Frequencies --   1051.5379              1055.1290              1083.0360
 Red. masses --      2.3287                 2.0491                 1.7025
 Frc consts  --      1.5171                 1.3441                 1.1766
 IR Inten    --      0.8963                23.4945                13.1480

                     43                     44                     45
                      A                      A                      A
 Frequencies --   1087.5243              1116.9939              1127.4996
 Red. masses --      1.5320                 2.7849                 3.7308
 Frc consts  --      1.0675                 2.0472                 2.7944
 IR Inten    --      1.5552                 1.6666                20.8481

                     46                     47                     48
                      A                      A                      A
 Frequencies --   1132.9951              1164.0094              1180.2686
 Red. masses --      7.8820                 2.4040                 2.2557
 Frc consts  --      5.9614                 1.9191                 1.8514
 IR Inten    --    203.4697                24.4800                14.5814

                     49                     50                     51
                      A                      A                      A
 Frequencies --   1195.5576              1201.0328              1231.2595
 Red. masses --      1.1950                 1.2775                 1.3259
 Frc consts  --      1.0064                 1.0857                 1.1843
 IR Inten    --      0.8365                 6.8064                 7.3072

                     52                     53                     54
                      A                      A                      A
 Frequencies --   1243.4540              1249.2301              1298.5089
 Red. masses --      1.4565                 1.7875                 1.4411
 Frc consts  --      1.3269                 1.6436                 1.4316
 IR Inten    --     21.9544                 9.2893                 4.7874

                     55                     56                     57
                      A                      A                      A
 Frequencies --   1301.7974              1315.5899              1320.9377
 Red. masses --      1.2888                 1.1792                 1.3529
 Frc consts  --      1.2869                 1.2025                 1.3909
 IR Inten    --      3.8357                18.0697                12.2443

                     58                     59                     60
                      A                      A                      A
 Frequencies --   1339.9322              1346.3122              1353.2749
 Red. masses --      1.4133                 1.3826                 3.8227
 Frc consts  --      1.4950                 1.4765                 4.1247
 IR Inten    --     12.5325                14.5930               120.4664

                     61                     62                     63
                      A                      A                      A
 Frequencies --   1372.7746              1379.0041              1395.5389
 Red. masses --      1.3764                 1.4068                 1.3629
 Frc consts  --      1.5282                 1.5762                 1.5639
 IR Inten    --     13.7973                 3.8032                 7.0570

                     64                     65                     66
                      A                      A                      A
 Frequencies --   1401.5503              1405.2744              1407.2519
 Red. masses --      1.3654                 1.4666                 1.4366
 Frc consts  --      1.5803                 1.7064                 1.6763
 IR Inten    --      2.3536                 6.5454                 0.1974

                     67                     68                     69
                      A                      A                      A
 Frequencies --   1422.7110              1437.8202              1507.8309
 Red. masses --      1.3438                 1.4032                 1.0922
 Frc consts  --      1.6026                 1.7092                 1.4631
 IR Inten    --      7.5337                 4.8939                 2.7104

                     70                     71                     72
                      A                      A                      A
 Frequencies --   1514.8444              1517.0411              1519.4680
 Red. masses --      1.0919                 1.0862                 1.0861
 Frc consts  --      1.4762                 1.4728                 1.4775
 IR Inten    --      2.4619                 5.4831                 4.6028

                     73                     74                     75
                      A                      A                      A
 Frequencies --   1527.1039              1537.9775              1543.5549
 Red. masses --      1.0946                 1.0887                 1.0858
 Frc consts  --      1.5040                 1.5173                 1.5243
 IR Inten    --      9.2017                 2.4636                 7.6879

                     76                     77                     78
                      A                      A                      A
 Frequencies --   1550.6657              1705.5960              3005.2996
 Red. masses --      1.0906                 1.0847                 1.0737
 Frc consts  --      1.5451                 1.8592                 5.7137
 IR Inten    --      2.5781                11.5574                33.5824

                     79                     80                     81
                      A                      A                      A
 Frequencies --   3017.5117              3032.3416              3040.5229
 Red. masses --      1.0732                 1.0684                 1.0616
 Frc consts  --      5.7576                 5.7882                 5.7825
 IR Inten    --     36.3260                25.2039                37.0426

                     82                     83                     84
                      A                      A                      A
 Frequencies --   3049.3941              3057.5154              3061.2045
 Red. masses --      1.0709                 1.0615                 1.0631
 Frc consts  --      5.8672                 5.8465                 5.8697
 IR Inten    --     21.3437                18.8901                20.5865

                     85                     86                     87
                      A                      A                      A
 Frequencies --   3074.9438              3085.3923              3089.3303
 Red. masses --      1.0746                 1.0941                 1.0965
 Frc consts  --      5.9865                 6.1366                 6.1656
 IR Inten    --      9.7373                55.5916               102.3815

                     88                     89                     90
                      A                      A                      A
 Frequencies --   3089.5675              3101.9869              3114.6177
 Red. masses --      1.0881                 1.1041                 1.1018
 Frc consts  --      6.1194                 6.2597                 6.2976
 IR Inten    --     20.5761                43.4229                25.7487

                     91                     92                     93
                      A                      A                      A
 Frequencies --   3137.2954              3158.7062              3161.8038
 Red. masses --      1.0975                 1.0934                 1.0911
 Frc consts  --      6.3643                 6.4273                 6.4266
 IR Inten    --     25.3856                12.1447                 7.2885

                     94                     95                     96
                      A                      A                      A
 Frequencies --   3167.0317              3435.9686              3531.9207
 Red. masses --      1.0945                 1.0512                 1.0918
 Frc consts  --      6.4683                 7.3120                 8.0241
 IR Inten    --      4.7842                37.5106                12.2829

 - Thermochemistry -
 -------------------
 Temperature   298.150 Kelvin.  Pressure   1.00000 Atm.
 Atom     1 has atomic number  6 and mass  12.00000

 Molecular mass:   233.11980 amu.
 Principal axes and moments of inertia in atomic units:
                           1         2         3
     Eigenvalues --  2368.216563728.272874538.28508
           X            0.99994   0.01100  -0.00274
           Y           -0.01099   0.99994   0.00248
           Z            0.00277  -0.00245   0.99999
 This molecule is an asymmetric top.
 Rotational symmetry number  1.
 Warning -- assumption of classical behavior for rotation
           may cause significant error
 Rotational temperatures (Kelvin)      0.03657     0.02323     0.01909
 Rotational constants (GHZ):           0.76207     0.48407     0.39767
 Zero-point vibrational energy     785301.6 (Joules/Mol)
                                  187.69159 (Kcal/Mol)
 Warning -- explicit consideration of  23 degrees of freedom as
           vibrations may cause significant error
 Vibrational temperatures:     42.22    83.33   116.32   144.10   228.67
          (Kelvin)            271.59   297.29   330.38   374.42   395.48
                              426.10   484.32   516.62   519.63   546.59
                              581.63   596.55   630.05   657.37   710.18
                              720.84   795.97   892.01   981.73  1031.81
                             1139.48  1190.18  1208.91  1214.35  1255.17
                             1256.82  1317.14  1327.93  1331.86  1349.66
                             1412.02  1416.95  1444.69  1460.16  1512.93
                             1518.10  1558.25  1564.70  1607.11  1622.22
                             1630.13  1674.75  1698.14  1720.14  1728.02
                             1771.51  1789.05  1797.36  1868.26  1873.00
                             1892.84  1900.53  1927.86  1937.04  1947.06
                             1975.12  1984.08  2007.87  2016.52  2021.88
                             2024.72  2046.96  2068.70  2169.43  2179.52
                             2182.68  2186.18  2197.16  2212.81  2220.83
                             2231.06  2453.97  4323.96  4341.53  4362.86
                             4374.63  4387.40  4399.08  4404.39  4424.16
                             4439.19  4444.86  4445.20  4463.07  4481.24
                             4513.87  4544.67  4549.13  4556.65  4943.59
                             5081.65

 Zero-point correction=                           0.299106 (Hartree/Particle)
 Thermal correction to Energy=                    0.313531
 Thermal correction to Enthalpy=                  0.314475
 Thermal correction to Gibbs Free Energy=         0.257742
 Sum of electronic and zero-point Energies=          -1066.985641
 Sum of electronic and thermal Energies=             -1066.971215
 Sum of electronic and thermal Enthalpies=           -1066.970271
 Sum of electronic and thermal Free Energies=        -1067.027004

                     E (Thermal)             CV                S
                      KCal/Mol        Cal/Mol-Kelvin    Cal/Mol-Kelvin
 Total                  196.744             57.191            119.404
 Electronic               0.000              0.000              0.000
 Translational            0.889              2.981             42.241
 Rotational               0.889              2.981             32.061
 Vibrational            194.966             51.230             45.102
 Vibration     1          0.593              1.984              5.873
 Vibration     2          0.596              1.974              4.527
 Vibration     3          0.600              1.962              3.870
 Vibration     4          0.604              1.949              3.451
 Vibration     5          0.621              1.893              2.562
 Vibration     6          0.633              1.855              2.240
 Vibration     7          0.641              1.830              2.073
 Vibration     8          0.652              1.796              1.882
 Vibration     9          0.668              1.745              1.660
 Vibration    10          0.677              1.720              1.565
 Vibration    11          0.690              1.681              1.439
 Vibration    12          0.717              1.602              1.228
 Vibration    13          0.734              1.557              1.126
 Vibration    14          0.735              1.552              1.117
 Vibration    15          0.750              1.513              1.040
 Vibration    16          0.769              1.461              0.947
 Vibration    17          0.778              1.438              0.910
 Vibration    18          0.798              1.388              0.833
 Vibration    19          0.815              1.346              0.775
 Vibration    20          0.849              1.264              0.674
 Vibration    21          0.856              1.248              0.656
 Vibration    22          0.909              1.133              0.538
 Vibration    23          0.980              0.990              0.417

                           ! Non-Optimized Parameters !
 Normal termination of Gaussian 16 at Thu Dec 10 18:00:05 2020.

 ----------------------------------------------------------------------
 # B3LYP/6-311++G(d,p) empiricaldispersion=gd3bj scf=xqc pop=npa geom=c
 heck
 ----------------------------------------------------------------------

 --------------------------------------
 CID_62067539_JID_5934_Energie_neutraal
 --------------------------------------
 Structure from the checkpoint file:  "JID_5934.chk"
 Charge =  0 Multiplicity = 1

 SCF Done:  E(RB3LYP) =  -1067.50561659     A.U. after   14 cycles
 Normal termination of Gaussian 16 at Thu Dec 10 18:04:51 2020.

 ----------------------------------------------------------------------
 # B3LYP/6-311++G(d,p) empiricaldispersion=gd3bj scf=xqc pop=npa geom=c
 heck
 ----------------------------------------------------------------------

 ------------------------------------
 CID_62067539_JID_5934_Energie_kation
 ------------------------------------
 Structure from the checkpoint file:  "JID_5934.chk"
 Charge =  1 Multiplicity = 2

 SCF Done:  E(UB3LYP) =  -1067.19205111     A.U. after   25 cycles
 Normal termination of Gaussian 16 at Thu Dec 10 18:16:01 2020.
 Gaussian 16:  ES64L-G16RevA.03 25-Dec-2016

 ----------------------------------------------------------------------
 # B3LYP/6-311++G(d,p) empiricaldispersion=gd3bj scf=xqc pop=npa geom=c
 heck
 ----------------------------------------------------------------------

 -----------------------------------
 CID_62067539_JID_5934_Energie_anion
 -----------------------------------
 Structure from the checkpoint file:  "JID_5934.chk"
 Charge = -1 Multiplicity = 2

                         Standard orientation:
 ---------------------------------------------------------------------
 Center     Atomic      Atomic             Coordinates (Angstroms)
 Number     Number       Type             X           Y           Z
 ---------------------------------------------------------------------
      1          6           0       -3.433796    1.044035   -0.140144
      2          6           0       -2.652649    0.633511   -1.393206
      3          6           0       -1.816967   -0.620301   -1.132760
      4          7           0       -0.903236   -0.361649   -0.000444
      5          6           0       -1.630422   -0.056755    1.252653
      6          6           0       -2.488269    1.194442    1.056458
      7         16           0        0.390717   -1.485638    0.174938
      8          8           0        0.365229   -1.997059    1.543211
      9          8           0        0.353348   -2.362460   -0.993180
     10          7           0        1.780931   -0.580582    0.024681
     11          6           0        2.015102    0.036325   -1.306443
     12          6           0        2.781959    1.322791   -0.972964
     13          6           0        2.194718    1.737131    0.395221
     14          6           0        2.124068    0.382258    1.105257
     15          7           0        0.854667    2.327836    0.339429
     16          1           0       -3.982996    1.976192   -0.315840
     17          1           0       -4.182626    0.270939    0.083485
     18          1           0       -3.332795    0.439784   -2.231182
     19          1           0       -1.982528    1.448328   -1.699248
     20          1           0       -2.476271   -1.473766   -0.908081
     21          1           0       -1.223119   -0.888911   -2.005436
     22          1           0       -0.906474    0.102346    2.050884
     23          1           0       -2.257335   -0.913412    1.543145
     24          1           0       -1.823748    2.054925    0.914248
     25          1           0       -3.055779    1.374900    1.977184
     26          1           0        2.565249   -0.653780   -1.948396
     27          1           0        1.062891    0.273157   -1.797283
     28          1           0        2.654093    2.092193   -1.740916
     29          1           0        3.854225    1.113963   -0.877147
     30          1           0        2.856990    2.428582    0.926878
     31          1           0        1.386608    0.367853    1.907536
     32          1           0        3.094060    0.101553    1.528351
     33          1           0        0.859107    3.139677   -0.276889
     34          1           0        0.201355    1.651965   -0.060651
 ---------------------------------------------------------------------

 SCF Done:  E(UB3LYP) =  -1067.49711737     A.U. after   27 cycles

 The electronic state is 2-A.
 Alpha  occ. eigenvalues --  -88.98223 -19.02879 -19.02788 -14.25231 -14.25033
 Alpha  occ. eigenvalues --  -14.19166 -10.11563 -10.11405 -10.11391 -10.11390
 Alpha  occ. eigenvalues --  -10.10915 -10.07874 -10.07868 -10.07790 -10.07685
 Alpha  occ. eigenvalues --   -8.04193  -6.00440  -6.00425  -6.00392  -1.03813
 Alpha  occ. eigenvalues --   -0.92505  -0.86087  -0.84484  -0.78459  -0.71076
 Alpha  occ. eigenvalues --   -0.67689  -0.67349  -0.64451  -0.59306  -0.54436
 Alpha  occ. eigenvalues --   -0.54270  -0.49674  -0.49282  -0.46660  -0.45627
 Alpha  occ. eigenvalues --   -0.42862  -0.41621  -0.38963  -0.38418  -0.37190
 Alpha  occ. eigenvalues --   -0.36301  -0.35853  -0.34916  -0.34483  -0.32664
 Alpha  occ. eigenvalues --   -0.32163  -0.32060  -0.30831  -0.30572  -0.27924
 Alpha  occ. eigenvalues --   -0.26935  -0.26460  -0.26366  -0.25952  -0.24913
 Alpha  occ. eigenvalues --   -0.24536  -0.23529  -0.23116  -0.23073  -0.21755
 Alpha  occ. eigenvalues --   -0.18083  -0.15311  -0.14629   0.03960
 Alpha virt. eigenvalues --    0.06006   0.07108   0.07610   0.08219   0.08663
 Alpha virt. eigenvalues --    0.08974   0.10149   0.10544   0.10988   0.11318
 Alpha virt. eigenvalues --    0.11587   0.11779   0.12391   0.12752   0.13858

  Beta  occ. eigenvalues --  -88.98219 -19.02874 -19.02784 -14.25222 -14.25033
  Beta  occ. eigenvalues --  -14.19134 -10.11558 -10.11391 -10.11385 -10.11377
  Beta  occ. eigenvalues --  -10.10902 -10.07862 -10.07840 -10.07771 -10.07648
  Beta  occ. eigenvalues --   -8.04188  -6.00437  -6.00421  -6.00388  -1.03798
  Beta  occ. eigenvalues --   -0.92491  -0.86071  -0.84469  -0.78407  -0.71043
  Beta  occ. eigenvalues --   -0.67649  -0.67318  -0.64410  -0.59270  -0.54393
  Beta  occ. eigenvalues --   -0.54234  -0.49613  -0.49231  -0.46619  -0.45592
  Beta  occ. eigenvalues --   -0.42842  -0.41569  -0.38948  -0.38391  -0.37162
  Beta  occ. eigenvalues --   -0.36266  -0.35827  -0.34878  -0.34459  -0.32640
  Beta  occ. eigenvalues --   -0.32133  -0.32020  -0.30799  -0.30539  -0.27891
  Beta  occ. eigenvalues --   -0.26905  -0.26424  -0.26345  -0.25906  -0.24881
  Beta  occ. eigenvalues --   -0.24507  -0.23493  -0.23104  -0.23051  -0.21745
  Beta  occ. eigenvalues --   -0.18067  -0.15291  -0.14591
  Beta virt. eigenvalues --    0.06217   0.06883   0.07765   0.08179   0.08767
  Beta virt. eigenvalues --    0.09166   0.09454   0.10557   0.10832   0.11335
  Beta virt. eigenvalues --    0.11632   0.11961   0.12081   0.12608   0.13027

 Mulliken charges and spin densities:
               1          2
     1  C    1.245450  -1.650943
     2  C   -0.345339   0.129302
     3  C   -0.087038  -0.314217
     4  N   -0.102749  -0.026325
     5  C   -0.023180  -0.288141
     6  C   -0.901070   0.565658
     7  S    0.313238  -0.240123
     8  O   -0.108021   0.004248
     9  O   -0.213920   0.019193
    10  N    0.040104   0.028343
    11  C   -0.545299   0.405030
    12  C    0.918559  -1.682701
    13  C   -1.409337   1.489548
    14  C    0.965650  -1.350246
    15  N   -0.261383  -0.189091
    16  H   -0.298462   0.472919
    17  H    0.098981   0.012147
    18  H   -0.452044   0.638874
    19  H   -0.540599   0.693423
    20  H    0.113911   0.057918
    21  H    0.080776   0.122746
    22  H    0.040737   0.118334
    23  H    0.118732   0.080700
    24  H   -0.169717   0.346611
    25  H   -0.108558   0.275525
    26  H   -0.118402   0.306090
    27  H    0.263911  -0.078285
    28  H   -0.708145   0.916222
    29  H   -0.059486   0.205462
    30  H   -0.620234   0.865176
    31  H    0.283042  -0.055228
    32  H   -0.137614   0.330785
    33  H   -0.397198   0.643710
    34  H    2.124703  -1.852663
 Sum of Mulliken charges =  -1.00000   1.00000

 Dipole moment (field-independent basis, Debye):
    X=             -1.5673    Y=             -4.6832    Z=              2.6346  Tot=              5.5973
 Quadrupole moment (field-independent basis, Debye-Ang):
   XX=           -159.6089   YY=           -162.4695   ZZ=           -139.7602
   XY=             -0.5636   XZ=             -3.3795   YZ=              7.3885

 Summary of Natural Population Analysis:

                                       Natural Population
                Natural  -----------------------------------------------
    Atom  No    Charge         Core      Valence    Rydberg      Total
 -----------------------------------------------------------------------
      C    1   -0.19014      0.99963     2.18199    0.00853     3.19014
      C    2   -0.19536      0.99962     2.18601    0.00973     3.19536
      C    3   -0.08549      0.99960     2.07427    0.01163     3.08549
      N    4   -0.38314      0.99972     2.87069    0.01273     3.88314
      C    5   -0.08519      0.99960     2.07457    0.01102     3.08519
      C    6   -0.19845      0.99962     2.18992    0.00892     3.19845
      S    7    1.18400      4.99922     1.71338    0.10340     6.81600
      O    8   -0.45948      0.99990     3.45455    0.00502     4.45948
      O    9   -0.45946      0.99990     3.45451    0.00505     4.45946
      N   10   -0.37369      0.99972     2.86107    0.01289     3.87369
      C   11   -0.08883      0.99961     2.07750    0.01172     3.08883
      C   12   -0.20139      0.99961     2.19253    0.00924     3.20139
      C   13   -0.02054      0.99960     2.00627    0.01467     3.02054
      C   14   -0.08660      0.99959     2.07512    0.01190     3.08660
      N   15   -0.43190      0.99976     2.92072    0.01142     3.93190
      H   16    0.10346      0.00000     0.39523    0.00130     0.39654
      H   17    0.09120      0.00000     0.40757    0.00123     0.40880
      H   18    0.10305      0.00000     0.39569    0.00126     0.39695
      H   19    0.10024      0.00000     0.39718    0.00258     0.39976
      H   20    0.08629      0.00000     0.41250    0.00122     0.41371
      H   21    0.11168      0.00000     0.38714    0.00118     0.38832
      H   22    0.10818      0.00000     0.39075    0.00107     0.39182
      H   23    0.08874      0.00000     0.41010    0.00116     0.41126
      H   24    0.10654      0.00000     0.39171    0.00175     0.39346
      H   25    0.10038      0.00000     0.39874    0.00088     0.39962
      H   26    0.10328      0.00000     0.39559    0.00113     0.39672
      H   27    0.09603      0.00000     0.40181    0.00216     0.40397
      H   28    0.10973      0.00000     0.38739    0.00288     0.39027
      H   29    0.10098      0.00000     0.39740    0.00162     0.39902
      H   30    0.09881      0.00000     0.39962    0.00157     0.40119
      H   31    0.10830      0.00000     0.39024    0.00146     0.39170
      H   32    0.09929      0.00000     0.39946    0.00125     0.40071
      H   33    0.17889      0.00000     0.31785    0.00327     0.32111
      H   34    0.18059      0.00000     0.31488    0.00453     0.31941
 =======================================================================
   * Total *   -0.00000     18.99470    43.72393    0.28137    63.00000

 Normal termination of Gaussian 16 at Thu Dec 10 18:27:57 2020.
