 Gaussian 16, Revision A.03,

 -----------------------------------------------------------
 # opt freq B3LYP/6-31G(d) empiricaldispersion=gd3bj scf=xqc
 -----------------------------------------------------------

 -------------------------------
 CID_150511709_JID_4476_neutraal
 -------------------------------
 Symbolic Z-matrix:
 Charge =  0 Multiplicity = 1

 SCF Done:  E(RB3LYP) =  -1082.50277815     A.U. after   15 cycles
 SCF Done:  E(RB3LYP) =  -1082.50982846     A.U. after   13 cycles
 SCF Done:  E(RB3LYP) =  -1082.50993531     A.U. after   13 cycles
 SCF Done:  E(RB3LYP) =  -1082.51140294     A.U. after   13 cycles
 SCF Done:  E(RB3LYP) =  -1082.51187672     A.U. after   12 cycles
 SCF Done:  E(RB3LYP) =  -1082.51254880     A.U. after   12 cycles
 SCF Done:  E(RB3LYP) =  -1082.51298811     A.U. after   12 cycles
 SCF Done:  E(RB3LYP) =  -1082.51318960     A.U. after   12 cycles
 SCF Done:  E(RB3LYP) =  -1082.51335832     A.U. after   12 cycles
 SCF Done:  E(RB3LYP) =  -1082.51337108     A.U. after   10 cycles
 SCF Done:  E(RB3LYP) =  -1082.51337487     A.U. after    9 cycles
 SCF Done:  E(RB3LYP) =  -1082.51337652     A.U. after    9 cycles
 SCF Done:  E(RB3LYP) =  -1082.51337684     A.U. after    8 cycles
 Optimization completed.
    -- Stationary point found.
 Normal termination of Gaussian 16 at Thu Dec 10 09:51:53 2020.

 --------------------------------------------------------------------
 #N Geom=AllCheck Guess=TCheck SCRF=Check GenChk RB3LYP/6-31G(d) Freq
 --------------------------------------------------------------------

 Structure from the checkpoint file:  "JID_4476.chk"
 -------------------------------
 CID_150511709_JID_4476_neutraal
 -------------------------------
 Charge =  0 Multiplicity = 1

 SCF Done:  E(RB3LYP) =  -1082.51337684     A.U. after    1 cycles

  Exact polarizability: 129.640   1.565 109.163   7.864  -2.762  98.455
 Approx polarizability: 174.197 -10.992 166.458  13.790 -13.561 165.614

                      1                      2                      3
                      A                      A                      A
 Frequencies --     46.7282                66.7557                85.3345
 Red. masses --      6.2766                 4.3270                 5.4394
 Frc consts  --      0.0081                 0.0114                 0.0233
 IR Inten    --      3.4897                 1.2846                 0.1173

                      4                      5                      6
                      A                      A                      A
 Frequencies --    105.3812               147.7105               162.6878
 Red. masses --      5.1489                 4.2340                 3.6479
 Frc consts  --      0.0337                 0.0544                 0.0569
 IR Inten    --      1.3281                 1.7387                 2.9397

                      7                      8                      9
                      A                      A                      A
 Frequencies --    185.3745               219.7092               249.8422
 Red. masses --      4.8323                 5.7828                 5.2396
 Frc consts  --      0.0978                 0.1645                 0.1927
 IR Inten    --      0.2813                 1.0045                 0.9231

                     10                     11                     12
                      A                      A                      A
 Frequencies --    267.5625               273.7586               315.4651
 Red. masses --      3.5602                 5.0384                 2.2421
 Frc consts  --      0.1502                 0.2225                 0.1315
 IR Inten    --      4.9014                 0.8144                11.7315

                     13                     14                     15
                      A                      A                      A
 Frequencies --    377.0452               404.5752               433.4336
 Red. masses --      3.7412                 3.5136                 5.1891
 Frc consts  --      0.3134                 0.3388                 0.5744
 IR Inten    --     10.6948                 5.3840                 3.7587

                     16                     17                     18
                      A                      A                      A
 Frequencies --    464.5018               492.4104               532.4296
 Red. masses --      2.5479                 5.9051                 1.5753
 Frc consts  --      0.3239                 0.8436                 0.2631
 IR Inten    --     14.4137                25.8808                36.8900

                     19                     20                     21
                      A                      A                      A
 Frequencies --    550.6007               555.9273               582.0855
 Red. masses --      3.2158                 2.2487                 1.9024
 Frc consts  --      0.5744                 0.4095                 0.3798
 IR Inten    --      9.7562                76.5618                16.5205

                     22                     23                     24
                      A                      A                      A
 Frequencies --    629.9817               669.0620               711.0702
 Red. masses --      3.2746                 2.6445                 4.1087
 Frc consts  --      0.7657                 0.6975                 1.2240
 IR Inten    --     16.1143                40.5249                76.4591

                     25                     26                     27
                      A                      A                      A
 Frequencies --    765.7750               774.5224               776.0157
 Red. masses --      3.7582                 2.8500                 3.2357
 Frc consts  --      1.2985                 1.0073                 1.1480
 IR Inten    --     36.9990                60.0134               159.6598

                     28                     29                     30
                      A                      A                      A
 Frequencies --    838.6949               875.3399               918.4117
 Red. masses --      2.7160                 2.1153                 2.2739
 Frc consts  --      1.1256                 0.9550                 1.1301
 IR Inten    --     15.9521                20.3736                 7.7537

                     31                     32                     33
                      A                      A                      A
 Frequencies --    980.4843               991.5507              1007.5856
 Red. masses --      2.3919                 1.2771                 2.7113
 Frc consts  --      1.3548                 0.7398                 1.6218
 IR Inten    --      6.3642                 0.2282                19.1620

                     34                     35                     36
                      A                      A                      A
 Frequencies --   1017.5812              1029.5910              1050.9697
 Red. masses --      1.1364                 1.3201                 2.1234
 Frc consts  --      0.6933                 0.8245                 1.3819
 IR Inten    --     42.1802                 2.9899                39.9399

                     37                     38                     39
                      A                      A                      A
 Frequencies --   1086.2211              1111.3864              1138.0781
 Red. masses --      3.3429                 7.6739                 3.5243
 Frc consts  --      2.3238                 5.5846                 2.6895
 IR Inten    --     30.8499               129.6015                 7.5576

                     40                     41                     42
                      A                      A                      A
 Frequencies --   1151.4949              1191.2956              1209.8094
 Red. masses --      3.6691                 1.9051                 1.9892
 Frc consts  --      2.8663                 1.5930                 1.7154
 IR Inten    --     22.4779                 1.7527               284.5484

                     43                     44                     45
                      A                      A                      A
 Frequencies --   1235.6686              1266.1289              1282.5183
 Red. masses --      1.4520                 1.8673                 1.3428
 Frc consts  --      1.3062                 1.7637                 1.3013
 IR Inten    --      1.9014                32.4065                13.7136

                     46                     47                     48
                      A                      A                      A
 Frequencies --   1319.1545              1325.7026              1355.1342
 Red. masses --      2.0103                 1.7268                 1.3097
 Frc consts  --      2.0612                 1.7880                 1.4171
 IR Inten    --     55.3950                47.7994                 5.5018

                     49                     50                     51
                      A                      A                      A
 Frequencies --   1370.9181              1385.2165              1398.5630
 Red. masses --      1.3624                 1.2769                 1.3305
 Frc consts  --      1.5086                 1.4436                 1.5334
 IR Inten    --      5.1727                12.0671                16.4364

                     52                     53                     54
                      A                      A                      A
 Frequencies --   1411.4488              1430.3925              1483.9025
 Red. masses --      1.3150                 1.1930                 1.9631
 Frc consts  --      1.5434                 1.4382                 2.5469
 IR Inten    --      3.3866                16.7216               117.2050

                     55                     56                     57
                      A                      A                      A
 Frequencies --   1501.8736              1508.2224              1511.2730
 Red. masses --      1.0962                 1.2080                 1.1116
 Frc consts  --      1.4568                 1.6190                 1.4958
 IR Inten    --      2.3361                64.4967                 7.9932

                     58                     59                     60
                      A                      A                      A
 Frequencies --   1518.7682              1691.4896              1821.0454
 Red. masses --      1.1980                 4.3423                 9.1423
 Frc consts  --      1.6281                 7.3199                17.8627
 IR Inten    --     14.1811                 3.2886               446.7293

                     61                     62                     63
                      A                      A                      A
 Frequencies --   3059.0794              3069.1334              3078.6259
 Red. masses --      1.0638                 1.0679                 1.0625
 Frc consts  --      5.8656                 5.9266                 5.9335
 IR Inten    --     24.3395                27.7677                 6.7732

                     64                     65                     66
                      A                      A                      A
 Frequencies --   3098.2379              3112.1473              3137.7293
 Red. masses --      1.0831                 1.1042                 1.1061
 Frc consts  --      6.1258                 6.3011                 6.4161
 IR Inten    --      7.8192                35.2373                10.2581

                     67                     68                     69
                      A                      A                      A
 Frequencies --   3168.2233              3174.7791              3258.7324
 Red. masses --      1.0969                 1.0584                 1.1051
 Frc consts  --      6.4871                 6.2852                 6.9140
 IR Inten    --      4.6162                 5.1029                 0.6078

                     70                     71                     72
                      A                      A                      A
 Frequencies --   3270.3489              3483.5165              3734.4764
 Red. masses --      1.1074                 1.0741                 1.0648
 Frc consts  --      6.9781                 7.6798                 8.7495
 IR Inten    --      3.2059                 0.4285               109.4331

 - Thermochemistry -
 -------------------
 Temperature   298.150 Kelvin.  Pressure   1.00000 Atm.
 Atom     1 has atomic number  6 and mass  12.00000

 Molecular mass:   220.05178 amu.
 Principal axes and moments of inertia in atomic units:
                           1         2         3
     Eigenvalues --  1928.989423453.593354205.83404
           X            0.99897   0.04467   0.00808
           Y           -0.04467   0.99900  -0.00015
           Z           -0.00808  -0.00022   0.99997
 This molecule is an asymmetric top.
 Rotational symmetry number  1.
 Warning -- assumption of classical behavior for rotation
           may cause significant error
 Rotational temperatures (Kelvin)      0.04490     0.02508     0.02059
 Rotational constants (GHZ):           0.93559     0.52257     0.42910
 Zero-point vibrational energy     543742.8 (Joules/Mol)
                                  129.95764 (Kcal/Mol)
 Warning -- explicit consideration of  21 degrees of freedom as
           vibrations may cause significant error
 Vibrational temperatures:     67.23    96.05   122.78   151.62   212.52
          (Kelvin)            234.07   266.71   316.11   359.47   384.96
                              393.88   453.88   542.48   582.09   623.61
                              668.31   708.47   766.05   792.19   799.86
                              837.49   906.40   962.63  1023.07  1101.78
                             1114.37  1116.51  1206.69  1259.42  1321.39
                             1410.70  1426.62  1449.69  1464.07  1481.35
                             1512.11  1562.83  1599.04  1637.44  1656.74
                             1714.01  1740.65  1777.85  1821.68  1845.26
                             1897.97  1907.39  1949.74  1972.45  1993.02
                             2012.22  2030.76  2058.02  2135.00  2160.86
                             2170.00  2174.38  2185.17  2433.68  2620.08
                             4401.33  4415.80  4429.46  4457.67  4477.69
                             4514.49  4558.37  4567.80  4688.59  4705.30
                             5012.00  5373.08

 Zero-point correction=                           0.207101 (Hartree/Particle)
 Thermal correction to Energy=                    0.220680
 Thermal correction to Enthalpy=                  0.221624
 Thermal correction to Gibbs Free Energy=         0.166712
 Sum of electronic and zero-point Energies=          -1082.306276
 Sum of electronic and thermal Energies=             -1082.292697
 Sum of electronic and thermal Enthalpies=           -1082.291752
 Sum of electronic and thermal Free Energies=        -1082.346664

                     E (Thermal)             CV                S
                      KCal/Mol        Cal/Mol-Kelvin    Cal/Mol-Kelvin
 Total                  138.479             51.494            115.572
 Electronic               0.000              0.000              0.000
 Translational            0.889              2.981             42.069
 Rotational               0.889              2.981             31.705
 Vibrational            136.702             45.532             41.798
 Vibration     1          0.595              1.979              4.951
 Vibration     2          0.598              1.970              4.247
 Vibration     3          0.601              1.959              3.764
 Vibration     4          0.605              1.945              3.352
 Vibration     5          0.617              1.905              2.702
 Vibration     6          0.623              1.888              2.518
 Vibration     7          0.631              1.860              2.274
 Vibration     8          0.647              1.811              1.961
 Vibration     9          0.663              1.763              1.732
 Vibration    10          0.673              1.733              1.612
 Vibration    11          0.676              1.722              1.572
 Vibration    12          0.703              1.644              1.334
 Vibration    13          0.748              1.519              1.051
 Vibration    14          0.770              1.460              0.946
 Vibration    15          0.794              1.397              0.848
 Vibration    16          0.822              1.329              0.753
 Vibration    17          0.848              1.267              0.677
 Vibration    18          0.887              1.178              0.582
 Vibration    19          0.906              1.138              0.543
 Vibration    20          0.911              1.127              0.532
 Vibration    21          0.939              1.070              0.482

 Optimization completed.
    -- Stationary point found.
 Normal termination of Gaussian 16 at Thu Dec 10 09:59:07 2020.

 ----------------------------------------------------------------------
 # B3LYP/6-311++G(d,p) empiricaldispersion=gd3bj scf=xqc pop=npa geom=c
 heck
 ----------------------------------------------------------------------

 ---------------------------------------
 CID_150511709_JID_4476_Energie_neutraal
 ---------------------------------------
 Structure from the checkpoint file:  "JID_4476.chk"
 Charge =  0 Multiplicity = 1

 SCF Done:  E(RB3LYP) =  -1082.75112417     A.U. after   16 cycles
 Normal termination of Gaussian 16 at Thu Dec 10 10:01:56 2020.

 ----------------------------------------------------------------------
 # B3LYP/6-311++G(d,p) empiricaldispersion=gd3bj scf=xqc pop=npa geom=c
 heck
 ----------------------------------------------------------------------

 -------------------------------------
 CID_150511709_JID_4476_Energie_kation
 -------------------------------------
 Structure from the checkpoint file:  "JID_4476.chk"
 Charge =  1 Multiplicity = 2

 SCF Done:  E(UB3LYP) =  -1082.44045123     A.U. after   23 cycles
 Normal termination of Gaussian 16 at Thu Dec 10 10:07:24 2020.
 Gaussian 16:  ES64L-G16RevA.03 25-Dec-2016

 ----------------------------------------------------------------------
 # B3LYP/6-311++G(d,p) empiricaldispersion=gd3bj scf=xqc pop=npa geom=c
 heck
 ----------------------------------------------------------------------

 ------------------------------------
 CID_150511709_JID_4476_Energie_anion
 ------------------------------------
 Structure from the checkpoint file:  "JID_4476.chk"
 Charge = -1 Multiplicity = 2

                         Standard orientation:
 ---------------------------------------------------------------------
 Center     Atomic      Atomic             Coordinates (Angstroms)
 Number     Number       Type             X           Y           Z
 ---------------------------------------------------------------------
      1          6           0        3.123277    0.805846    1.552178
      2          6           0        2.251064    0.973471    0.563663
      3         16           0        1.633410   -0.462700   -0.305018
      4          8           0        1.716185   -0.234718   -1.752657
      5          8           0        2.267281   -1.661016    0.277843
      6          6           0       -0.133753   -0.652354    0.237536
      7          6           0       -0.896551   -1.566319   -0.739487
      8          7           0       -2.177188   -1.986415   -0.168720
      9          6           0       -2.964494   -0.873068    0.371471
     10          6           0       -2.166815    0.063182    1.294630
     11          7           0       -0.952924    0.514449    0.581576
     12          6           0       -1.152580    1.604137   -0.237908
     13          8           0       -2.114576    2.348706   -0.189259
     14          8           0       -0.117494    1.798064   -1.091521
     15          1           0        3.435448   -0.188216    1.857913
     16          1           0        3.552325    1.660076    2.068518
     17          1           0        1.890181    1.920387    0.183101
     18          1           0        0.022198   -1.186133    1.179061
     19          1           0       -0.303403   -2.453019   -0.978392
     20          1           0       -1.070753   -1.015281   -1.670107
     21          1           0       -2.002625   -2.668301    0.568232
     22          1           0       -3.340029   -0.278699   -0.470496
     23          1           0       -3.833367   -1.283769    0.896459
     24          1           0       -1.845016   -0.454485    2.205627
     25          1           0       -2.744211    0.944637    1.572707
     26          1           0       -0.356566    2.572105   -1.630079
 ---------------------------------------------------------------------

 SCF Done:  E(UB3LYP) =  -1082.74955640     A.U. after   33 cycles
 SCF Done:  E(UB3LYP) =  -1082.74955640     a.u. after    1 cycles

 The electronic state is 2-A.
 Alpha  occ. eigenvalues --  -88.91651 -19.07814 -19.01122 -18.98581 -18.98551
 Alpha  occ. eigenvalues --  -14.25847 -14.20920 -10.23315 -10.13439 -10.10887
 Alpha  occ. eigenvalues --  -10.10509 -10.10251 -10.05836 -10.04401  -7.98045
 Alpha  occ. eigenvalues --   -5.94331  -5.94226  -5.94129  -1.02638  -0.97856
 Alpha  occ. eigenvalues --   -0.92972  -0.87507  -0.86985  -0.80674  -0.68802
 Alpha  occ. eigenvalues --   -0.66490  -0.63336  -0.57678  -0.54510  -0.53159
 Alpha  occ. eigenvalues --   -0.49329  -0.46587  -0.42564  -0.40531  -0.39041
 Alpha  occ. eigenvalues --   -0.38815  -0.37928  -0.36542  -0.36031  -0.34975
 Alpha  occ. eigenvalues --   -0.34226  -0.33208  -0.32529  -0.31640  -0.30928
 Alpha  occ. eigenvalues --   -0.27488  -0.27479  -0.26616  -0.26158  -0.23601
 Alpha  occ. eigenvalues --   -0.20872  -0.20148  -0.19894  -0.18641  -0.18240
 Alpha  occ. eigenvalues --   -0.17345  -0.16405  -0.12389   0.04581
 Alpha virt. eigenvalues --    0.06322   0.07474   0.08694   0.09004   0.09759
 Alpha virt. eigenvalues --    0.10653   0.11479   0.11949   0.12300   0.12488
 Alpha virt. eigenvalues --    0.13091   0.14245   0.14670   0.15247   0.15952

  Beta  occ. eigenvalues --  -88.91642 -19.07812 -19.01121 -18.98537 -18.98526
  Beta  occ. eigenvalues --  -14.25839 -14.20897 -10.23312 -10.13411 -10.10864
  Beta  occ. eigenvalues --  -10.10494 -10.10236 -10.05642 -10.04059  -7.98033
  Beta  occ. eigenvalues --   -5.94326  -5.94190  -5.94123  -1.02633  -0.97723
  Beta  occ. eigenvalues --   -0.92968  -0.87406  -0.86958  -0.80634  -0.68690
  Beta  occ. eigenvalues --   -0.65946  -0.63273  -0.57501  -0.54471  -0.52845
  Beta  occ. eigenvalues --   -0.49255  -0.46260  -0.42331  -0.40462  -0.38948
  Beta  occ. eigenvalues --   -0.38765  -0.37813  -0.36467  -0.35961  -0.34925
  Beta  occ. eigenvalues --   -0.34100  -0.33143  -0.32434  -0.31600  -0.30769
  Beta  occ. eigenvalues --   -0.27430  -0.27411  -0.26417  -0.26115  -0.23583
  Beta  occ. eigenvalues --   -0.20780  -0.20123  -0.19799  -0.18536  -0.17836
  Beta  occ. eigenvalues --   -0.17192  -0.15014  -0.12339
  Beta virt. eigenvalues --    0.07216   0.07663   0.08774   0.09373   0.09787
  Beta virt. eigenvalues --    0.09994   0.10981   0.11567   0.12003   0.12410
  Beta virt. eigenvalues --    0.12641   0.13139   0.14435   0.14623   0.15532

 Mulliken charges and spin densities:
               1          2
     1  C   -0.572984   0.414213
     2  C   -0.527789   0.311684
     3  S    1.677538  -1.106987
     4  O   -0.223177   0.004506
     5  O   -0.151078  -0.002437
     6  C   -1.681349   0.792695
     7  C    0.469580  -1.048637
     8  N   -0.202329   0.125066
     9  C    0.035338  -0.418603
    10  C    0.370839  -0.484226
    11  N    0.110837   0.080887
    12  C    0.124653  -0.012481
    13  O   -0.342827   0.000599
    14  O   -0.275812   0.005718
    15  H    0.107250   0.041584
    16  H    0.010400   0.078972
    17  H    0.168456   0.086650
    18  H   -0.159345   0.474402
    19  H    0.235497  -0.007369
    20  H    0.121983   0.070832
    21  H    0.017058   0.226198
    22  H    0.260290  -0.100717
    23  H   -0.530027   0.729166
    24  H   -0.377824   0.543782
    25  H    0.046406   0.169187
    26  H    0.288415   0.025317
 Sum of Mulliken charges =  -1.00000   1.00000

 Dipole moment (field-independent basis, Debye):
    X=             -1.1264    Y=              3.3952    Z=             -3.5455  Tot=              5.0365
 Quadrupole moment (field-independent basis, Debye-Ang):
   XX=           -144.3692   YY=           -118.0151   ZZ=           -122.9059
   XY=              0.0731   XZ=              8.2979   YZ=              0.8620

 Summary of Natural Population Analysis:

                                       Natural Population
                Natural  -----------------------------------------------
    Atom  No    Charge         Core      Valence    Rydberg      Total
 -----------------------------------------------------------------------
      C    1   -0.09708      0.99955     2.08838    0.00915     3.09708
      C    2   -0.20842      0.99946     2.19456    0.01441     3.20842
      S    3    1.03309      4.99917     1.87373    0.09402     6.96691
      O    4   -0.46651      0.99991     3.46122    0.00538     4.46651
      O    5   -0.47919      0.99991     3.47351    0.00577     4.47919
      C    6   -0.10634      0.99950     2.08718    0.01966     3.10634
      C    7   -0.10324      0.99959     2.09079    0.01286     3.10324
      N    8   -0.33381      0.99976     2.82128    0.01276     3.83381
      C    9   -0.09785      0.99962     2.08660    0.01163     3.09785
      C   10   -0.09560      0.99961     2.08384    0.01215     3.09560
      N   11   -0.26721      0.99963     2.75577    0.01180     3.76721
      C   12    0.45999      0.99970     1.51421    0.02610     2.54001
      O   13   -0.33648      0.99987     3.33129    0.00532     4.33648
      O   14   -0.34362      0.99987     3.33680    0.00695     4.34362
      H   15    0.10095      0.00000     0.39785    0.00120     0.39905
      H   16    0.08910      0.00000     0.40996    0.00094     0.41090
      H   17    0.10654      0.00000     0.39221    0.00125     0.39346
      H   18    0.11468      0.00000     0.38291    0.00241     0.38532
      H   19    0.10792      0.00000     0.39098    0.00109     0.39208
      H   20    0.09851      0.00000     0.40029    0.00119     0.40149
      H   21    0.17419      0.00000     0.32316    0.00265     0.32581
      H   22    0.09265      0.00000     0.40618    0.00117     0.40735
      H   23    0.10140      0.00000     0.39720    0.00140     0.39860
      H   24    0.09986      0.00000     0.39772    0.00242     0.40014
      H   25    0.11404      0.00000     0.38488    0.00108     0.38596
      H   26    0.24243      0.00000     0.25469    0.00288     0.25757
 =======================================================================
   * Total *    0.00000     17.99514    39.73722    0.26764    58.00000

 Normal termination of Gaussian 16 at Thu Dec 10 10:15:58 2020.
