 Gaussian 16, Revision A.03,

 -----------------------------------------------------------
 # opt freq B3LYP/6-31G(d) empiricaldispersion=gd3bj scf=xqc
 -----------------------------------------------------------

 -------------------------------
 CID_108355381_JID_8193_neutraal
 -------------------------------
 Symbolic Z-matrix:
 Charge =  0 Multiplicity = 1

 SCF Done:  E(RB3LYP) =  -890.649147125     A.U. after   15 cycles
 SCF Done:  E(RB3LYP) =  -890.656374813     A.U. after   13 cycles
 SCF Done:  E(RB3LYP) =  -890.657558901     A.U. after   15 cycles
 SCF Done:  E(RB3LYP) =  -890.659545697     A.U. after   14 cycles
 SCF Done:  E(RB3LYP) =  -890.661482414     A.U. after   14 cycles
 SCF Done:  E(RB3LYP) =  -890.662152913     A.U. after   14 cycles
 SCF Done:  E(RB3LYP) =  -890.663123832     A.U. after   16 cycles
 SCF Done:  E(RB3LYP) =  -890.662251108     A.U. after   16 cycles
 SCF Done:  E(RB3LYP) =  -890.663318418     A.U. after   14 cycles
 SCF Done:  E(RB3LYP) =  -890.664207612     A.U. after   14 cycles
 SCF Done:  E(RB3LYP) =  -890.665449250     A.U. after   12 cycles
 SCF Done:  E(RB3LYP) =  -890.665450677     A.U. after   10 cycles
 SCF Done:  E(RB3LYP) =  -890.665450974     A.U. after    8 cycles
 SCF Done:  E(RB3LYP) =  -890.665451117     A.U. after    8 cycles
 SCF Done:  E(RB3LYP) =  -890.665451193     A.U. after    7 cycles
 SCF Done:  E(RB3LYP) =  -890.665451207     A.U. after    7 cycles
 Optimization completed.
    -- Stationary point found.
 Normal termination of Gaussian 16 at Fri Dec 11 19:39:10 2020.

 --------------------------------------------------------------------
 #N Geom=AllCheck Guess=TCheck SCRF=Check GenChk RB3LYP/6-31G(d) Freq
 --------------------------------------------------------------------

 Structure from the checkpoint file:  "JID_8193.chk"
 -------------------------------
 CID_108355381_JID_8193_neutraal
 -------------------------------
 Charge =  0 Multiplicity = 1

 SCF Done:  E(RB3LYP) =  -890.665451207     A.U. after    1 cycles

  Exact polarizability: 210.526   6.252 169.911  11.340   2.372  90.191
 Approx polarizability: 311.667  23.910 268.062  22.379   5.082 136.946

                      1                      2                      3
                      A                      A                      A
 Frequencies --     18.4258                35.8251                39.6119
 Red. masses --      4.6189                 4.6832                 4.9260
 Frc consts  --      0.0009                 0.0035                 0.0046
 IR Inten    --      0.1698                 0.2986                 0.2083

                      4                      5                      6
                      A                      A                      A
 Frequencies --     47.1073                68.1309                97.2061
 Red. masses --      7.3294                 4.0526                 4.9277
 Frc consts  --      0.0096                 0.0111                 0.0274
 IR Inten    --      0.0974                 0.4295                 0.6613

                      7                      8                      9
                      A                      A                      A
 Frequencies --    120.0269               152.3035               161.5120
 Red. masses --      2.9795                 2.6525                 5.0336
 Frc consts  --      0.0253                 0.0363                 0.0774
 IR Inten    --      0.1796                 1.2865                 1.0265

                     10                     11                     12
                      A                      A                      A
 Frequencies --    169.7773               184.1281               198.4869
 Red. masses --      1.8874                 2.7511                 3.1181
 Frc consts  --      0.0321                 0.0550                 0.0724
 IR Inten    --      5.6564                 5.1750                 8.1355

                     13                     14                     15
                      A                      A                      A
 Frequencies --    220.3083               239.1987               258.8435
 Red. masses --      2.4721                 1.9873                 3.0925
 Frc consts  --      0.0707                 0.0670                 0.1221
 IR Inten    --      2.8423                 5.4962                 6.0346

                     16                     17                     18
                      A                      A                      A
 Frequencies --    282.4666               320.4965               348.1281
 Red. masses --      4.1485                 2.2071                 2.4176
 Frc consts  --      0.1950                 0.1336                 0.1726
 IR Inten    --     13.7440                 2.9867                 2.9434

                     19                     20                     21
                      A                      A                      A
 Frequencies --    353.4708               402.1761               422.0475
 Red. masses --      5.0522                 1.4450                 2.1740
 Frc consts  --      0.3719                 0.1377                 0.2282
 IR Inten    --      6.3455                73.0168               111.7668

                     22                     23                     24
                      A                      A                      A
 Frequencies --    429.5440               450.8538               498.6997
 Red. masses --      4.3307                 2.8373                 2.5848
 Frc consts  --      0.4708                 0.3398                 0.3788
 IR Inten    --     46.8311               120.4152                15.1434

                     25                     26                     27
                      A                      A                      A
 Frequencies --    507.1235               511.8883               532.1428
 Red. masses --      1.8342                 1.4187                 7.0230
 Frc consts  --      0.2779                 0.2190                 1.1717
 IR Inten    --    161.2365                36.4743                 5.0353

                     28                     29                     30
                      A                      A                      A
 Frequencies --    569.8252               614.7133               670.2547
 Red. masses --      3.2724                 2.9674                 2.7780
 Frc consts  --      0.6260                 0.6607                 0.7353
 IR Inten    --     25.0515                31.9467                 0.3981

                     31                     32                     33
                      A                      A                      A
 Frequencies --    676.6126               725.5963               745.2858
 Red. masses --      3.5503                 3.8684                 2.3991
 Frc consts  --      0.9576                 1.2000                 0.7851
 IR Inten    --     11.6428                24.0002                 3.3125

                     34                     35                     36
                      A                      A                      A
 Frequencies --    746.0644               761.2521               799.0707
 Red. masses --      1.6496                 9.7451                 5.5267
 Frc consts  --      0.5410                 3.3273                 2.0791
 IR Inten    --     10.8792                34.4026                70.1850

                     37                     38                     39
                      A                      A                      A
 Frequencies --    825.0094               833.8347               868.5336
 Red. masses --      1.6370                 1.8258                 1.6390
 Frc consts  --      0.6565                 0.7479                 0.7284
 IR Inten    --      8.7080                 6.8018                29.6151

                     40                     41                     42
                      A                      A                      A
 Frequencies --    890.1738               922.5100               929.3385
 Red. masses --      2.6919                 1.8274                 2.4263
 Frc consts  --      1.2568                 0.9163                 1.2347
 IR Inten    --      1.8595                10.1587                 8.3982

                     43                     44                     45
                      A                      A                      A
 Frequencies --    950.9065               989.6973              1001.0399
 Red. masses --      2.3790                 2.9227                 5.8126
 Frc consts  --      1.2674                 1.6867                 3.4318
 IR Inten    --     18.0956                39.2911                 5.6131

                     46                     47                     48
                      A                      A                      A
 Frequencies --   1028.8858              1055.5046              1082.4675
 Red. masses --      2.0675                 2.2627                 1.8215
 Frc consts  --      1.2895                 1.4852                 1.2575
 IR Inten    --     40.0715                24.2931                56.0760

                     49                     50                     51
                      A                      A                      A
 Frequencies --   1085.0585              1122.1977              1133.3844
 Red. masses --      2.8211                 1.5681                 1.7906
 Frc consts  --      1.9569                 1.1635                 1.3552
 IR Inten    --      9.6501                23.3086                 5.0775

                     52                     53                     54
                      A                      A                      A
 Frequencies --   1144.4547              1181.9169              1209.7782
 Red. masses --      1.8115                 2.1643                 2.0408
 Frc consts  --      1.3979                 1.7814                 1.7598
 IR Inten    --     12.3816                13.3498                14.1118

                     55                     56                     57
                      A                      A                      A
 Frequencies --   1244.1177              1273.5259              1276.5874
 Red. masses --      1.4208                 1.7536                 1.4007
 Frc consts  --      1.2957                 1.6757                 1.3449
 IR Inten    --     11.1676               103.6627                 9.3441

                     58                     59                     60
                      A                      A                      A
 Frequencies --   1308.0918              1327.4546              1349.6756
 Red. masses --      1.3025                 1.2954                 3.1501
 Frc consts  --      1.3131                 1.3449                 3.3809
 IR Inten    --      8.8972                 1.1232                29.4968

                     61                     62                     63
                      A                      A                      A
 Frequencies --   1370.5807              1371.8377              1394.4075
 Red. masses --      1.3602                 1.2226                 1.4855
 Frc consts  --      1.5054                 1.3557                 1.7018
 IR Inten    --     16.0566                 8.5514                15.9536

                     64                     65                     66
                      A                      A                      A
 Frequencies --   1401.7621              1406.3310              1408.4545
 Red. masses --      1.6454                 1.7691                 6.7123
 Frc consts  --      1.9049                 2.0615                 7.8453
 IR Inten    --    129.9240                 3.3375               196.0461

                     67                     68                     69
                      A                      A                      A
 Frequencies --   1418.6197              1432.6558              1444.6224
 Red. masses --      1.6204                 2.0246                 1.3494
 Frc consts  --      1.9213                 2.4484                 1.6592
 IR Inten    --     19.9526                16.8233                19.5525

                     70                     71                     72
                      A                      A                      A
 Frequencies --   1448.4780              1485.5874              1509.7436
 Red. masses --      1.2452                 2.2583                 1.1907
 Frc consts  --      1.5392                 2.9365                 1.5990
 IR Inten    --     13.1933               162.7761                 2.2539

                     73                     74                     75
                      A                      A                      A
 Frequencies --   1515.9126              1523.6203              1526.9561
 Red. masses --      1.1433                 1.5873                 1.2082
 Frc consts  --      1.5480                 2.1710                 1.6597
 IR Inten    --     22.6222               168.5984                71.6723

                     76                     77                     78
                      A                      A                      A
 Frequencies --   1533.8168              1540.1102              1574.9184
 Red. masses --      1.0496                 1.0778                 2.4515
 Frc consts  --      1.4549                 1.5062                 3.5827
 IR Inten    --      8.3542                 9.9283               151.2418

                     79                     80                     81
                      A                      A                      A
 Frequencies --   1638.0899              1643.1629              1682.3024
 Red. masses --     11.5160                 5.3334                 9.5580
 Frc consts  --     18.2065                 8.4843                15.9377
 IR Inten    --    642.0689               236.8336                90.0667

                     82                     83                     84
                      A                      A                      A
 Frequencies --   1746.7841              3029.0067              3034.8244
 Red. masses --      1.0638                 1.0650                 1.0655
 Frc consts  --      1.9124                 5.7568                 5.7819
 IR Inten    --     23.0733                21.1095                33.1502

                     85                     86                     87
                      A                      A                      A
 Frequencies --   3047.7327              3062.0857              3066.0677
 Red. masses --      1.0366                 1.0629                 1.0950
 Frc consts  --      5.6728                 5.8719                 6.0647
 IR Inten    --     15.7880                13.8737                20.2974

                     88                     89                     90
                      A                      A                      A
 Frequencies --   3078.2437              3091.2783              3109.9391
 Red. masses --      1.0875                 1.0947                 1.1058
 Frc consts  --      6.0714                 6.1635                 6.3013
 IR Inten    --     29.4307                88.4678                27.2545

                     91                     92                     93
                      A                      A                      A
 Frequencies --   3113.6110              3118.1653              3260.1882
 Red. masses --      1.1025                 1.1018                 1.0919
 Frc consts  --      6.2976                 6.3118                 6.8375
 IR Inten    --     46.6080                38.9883                 5.4035

                     94                     95                     96
                      A                      A                      A
 Frequencies --   3279.8162              3427.7972              3506.5106
 Red. masses --      1.0917                 1.0492                 1.0921
 Frc consts  --      6.9191                 7.2637                 7.9117
 IR Inten    --     15.7070                 4.0684                 0.3557

                     97                     98                     99
                      A                      A                      A
 Frequencies --   3614.0590              3615.4824              3718.8094
 Red. masses --      1.0776                 1.0761                 1.0656
 Frc consts  --      8.2928                 8.2875                 8.6829
 IR Inten    --     49.0137                30.8977                11.7150

 - Thermochemistry -
 -------------------
 Temperature   298.150 Kelvin.  Pressure   1.00000 Atm.
 Atom     1 has atomic number  6 and mass  12.00000

 Molecular mass:   255.13314 amu.
 Principal axes and moments of inertia in atomic units:
                           1         2         3
     Eigenvalues --  3241.822058109.07784**********
           X            0.99993   0.01164   0.00339
           Y           -0.01165   0.99993   0.00294
           Z           -0.00336  -0.00298   0.99999
 This molecule is an asymmetric top.
 Rotational symmetry number  1.
 Warning -- assumption of classical behavior for rotation
           may cause significant error
 Rotational temperatures (Kelvin)      0.02672     0.01068     0.00796
 Rotational constants (GHZ):           0.55671     0.22256     0.16590
 Zero-point vibrational energy     763248.1 (Joules/Mol)
                                  182.42068 (Kcal/Mol)
 Warning -- explicit consideration of  29 degrees of freedom as
           vibrations may cause significant error
 Vibrational temperatures:     26.51    51.54    56.99    67.78    98.03
          (Kelvin)            139.86   172.69   219.13   232.38   244.27
                              264.92   285.58   316.97   344.15   372.42
                              406.41   461.12   500.88   508.57   578.64
                              607.23   618.02   648.68   717.52   729.64
                              736.49   765.63   819.85   884.44   964.35
                              973.49  1043.97  1072.30  1073.42  1095.27
                             1149.68  1187.00  1199.70  1249.63  1280.76
                             1327.29  1337.11  1368.14  1423.95  1440.27
                             1480.34  1518.64  1557.43  1561.16  1614.59
                             1630.69  1646.62  1700.51  1740.60  1790.01
                             1832.32  1836.72  1882.05  1909.91  1941.88
                             1971.96  1973.77  2006.24  2016.82  2023.40
                             2026.45  2041.08  2061.27  2078.49  2084.04
                             2137.43  2172.18  2181.06  2192.15  2196.95
                             2206.82  2215.88  2265.96  2356.85  2364.14
                             2420.46  2513.23  4358.07  4366.44  4385.01
                             4405.66  4411.39  4428.91  4447.66  4474.51
                             4479.79  4486.34  4690.68  4718.92  4931.84
                             5045.09  5199.82  5201.87  5350.54

 Zero-point correction=                           0.290706 (Hartree/Particle)
 Thermal correction to Energy=                    0.309241
 Thermal correction to Enthalpy=                  0.310186
 Thermal correction to Gibbs Free Energy=         0.241990
 Sum of electronic and zero-point Energies=           -890.374745
 Sum of electronic and thermal Energies=              -890.356210
 Sum of electronic and thermal Enthalpies=            -890.355266
 Sum of electronic and thermal Free Energies=         -890.423462

                     E (Thermal)             CV                S
                      KCal/Mol        Cal/Mol-Kelvin    Cal/Mol-Kelvin
 Total                  194.052             68.448            143.531
 Electronic               0.000              0.000              0.000
 Translational            0.889              2.981             42.510
 Rotational               0.889              2.981             34.013
 Vibrational            192.274             62.486             67.007
 Vibration     1          0.593              1.986              6.797
 Vibration     2          0.594              1.982              5.478
 Vibration     3          0.594              1.981              5.278
 Vibration     4          0.595              1.979              4.935
 Vibration     5          0.598              1.969              4.207
 Vibration     6          0.603              1.951              3.510
 Vibration     7          0.609              1.933              3.100
 Vibration     8          0.619              1.900              2.643
 Vibration     9          0.622              1.890              2.532
 Vibration    10          0.625              1.880              2.438
 Vibration    11          0.631              1.861              2.286
 Vibration    12          0.637              1.842              2.147
 Vibration    13          0.647              1.810              1.957
 Vibration    14          0.657              1.781              1.809
 Vibration    15          0.668              1.748              1.670
 Vibration    16          0.682              1.706              1.519
 Vibration    17          0.706              1.634              1.308
 Vibration    18          0.726              1.579              1.175
 Vibration    19          0.730              1.568              1.151
 Vibration    20          0.768              1.465              0.955
 Vibration    21          0.784              1.422              0.885
 Vibration    22          0.791              1.406              0.860
 Vibration    23          0.810              1.359              0.793
 Vibration    24          0.854              1.253              0.661
 Vibration    25          0.862              1.234              0.641
 Vibration    26          0.867              1.224              0.629
 Vibration    27          0.887              1.179              0.582
 Vibration    28          0.926              1.097              0.505
 Vibration    29          0.974              1.001              0.425

 Optimization completed.
    -- Stationary point found.
 Normal termination of Gaussian 16 at Fri Dec 11 19:52:17 2020.

 ----------------------------------------------------------------------
 # B3LYP/6-311++G(d,p) empiricaldispersion=gd3bj scf=xqc pop=npa geom=c
 heck
 ----------------------------------------------------------------------

 ---------------------------------------
 CID_108355381_JID_8193_Energie_neutraal
 ---------------------------------------
 Structure from the checkpoint file:  "JID_8193.chk"
 Charge =  0 Multiplicity = 1

 SCF Done:  E(RB3LYP) =  -890.938509890     A.U. after   16 cycles
 Normal termination of Gaussian 16 at Fri Dec 11 19:57:51 2020.

 ----------------------------------------------------------------------
 # B3LYP/6-311++G(d,p) empiricaldispersion=gd3bj scf=xqc pop=npa geom=c
 heck
 ----------------------------------------------------------------------

 -------------------------------------
 CID_108355381_JID_8193_Energie_kation
 -------------------------------------
 Structure from the checkpoint file:  "JID_8193.chk"
 Charge =  1 Multiplicity = 2

 SCF Done:  E(UB3LYP) =  -890.652812726     A.U. after   27 cycles
 Normal termination of Gaussian 16 at Fri Dec 11 20:10:52 2020.
 Gaussian 16:  ES64L-G16RevA.03 25-Dec-2016

 ----------------------------------------------------------------------
 # B3LYP/6-311++G(d,p) empiricaldispersion=gd3bj scf=xqc pop=npa geom=c
 heck
 ----------------------------------------------------------------------

 ------------------------------------
 CID_108355381_JID_8193_Energie_anion
 ------------------------------------
 Structure from the checkpoint file:  "JID_8193.chk"
 Charge = -1 Multiplicity = 2

                         Standard orientation:
 ---------------------------------------------------------------------
 Center     Atomic      Atomic             Coordinates (Angstroms)
 Number     Number       Type             X           Y           Z
 ---------------------------------------------------------------------
      1          6           0       -5.710561    0.153560   -0.528572
      2          6           0       -4.643199    0.924467    0.254954
      3          6           0       -3.630749    0.029152    0.984397
      4          6           0       -2.827732   -0.930990    0.099427
      5          6           0       -2.004954   -0.220423   -0.985850
      6          7           0       -1.041281    0.726762   -0.439554
      7          6           0        0.303878    0.484054   -0.292397
      8          7           0        1.063624    1.591557   -0.169464
      9          6           0        2.383883    1.453740   -0.012567
     10          6           0        3.033447    0.201532    0.030774
     11          6           0        2.212466   -0.902562   -0.089227
     12          6           0        0.834437   -0.818206   -0.244604
     13          7           0        2.831956   -2.246264   -0.034796
     14          8           0        2.092600   -3.219109   -0.158868
     15          8           0        4.049022   -2.305194    0.130423
     16          7           0        3.126441    2.612182    0.080037
     17          7           0        2.513299    3.862216    0.304013
     18          8           0       -1.986775   -1.759450    0.900667
     19          1           0       -5.278559   -0.413547   -1.360998
     20          1           0       -6.458691    0.834120   -0.949073
     21          1           0       -6.233029   -0.560021    0.119731
     22          1           0       -4.117825    1.612649   -0.421903
     23          1           0       -5.134646    1.561654    1.000761
     24          1           0       -2.915989    0.663041    1.528092
     25          1           0       -4.149494   -0.577991    1.736312
     26          1           0       -3.504756   -1.629557   -0.404216
     27          1           0       -1.478617   -0.973628   -1.581489
     28          1           0       -2.671114    0.321773   -1.665710
     29          1           0       -1.246824    1.711585   -0.535594
     30          1           0        4.103605    0.098589    0.146105
     31          1           0        0.220445   -1.705494   -0.281127
     32          1           0        4.033492    2.536651    0.518932
     33          1           0        2.154030    4.182545   -0.595298
     34          1           0        1.682829    3.703837    0.879454
     35          1           0       -1.407396   -1.167280    1.408590
 ---------------------------------------------------------------------

 SCF Done:  E(UB3LYP) =  -890.977523833     A.U. after   22 cycles

 The electronic state is 2-A.
 Alpha  occ. eigenvalues --  -19.02545 -18.93733 -18.93727 -14.31422 -14.23181
 Alpha  occ. eigenvalues --  -14.22819 -14.21500 -14.16247 -10.13249 -10.11295
 Alpha  occ. eigenvalues --  -10.11111 -10.11041 -10.10347 -10.09893 -10.08822
 Alpha  occ. eigenvalues --  -10.06079 -10.02105 -10.02102  -1.01877  -0.93084
 Alpha  occ. eigenvalues --   -0.88675  -0.84798  -0.84476  -0.78362  -0.72684
 Alpha  occ. eigenvalues --   -0.69320  -0.67688  -0.65657  -0.61447  -0.58754
 Alpha  occ. eigenvalues --   -0.54959  -0.54510  -0.50927  -0.48814  -0.46233
 Alpha  occ. eigenvalues --   -0.42369  -0.41335  -0.40196  -0.39743  -0.38883
 Alpha  occ. eigenvalues --   -0.37597  -0.37134  -0.35728  -0.35296  -0.34824
 Alpha  occ. eigenvalues --   -0.34206  -0.33323  -0.32190  -0.31372  -0.30801
 Alpha  occ. eigenvalues --   -0.30110  -0.29654  -0.29172  -0.27939  -0.26668
 Alpha  occ. eigenvalues --   -0.26272  -0.24971  -0.23395  -0.21868  -0.18613
 Alpha  occ. eigenvalues --   -0.17824  -0.16149  -0.14637  -0.13091  -0.12833
 Alpha  occ. eigenvalues --   -0.11563  -0.09551  -0.07626   0.02805
 Alpha virt. eigenvalues --    0.04965   0.06817   0.07334   0.07993   0.08715
 Alpha virt. eigenvalues --    0.09952   0.10105   0.10455   0.11013   0.11374
 Alpha virt. eigenvalues --    0.12212   0.12420   0.13162   0.13841   0.14268

  Beta  occ. eigenvalues --  -19.02539 -18.93243 -18.93213 -14.30826 -14.23164
  Beta  occ. eigenvalues --  -14.22818 -14.21500 -14.16030 -10.13249 -10.11293
  Beta  occ. eigenvalues --  -10.11121 -10.11037 -10.10347 -10.09892 -10.08822
  Beta  occ. eigenvalues --  -10.05881 -10.02033 -10.01970  -1.00824  -0.93072
  Beta  occ. eigenvalues --   -0.88620  -0.84400  -0.83848  -0.78190  -0.72679
  Beta  occ. eigenvalues --   -0.69248  -0.67139  -0.65631  -0.61412  -0.58568
  Beta  occ. eigenvalues --   -0.54865  -0.53579  -0.50873  -0.48758  -0.45984
  Beta  occ. eigenvalues --   -0.42338  -0.41320  -0.40083  -0.39671  -0.38611
  Beta  occ. eigenvalues --   -0.37544  -0.36808  -0.35638  -0.35249  -0.34686
  Beta  occ. eigenvalues --   -0.33163  -0.31922  -0.31361  -0.31241  -0.30433
  Beta  occ. eigenvalues --   -0.29704  -0.29597  -0.28851  -0.27642  -0.26654
  Beta  occ. eigenvalues --   -0.26185  -0.24824  -0.23375  -0.21704  -0.18538
  Beta  occ. eigenvalues --   -0.17790  -0.15147  -0.14378  -0.12056  -0.11044
  Beta  occ. eigenvalues --   -0.09675  -0.09051  -0.06813
  Beta virt. eigenvalues --    0.04928   0.06780   0.07295   0.07962   0.08653
  Beta virt. eigenvalues --    0.09689   0.09927   0.10117   0.10515   0.10973
  Beta virt. eigenvalues --    0.11322   0.12189   0.12399   0.13285   0.14009

 Mulliken charges and spin densities:
               1          2
     1  C   -0.574366  -0.019428
     2  C   -0.184319   0.006228
     3  C   -0.256857  -0.003403
     4  C   -0.009685   0.002094
     5  C   -0.439700  -0.028707
     6  N   -0.152794  -0.003711
     7  C   -1.100393   0.011250
     8  N   -0.262045   0.105182
     9  C   -0.832621  -0.042609
    10  C    1.223847   0.226145
    11  C   -0.497600   0.013965
    12  C    0.108008   0.096895
    13  N   -0.260704   0.197673
    14  O   -0.182602   0.201921
    15  O   -0.177238   0.184230
    16  N   -0.128093   0.007653
    17  N   -0.377563  -0.005191
    18  O   -0.196095  -0.000193
    19  H    0.131206   0.006170
    20  H    0.118341   0.006918
    21  H    0.133762   0.003114
    22  H    0.118994   0.003492
    23  H    0.137264   0.002535
    24  H    0.166005   0.001206
    25  H    0.164913   0.001662
    26  H    0.187947   0.002876
    27  H    0.179334   0.026668
    28  H    0.154550  -0.003175
    29  H    0.290267  -0.001994
    30  H    0.246978  -0.007839
    31  H    0.291912  -0.004069
    32  H    0.265948   0.001885
    33  H    0.248950   0.000255
    34  H    0.224163  -0.001293
    35  H    0.240284   0.011600
 Sum of Mulliken charges =  -1.00000   1.00000

 Dipole moment (field-independent basis, Debye):
    X=            -12.4270    Y=              8.5974    Z=             -0.3547  Tot=             15.1153
 Quadrupole moment (field-independent basis, Debye-Ang):
   XX=           -156.7516   YY=           -158.7294   ZZ=           -113.0428
   XY=             17.6248   XZ=              2.6187   YZ=              0.1446

 Summary of Natural Population Analysis:

                                       Natural Population
                Natural  -----------------------------------------------
    Atom  No    Charge         Core      Valence    Rydberg      Total
 -----------------------------------------------------------------------
      C    1   -0.28813      0.99967     2.28405    0.00441     3.28813
      C    2   -0.19138      0.99965     2.18522    0.00652     3.19138
      C    3   -0.20527      0.99961     2.19659    0.00907     3.20527
      C    4    0.06040      0.99955     1.92731    0.01274     2.93960
      C    5   -0.09930      0.99960     2.08966    0.01004     3.09930
      N    6   -0.33179      0.99966     2.81894    0.01320     3.83179
      C    7    0.20168      0.99955     1.78448    0.01429     2.79832
      N    8   -0.28193      0.99963     2.76964    0.01267     3.78193
      C    9    0.19494      0.99955     1.79176    0.01375     2.80506
      C   10   -0.13685      0.99947     2.12820    0.00918     3.13685
      C   11    0.10885      0.99940     1.87606    0.01569     2.89115
      C   12   -0.16645      0.99947     2.15823    0.00875     3.16645
      N   13    0.29868      0.99973     2.17233    0.02927     3.20132
      O   14   -0.18369      0.99990     3.17598    0.00782     4.18369
      O   15   -0.19406      0.99990     3.18641    0.00776     4.19406
      N   16   -0.23155      0.99966     2.71764    0.01425     3.73155
      N   17   -0.32255      0.99978     2.81166    0.01110     3.82255
      O   18   -0.36686      0.99990     3.35950    0.00746     4.36686
      H   19    0.09660      0.00000     0.40238    0.00102     0.40340
      H   20    0.09609      0.00000     0.40307    0.00084     0.40391
      H   21    0.09571      0.00000     0.40334    0.00095     0.40429
      H   22    0.09261      0.00000     0.40621    0.00118     0.40739
      H   23    0.09387      0.00000     0.40496    0.00117     0.40613
      H   24    0.10248      0.00000     0.39620    0.00132     0.39752
      H   25    0.09837      0.00000     0.40043    0.00120     0.40163
      H   26    0.08259      0.00000     0.41585    0.00156     0.41741
      H   27    0.10611      0.00000     0.39242    0.00147     0.39389
      H   28    0.09081      0.00000     0.40817    0.00101     0.40919
      H   29    0.18857      0.00000     0.30962    0.00181     0.31143
      H   30    0.11470      0.00000     0.38404    0.00127     0.38530
      H   31    0.12463      0.00000     0.37384    0.00153     0.37537
      H   32    0.18018      0.00000     0.31759    0.00224     0.31982
      H   33    0.16890      0.00000     0.32923    0.00188     0.33110
      H   34    0.17167      0.00000     0.32605    0.00228     0.32833
      H   35    0.23139      0.00000     0.26539    0.00322     0.26861
 =======================================================================
   * Total *   -0.00000     17.99367    49.77243    0.23390    68.00000

 Normal termination of Gaussian 16 at Fri Dec 11 20:21:13 2020.
