 Gaussian 16, Revision A.03,

 -----------------------------------------------------------
 # opt freq B3LYP/6-31G(d) empiricaldispersion=gd3bj scf=xqc
 -----------------------------------------------------------

 ------------------------------
 CID_149841249_JID_740_neutraal
 ------------------------------
 Symbolic Z-matrix:
 Charge =  0 Multiplicity = 1

 SCF Done:  E(RB3LYP) =  -922.514818407     A.U. after   16 cycles
 SCF Done:  E(RB3LYP) =  -922.522394144     A.U. after   15 cycles
 SCF Done:  E(RB3LYP) =  -922.526149323     A.U. after   17 cycles
 SCF Done:  E(RB3LYP) =  -922.527878902     A.U. after   15 cycles
 SCF Done:  E(RB3LYP) =  -922.529115061     A.U. after   15 cycles
 SCF Done:  E(RB3LYP) =  -922.529421404     A.U. after   14 cycles
 SCF Done:  E(RB3LYP) =  -922.529495982     A.U. after   14 cycles
 SCF Done:  E(RB3LYP) =  -922.529562529     A.U. after   14 cycles
 SCF Done:  E(RB3LYP) =  -922.529620975     A.U. after   13 cycles
 SCF Done:  E(RB3LYP) =  -922.529717383     A.U. after   14 cycles
 SCF Done:  E(RB3LYP) =  -922.529767164     A.U. after   13 cycles
 SCF Done:  E(RB3LYP) =  -922.529770697     A.U. after   11 cycles
 SCF Done:  E(RB3LYP) =  -922.529780552     A.U. after   13 cycles
 SCF Done:  E(RB3LYP) =  -922.529781932     A.U. after    9 cycles
 SCF Done:  E(RB3LYP) =  -922.529782443     A.U. after   11 cycles
 SCF Done:  E(RB3LYP) =  -922.529782466     A.U. after    9 cycles
 Optimization completed.
    -- Stationary point found.
 Normal termination of Gaussian 16 at Tue Dec  8 12:44:04 2020.

 --------------------------------------------------------------------
 #N Geom=AllCheck Guess=TCheck SCRF=Check GenChk RB3LYP/6-31G(d) Freq
 --------------------------------------------------------------------

 Structure from the checkpoint file:  "JID_740.chk"
 ------------------------------
 CID_149841249_JID_740_neutraal
 ------------------------------
 Charge =  0 Multiplicity = 1

 SCF Done:  E(RB3LYP) =  -922.529782466     A.U. after    1 cycles

  Exact polarizability:  85.839  12.839  78.799  -4.569  -6.337  58.023
 Approx polarizability: 127.408  35.634 147.666 -19.292 -18.361  98.030

                      1                      2                      3
                      A                      A                      A
 Frequencies --     26.9698                45.7180                73.8453
 Red. masses --      8.3666                10.3832                 4.4219
 Frc consts  --      0.0036                 0.0128                 0.0142
 IR Inten    --      1.4483                 0.5935                 3.2043

                      4                      5                      6
                      A                      A                      A
 Frequencies --    173.4951               192.0280               222.2035
 Red. masses --      3.9669                 6.3885                11.1154
 Frc consts  --      0.0704                 0.1388                 0.3234
 IR Inten    --      6.3919                 2.8291                 0.3221

                      7                      8                      9
                      A                      A                      A
 Frequencies --    238.1218               283.6082               344.7349
 Red. masses --      4.5136                 6.0864                 3.1815
 Frc consts  --      0.1508                 0.2884                 0.2228
 IR Inten    --      2.2682                 2.5231                 7.6046

                     10                     11                     12
                      A                      A                      A
 Frequencies --    379.2125               446.8831               484.8418
 Red. masses --      7.8358                 3.7899                 6.6742
 Frc consts  --      0.6639                 0.4459                 0.9244
 IR Inten    --      4.3658                27.6370                29.5357

                     13                     14                     15
                      A                      A                      A
 Frequencies --    516.2569               536.9608               555.7768
 Red. masses --      2.6485                 1.2689                 8.7185
 Frc consts  --      0.4159                 0.2156                 1.5867
 IR Inten    --     19.2204                93.8489                35.1669

                     16                     17                     18
                      A                      A                      A
 Frequencies --    589.1372               673.4608               737.5686
 Red. masses --      5.2639                 3.3772                 8.2555
 Frc consts  --      1.0764                 0.9025                 2.6460
 IR Inten    --    108.8817                48.4278                44.6958

                     19                     20                     21
                      A                      A                      A
 Frequencies --    865.8286               922.3488               934.0326
 Red. masses --      2.2084                 1.9014                 4.7801
 Frc consts  --      0.9754                 0.9531                 2.4570
 IR Inten    --      8.7363                51.7613                 1.9924

                     22                     23                     24
                      A                      A                      A
 Frequencies --    947.0712              1055.3225              1091.9711
 Red. masses --      2.0281                 1.8155                 4.4495
 Frc consts  --      1.0718                 1.1913                 3.1259
 IR Inten    --     28.6463                 7.1777                60.7322

                     25                     26                     27
                      A                      A                      A
 Frequencies --   1125.2965              1200.6564              1213.5087
 Red. masses --      6.4893                 1.9039                 2.0691
 Frc consts  --      4.8416                 1.6171                 1.7952
 IR Inten    --    255.7677                23.1860                 4.4902

                     28                     29                     30
                      A                      A                      A
 Frequencies --   1227.4957              1325.6166              1345.8980
 Red. masses --      1.3270                 2.0464                 2.5205
 Frc consts  --      1.1780                 2.1187                 2.6901
 IR Inten    --     56.2413                53.1199               113.3173

                     31                     32                     33
                      A                      A                      A
 Frequencies --   1418.0525              1430.9457              1457.5158
 Red. masses --      1.2451                 1.2444                 1.1462
 Frc consts  --      1.4752                 1.5012                 1.4346
 IR Inten    --      2.4538                53.8809                35.3670

                     34                     35                     36
                      A                      A                      A
 Frequencies --   1473.0580              1533.1148              2232.2540
 Red. masses --      1.1429                 1.0863                13.9573
 Frc consts  --      1.4612                 1.5044                40.9769
 IR Inten    --     48.2059                 2.0152               362.7976

                     37                     38                     39
                      A                      A                      A
 Frequencies --   3027.4014              3089.2535              3107.0247
 Red. masses --      1.0684                 1.0616                 1.0943
 Frc consts  --      5.7693                 5.9690                 6.2242
 IR Inten    --     36.1812                 3.8411                20.0570

                     40                     41                     42
                      A                      A                      A
 Frequencies --   3152.2596              3490.8264              3686.0943
 Red. masses --      1.1064                 1.0755                 1.0655
 Frc consts  --      6.4776                 7.7217                 8.5300
 IR Inten    --      1.2874                40.4858                68.7010

 - Thermochemistry -
 -------------------
 Temperature   298.150 Kelvin.  Pressure   1.00000 Atm.
 Atom     1 has atomic number  6 and mass  12.00000

 Molecular mass:   166.01606 amu.
 Principal axes and moments of inertia in atomic units:
                           1         2         3
     Eigenvalues --  1054.281452123.576732680.40470
           X            0.99961  -0.02761   0.00398
           Y            0.02769   0.99937  -0.02231
           Z           -0.00337   0.02241   0.99974
 This molecule is an asymmetric top.
 Rotational symmetry number  1.
 Warning -- assumption of classical behavior for rotation
           may cause significant error
 Rotational temperatures (Kelvin)      0.08215     0.04079     0.03231
 Rotational constants (GHZ):           1.71182     0.84986     0.67331
 Zero-point vibrational energy     292329.5 (Joules/Mol)
                                   69.86842 (Kcal/Mol)
 Warning -- explicit consideration of  16 degrees of freedom as
           vibrations may cause significant error
 Vibrational temperatures:     38.80    65.78   106.25   249.62   276.29
          (Kelvin)            319.70   342.60   408.05   496.00   545.60
                              642.97   697.58   742.78   772.57   799.64
                              847.64   968.96  1061.20  1245.73  1327.05
                             1343.86  1362.62  1518.37  1571.10  1619.05
                             1727.48  1745.97  1766.09  1907.27  1936.45
                             2040.26  2058.81  2097.04  2119.40  2205.81
                             3211.72  4355.76  4444.75  4470.32  4535.40
                             5022.52  5303.47

 Zero-point correction=                           0.111342 (Hartree/Particle)
 Thermal correction to Energy=                    0.121899
 Thermal correction to Enthalpy=                  0.122843
 Thermal correction to Gibbs Free Energy=         0.073502
 Sum of electronic and zero-point Energies=           -922.418440
 Sum of electronic and thermal Energies=              -922.407884
 Sum of electronic and thermal Enthalpies=            -922.406939
 Sum of electronic and thermal Free Energies=         -922.456281

                     E (Thermal)             CV                S
                      KCal/Mol        Cal/Mol-Kelvin    Cal/Mol-Kelvin
 Total                   76.493             36.933            103.847
 Electronic               0.000              0.000              0.000
 Translational            0.889              2.981             41.229
 Rotational               0.889              2.981             30.174
 Vibrational             74.715             30.972             32.444
 Vibration     1          0.593              1.984              6.041
 Vibration     2          0.595              1.979              4.995
 Vibration     3          0.599              1.966              4.048
 Vibration     4          0.627              1.875              2.397
 Vibration     5          0.634              1.851              2.208
 Vibration     6          0.648              1.807              1.941
 Vibration     7          0.656              1.782              1.817
 Vibration     8          0.682              1.704              1.512
 Vibration     9          0.723              1.586              1.190
 Vibration    10          0.749              1.514              1.042
 Vibration    11          0.806              1.368              0.805
 Vibration    12          0.841              1.284              0.697
 Vibration    13          0.871              1.214              0.619
 Vibration    14          0.892              1.168              0.572
 Vibration    15          0.911              1.127              0.532
 Vibration    16          0.946              1.055              0.469

 Optimization completed.
    -- Stationary point found.
 Normal termination of Gaussian 16 at Tue Dec  8 13:04:03 2020.

 ----------------------------------------------------------------------
 # B3LYP/6-311++G(d,p) empiricaldispersion=gd3bj scf=xqc pop=npa geom=c
 heck
 ----------------------------------------------------------------------

 --------------------------------------
 CID_149841249_JID_740_Energie_neutraal
 --------------------------------------
 Structure from the checkpoint file:  "JID_740.chk"
 Charge =  0 Multiplicity = 1

 SCF Done:  E(RB3LYP) =  -922.725041478     A.U. after   16 cycles
 Normal termination of Gaussian 16 at Tue Dec  8 13:08:53 2020.

 ----------------------------------------------------------------------
 # B3LYP/6-311++G(d,p) empiricaldispersion=gd3bj scf=xqc pop=npa geom=c
 heck
 ----------------------------------------------------------------------

 ------------------------------------
 CID_149841249_JID_740_Energie_kation
 ------------------------------------
 Structure from the checkpoint file:  "JID_740.chk"
 Charge =  1 Multiplicity = 2

 SCF Done:  E(UB3LYP) =  -922.356665230     A.U. after   28 cycles
 Normal termination of Gaussian 16 at Tue Dec  8 13:17:05 2020.
 Gaussian 16:  ES64L-G16RevA.03 25-Dec-2016

 ----------------------------------------------------------------------
 # B3LYP/6-311++G(d,p) empiricaldispersion=gd3bj scf=xqc pop=npa geom=c
 heck
 ----------------------------------------------------------------------

 -----------------------------------
 CID_149841249_JID_740_Energie_anion
 -----------------------------------
 Structure from the checkpoint file:  "JID_740.chk"
 Charge = -1 Multiplicity = 2

                         Standard orientation:
 ---------------------------------------------------------------------
 Center     Atomic      Atomic             Coordinates (Angstroms)
 Number     Number       Type             X           Y           Z
 ---------------------------------------------------------------------
      1          6           0       -1.506884    1.672003   -0.011032
      2          6           0       -0.791887    0.692424   -0.951024
      3         16           0       -0.430267   -0.885025   -0.143663
      4          8           0       -1.537718   -1.232218    0.762981
      5          8           0        0.074473   -1.829838   -1.134348
      6          7           0        0.815733   -0.384882    0.980789
      7          7           0        2.143929   -0.509888    0.445058
      8          7           0        2.587988    0.619801    0.121314
      9          7           0        3.132103    1.547806   -0.247948
     10          8           0       -2.826952    1.277786    0.275541
     11          1           0       -1.569300    2.636879   -0.524082
     12          1           0       -0.900796    1.814935    0.895880
     13          1           0       -1.428730    0.431767   -1.801375
     14          1           0        0.162757    1.074643   -1.326369
     15          1           0        0.750423   -1.042670    1.760264
     16          1           0       -2.774145    0.422591    0.738744
 ---------------------------------------------------------------------

 SCF Done:  E(UB3LYP) =  -922.742296757     A.U. after   25 cycles

 The electronic state is 2-A.
 Alpha  occ. eigenvalues --  -88.93526 -19.01994 -19.00563 -19.00390 -14.25708
 Alpha  occ. eigenvalues --  -14.22612 -14.20736 -14.17753 -10.12773 -10.10437
 Alpha  occ. eigenvalues --   -7.99937  -5.96195  -5.96136  -5.96011  -1.00292
 Alpha  occ. eigenvalues --   -0.95370  -0.92754  -0.89646  -0.83979  -0.72043
 Alpha  occ. eigenvalues --   -0.68226  -0.56843  -0.50319  -0.42960  -0.42235
 Alpha  occ. eigenvalues --   -0.40170  -0.37857  -0.36201  -0.34512  -0.33234
 Alpha  occ. eigenvalues --   -0.32386  -0.31512  -0.30243  -0.27337  -0.25656
 Alpha  occ. eigenvalues --   -0.24975  -0.21758  -0.21237  -0.20076  -0.18728
 Alpha  occ. eigenvalues --   -0.18036  -0.13178  -0.08856   0.05291
 Alpha virt. eigenvalues --    0.08603   0.10301   0.10769   0.11466   0.13221
 Alpha virt. eigenvalues --    0.14043   0.15275   0.15891   0.16145   0.17199
 Alpha virt. eigenvalues --    0.18187   0.18443   0.18980   0.19147   0.19967

  Beta  occ. eigenvalues --  -88.93515 -19.01988 -19.00519 -19.00378 -14.25107
  Beta  occ. eigenvalues --  -14.22298 -14.20782 -14.16840 -10.12768 -10.10415
  Beta  occ. eigenvalues --   -7.99925  -5.96188  -5.96119  -5.96001  -1.00212
  Beta  occ. eigenvalues --   -0.94192  -0.92741  -0.89582  -0.83284  -0.71476
  Beta  occ. eigenvalues --   -0.68047  -0.56760  -0.50070  -0.42678  -0.41915
  Beta  occ. eigenvalues --   -0.40030  -0.37805  -0.36122  -0.33813  -0.32404
  Beta  occ. eigenvalues --   -0.31766  -0.30980  -0.30083  -0.25448  -0.25167
  Beta  occ. eigenvalues --   -0.24278  -0.21459  -0.20826  -0.20002  -0.18240
  Beta  occ. eigenvalues --   -0.17805  -0.12283  -0.08557
  Beta virt. eigenvalues --    0.08450   0.10218   0.10558   0.11561   0.13193
  Beta virt. eigenvalues --    0.13957   0.15028   0.15333   0.15989   0.16443
  Beta virt. eigenvalues --    0.17305   0.18201   0.18569   0.19127   0.19164

 Mulliken charges and spin densities:
               1          2
     1  C   -0.270884  -0.088047
     2  C   -0.474815  -0.127493
     3  S    0.461570  -0.078600
     4  O   -0.370851  -0.005165
     5  O   -0.140577   0.014077
     6  N   -0.086113  -0.127590
     7  N   -0.736411   0.268756
     8  N    0.398750   0.022112
     9  N   -0.224102   0.456517
    10  O   -0.241673   0.009432
    11  H    0.140441   0.009854
    12  H    0.120422   0.066117
    13  H    0.130318   0.103016
    14  H    0.220743   0.006084
    15  H   -0.127041   0.431197
    16  H    0.200223   0.039731
 Sum of Mulliken charges =  -1.00000   1.00000

 Dipole moment (field-independent basis, Debye):
    X=             -5.0657    Y=              1.3605    Z=             -1.0365  Tot=              5.3466
 Quadrupole moment (field-independent basis, Debye-Ang):
   XX=           -111.6577   YY=            -87.6065   ZZ=            -76.3748
   XY=             -5.3406   XZ=              2.6697   YZ=             -1.4425

 Summary of Natural Population Analysis:

                                       Natural Population
                Natural  -----------------------------------------------
    Atom  No    Charge         Core      Valence    Rydberg      Total
 -----------------------------------------------------------------------
      C    1   -0.02103      0.99961     2.00805    0.01337     3.02103
      C    2   -0.30507      0.99958     2.29459    0.01089     3.30507
      S    3    1.07071      4.99934     1.83270    0.09724     6.92929
      O    4   -0.48413      0.99990     3.47766    0.00657     4.48413
      O    5   -0.45195      0.99990     3.44634    0.00571     4.45195
      N    6   -0.32470      0.99978     2.80904    0.01588     3.82470
      N    7   -0.17333      0.99973     2.65404    0.01955     3.67333
      N    8    0.14790      0.99970     2.33543    0.01696     3.35210
      N    9    0.07172      0.99981     2.41464    0.01383     3.42828
      O   10   -0.37890      0.99990     3.37150    0.00751     4.37890
      H   11    0.08675      0.00000     0.41184    0.00141     0.41325
      H   12    0.09217      0.00000     0.40629    0.00153     0.40783
      H   13    0.11269      0.00000     0.38548    0.00183     0.38731
      H   14    0.12520      0.00000     0.37364    0.00116     0.37480
      H   15    0.18931      0.00000     0.30492    0.00578     0.31069
      H   16    0.24265      0.00000     0.25405    0.00330     0.25735
 =======================================================================
   * Total *   -0.00000     13.99725    28.78022    0.22252    43.00000

 Normal termination of Gaussian 16 at Tue Dec  8 13:23:56 2020.
