 Gaussian 16, Revision A.03,

 -----------------------------------------------------------
 # opt freq B3LYP/6-31G(d) empiricaldispersion=gd3bj scf=xqc
 -----------------------------------------------------------

 -------------------------------
 CID_146427165_JID_7125_neutraal
 -------------------------------
 Symbolic Z-matrix:
 Charge =  0 Multiplicity = 1

 SCF Done:  E(RB3LYP) =  -1113.91817624     A.U. after   14 cycles
 SCF Done:  E(RB3LYP) =  -1113.92407549     A.U. after   13 cycles
 SCF Done:  E(RB3LYP) =  -1113.90935259     A.U. after   14 cycles
 SCF Done:  E(RB3LYP) =  -1113.91373279     A.U. after   14 cycles
 SCF Done:  E(RB3LYP) =  -1113.92527076     A.U. after   11 cycles
 SCF Done:  E(RB3LYP) =  -1113.92631090     A.U. after   13 cycles
 SCF Done:  E(RB3LYP) =  -1113.92810250     A.U. after   13 cycles
 SCF Done:  E(RB3LYP) =  -1113.93043376     A.U. after   12 cycles
 SCF Done:  E(RB3LYP) =  -1113.91267854     A.U. after   14 cycles
 SCF Done:  E(RB3LYP) =  -1113.92521698     A.U. after   14 cycles
 SCF Done:  E(RB3LYP) =  -1113.93507642     A.U. after    7 cycles
 SCF Done:  E(RB3LYP) =  -1113.93507683     A.U. after    8 cycles
 SCF Done:  E(RB3LYP) =  -1113.93507715     A.U. after    7 cycles
 SCF Done:  E(RB3LYP) =  -1113.93507738     A.U. after    7 cycles
 SCF Done:  E(RB3LYP) =  -1113.93507750     A.U. after    7 cycles
 Optimization completed.
    -- Stationary point found.
 Normal termination of Gaussian 16 at Fri Dec 11 12:22:16 2020.

 --------------------------------------------------------------------
 #N Geom=AllCheck Guess=TCheck SCRF=Check GenChk RB3LYP/6-31G(d) Freq
 --------------------------------------------------------------------

 Structure from the checkpoint file:  "JID_7125.chk"
 -------------------------------
 CID_146427165_JID_7125_neutraal
 -------------------------------
 Charge =  0 Multiplicity = 1

 SCF Done:  E(RB3LYP) =  -1113.93507750     A.U. after    1 cycles

  Exact polarizability: 180.561   1.575 167.175   1.128   7.319 137.001
 Approx polarizability: 235.913   6.105 229.259   0.364  17.563 223.216

                      1                      2                      3
                      A                      A                      A
 Frequencies --     25.7506                34.1500                42.6389
 Red. masses --      6.2013                 4.9417                 4.5894
 Frc consts  --      0.0024                 0.0034                 0.0049
 IR Inten    --      2.4558                 1.1089                 1.2684

                      4                      5                      6
                      A                      A                      A
 Frequencies --     62.2299                66.1287                74.0012
 Red. masses --      4.2514                 3.7927                 4.6922
 Frc consts  --      0.0097                 0.0098                 0.0151
 IR Inten    --      0.3954                 1.7272                 3.9341

                      7                      8                      9
                      A                      A                      A
 Frequencies --     95.6850               106.5372               111.2033
 Red. masses --      3.6361                 6.4699                 2.8475
 Frc consts  --      0.0196                 0.0433                 0.0207
 IR Inten    --      1.4663                 4.1977                 1.3330

                     10                     11                     12
                      A                      A                      A
 Frequencies --    117.1843               147.5466               174.8404
 Red. masses --      4.0907                 3.7068                 3.5468
 Frc consts  --      0.0331                 0.0475                 0.0639
 IR Inten    --     11.3754                 8.3615                 1.9661

                     13                     14                     15
                      A                      A                      A
 Frequencies --    206.3931               219.1571               237.3725
 Red. masses --      2.7723                 2.1535                 1.4766
 Frc consts  --      0.0696                 0.0609                 0.0490
 IR Inten    --      0.5655                21.9417                65.6276

                     16                     17                     18
                      A                      A                      A
 Frequencies --    253.3149               291.4111               299.6926
 Red. masses --      3.7944                 1.7379                 2.5174
 Frc consts  --      0.1435                 0.0870                 0.1332
 IR Inten    --      8.2980                43.6551                13.1550

                     19                     20                     21
                      A                      A                      A
 Frequencies --    306.0584               326.5783               352.4436
 Red. masses --      1.8490                 2.3455                 1.1789
 Frc consts  --      0.1020                 0.1474                 0.0863
 IR Inten    --      0.5452                 1.9823                66.6761

                     22                     23                     24
                      A                      A                      A
 Frequencies --    365.4941               384.9813               424.2860
 Red. masses --      2.2748                 2.0078                 2.4889
 Frc consts  --      0.1790                 0.1753                 0.2640
 IR Inten    --     12.4787                 0.3599                 0.8988

                     25                     26                     27
                      A                      A                      A
 Frequencies --    443.9893               494.1853               521.6645
 Red. masses --      2.3146                 2.1029                 2.3391
 Frc consts  --      0.2688                 0.3026                 0.3750
 IR Inten    --      2.5565                 2.8093                 0.4463

                     28                     29                     30
                      A                      A                      A
 Frequencies --    541.7166               555.4369               620.0668
 Red. masses --      2.1810                 3.2157                 2.6296
 Frc consts  --      0.3771                 0.5845                 0.5957
 IR Inten    --      4.8608                10.2222                14.0495

                     31                     32                     33
                      A                      A                      A
 Frequencies --    638.3070               640.1889               720.9712
 Red. masses --      4.1430                 2.8788                 1.6291
 Frc consts  --      0.9946                 0.6952                 0.4989
 IR Inten    --      4.2811                 0.2116                 9.6195

                     34                     35                     36
                      A                      A                      A
 Frequencies --    721.2350               728.8024               757.3376
 Red. masses --      1.2708                 1.2224                 1.3199
 Frc consts  --      0.3895                 0.3825                 0.4460
 IR Inten    --      8.6719                31.5859                 2.8667

                     37                     38                     39
                      A                      A                      A
 Frequencies --    769.3777               800.9872               807.8722
 Red. masses --      2.4514                 2.2740                 2.7081
 Frc consts  --      0.8550                 0.8596                 1.0414
 IR Inten    --      0.9483                 4.5248                 9.7855

                     40                     41                     42
                      A                      A                      A
 Frequencies --    829.9530               870.9554               875.0309
 Red. masses --      1.6037                 2.2103                 2.0079
 Frc consts  --      0.6509                 0.9879                 0.9058
 IR Inten    --      3.7340                 3.6502                 0.1116

                     43                     44                     45
                      A                      A                      A
 Frequencies --    896.1614               933.4788               955.7346
 Red. masses --      1.9346                 2.0046                 1.6686
 Frc consts  --      0.9154                 1.0292                 0.8980
 IR Inten    --      5.4043                15.6003                 3.3961

                     46                     47                     48
                      A                      A                      A
 Frequencies --    975.7678               983.0148               997.1090
 Red. masses --      1.7465                 1.8794                 1.6312
 Frc consts  --      0.9797                 1.0700                 0.9555
 IR Inten    --      1.4376                 6.4680                 1.9258

                     49                     50                     51
                      A                      A                      A
 Frequencies --   1026.2259              1041.4026              1061.1004
 Red. masses --      1.8626                 1.8455                 1.9111
 Frc consts  --      1.1557                 1.1792                 1.2678
 IR Inten    --      1.6128                 0.0088                 0.9477

                     52                     53                     54
                      A                      A                      A
 Frequencies --   1070.2357              1098.7197              1110.6095
 Red. masses --      2.2903                 1.8845                 2.2494
 Frc consts  --      1.5456                 1.3404                 1.6347
 IR Inten    --      2.0801                 2.1979                 1.0089

                     55                     56                     57
                      A                      A                      A
 Frequencies --   1116.0168              1124.0124              1132.5736
 Red. masses --      1.8169                 2.0589                 2.2217
 Frc consts  --      1.3333                 1.5326                 1.6791
 IR Inten    --      1.0253                 1.3972                 1.0921

                     58                     59                     60
                      A                      A                      A
 Frequencies --   1165.3255              1166.8094              1200.9728
 Red. masses --      2.0049                 1.2927                 1.2744
 Frc consts  --      1.6041                 1.0369                 1.0830
 IR Inten    --     36.9753                 3.0748                 4.3469

                     61                     62                     63
                      A                      A                      A
 Frequencies --   1203.4927              1234.8116              1241.3858
 Red. masses --      1.2021                 1.2561                 1.3549
 Frc consts  --      1.0259                 1.1284                 1.2302
 IR Inten    --      7.5282                11.1210                 0.8478

                     64                     65                     66
                      A                      A                      A
 Frequencies --   1265.8388              1282.6926              1293.0383
 Red. masses --      1.2867                 1.3290                 1.2600
 Frc consts  --      1.2147                 1.2883                 1.2412
 IR Inten    --      5.9305                14.4526                 1.4004

                     67                     68                     69
                      A                      A                      A
 Frequencies --   1311.6324              1329.4902              1336.7544
 Red. masses --      1.2252                 1.6747                 1.1989
 Frc consts  --      1.2419                 1.7440                 1.2622
 IR Inten    --      7.5761                86.7034                10.5861

                     70                     71                     72
                      A                      A                      A
 Frequencies --   1351.4532              1359.0628              1370.7990
 Red. masses --      1.1683                 1.2322                 1.4476
 Frc consts  --      1.2572                 1.3409                 1.6027
 IR Inten    --      0.6707                20.3100                 3.7428

                     73                     74                     75
                      A                      A                      A
 Frequencies --   1373.8287              1393.0582              1403.8793
 Red. masses --      1.1536                 1.3896                 1.4226
 Frc consts  --      1.2829                 1.5889                 1.6519
 IR Inten    --      1.9575                 8.5602                 0.8124

                     76                     77                     78
                      A                      A                      A
 Frequencies --   1408.9390              1409.4882              1421.2581
 Red. masses --      1.4211                 1.4465                 1.4033
 Frc consts  --      1.6621                 1.6932                 1.6701
 IR Inten    --     10.0227                 7.9457                 4.9556

                     79                     80                     81
                      A                      A                      A
 Frequencies --   1425.1654              1433.7935              1437.8965
 Red. masses --      1.4501                 1.4433                 2.3977
 Frc consts  --      1.7354                 1.7482                 2.9208
 IR Inten    --      1.1384                 3.6143                77.3774

                     82                     83                     84
                      A                      A                      A
 Frequencies --   1479.6632              1492.3642              1497.0152
 Red. masses --      1.0856                 1.0811                 1.0909
 Frc consts  --      1.4004                 1.4186                 1.4404
 IR Inten    --     20.8359                 5.2011                 9.4425

                     85                     86                     87
                      A                      A                      A
 Frequencies --   1508.3458              1510.0072              1517.7564
 Red. masses --      1.0833                 1.0835                 1.0799
 Frc consts  --      1.4521                 1.4556                 1.4656
 IR Inten    --      3.8676                 4.7126                 3.1912

                     88                     89                     90
                      A                      A                      A
 Frequencies --   1521.5186              1526.3479              1527.7997
 Red. masses --      1.0964                 1.0869                 1.0889
 Frc consts  --      1.4954                 1.4919                 1.4975
 IR Inten    --     17.7807                 6.2891                 4.4567

                     91                     92                     93
                      A                      A                      A
 Frequencies --   1534.8191              1546.0980              1661.2717
 Red. masses --      1.0875                 1.0826                 1.2728
 Frc consts  --      1.5094                 1.5247                 2.0696
 IR Inten    --      2.8888                 3.1400                57.1685

                     94                     95                     96
                      A                      A                      A
 Frequencies --   1771.0459              1803.5866              2682.8043
 Red. masses --      6.9491                10.5671                 1.0381
 Frc consts  --     12.8422                20.2525                 4.4023
 IR Inten    --    302.8975               137.8557                16.6204

                     97                     98                     99
                      A                      A                      A
 Frequencies --   3018.7547              3026.0748              3030.0032
 Red. masses --      1.0636                 1.0730                 1.0665
 Frc consts  --      5.7108                 5.7892                 5.7690
 IR Inten    --     18.4361                14.7859                12.7366

                    100                    101                    102
                      A                      A                      A
 Frequencies --   3035.3198              3037.4304              3039.3606
 Red. masses --      1.0614                 1.0705                 1.0674
 Frc consts  --      5.7613                 5.8189                 5.8097
 IR Inten    --     35.1012                56.0945                14.7402

                    103                    104                    105
                      A                      A                      A
 Frequencies --   3046.5893              3053.3921              3054.9193
 Red. masses --      1.0609                 1.0652                 1.0659
 Frc consts  --      5.8017                 5.8511                 5.8608
 IR Inten    --     17.4541                 2.3394                 8.7794

                    106                    107                    108
                      A                      A                      A
 Frequencies --   3059.3743              3066.5020              3070.6450
 Red. masses --      1.0926                 1.0750                 1.0879
 Frc consts  --      6.0250                 5.9561                 6.0438
 IR Inten    --     29.7578                11.3898                65.1829

                    109                    110                    111
                      A                      A                      A
 Frequencies --   3076.7123              3083.2257              3083.3517
 Red. masses --      1.0868                 1.0952                 1.0975
 Frc consts  --      6.0615                 6.1340                 6.1474
 IR Inten    --     35.2317                18.2890                32.6359

                    112                    113                    114
                      A                      A                      A
 Frequencies --   3088.3322              3089.6825              3096.9200
 Red. masses --      1.0947                 1.0735                 1.1010
 Frc consts  --      6.1517                 6.0378                 6.2214
 IR Inten    --      7.9912                26.0956                75.9627

                    115                    116                    117
                      A                      A                      A
 Frequencies --   3108.4570              3126.4239              3145.9942
 Red. masses --      1.1026                 1.0971                 1.1054
 Frc consts  --      6.2769                 6.3179                 6.4457
 IR Inten    --     45.8739                12.3661                 5.1137

                    118                    119                    120
                      A                      A                      A
 Frequencies --   3169.7949              3484.5130              3682.8992
 Red. masses --      1.0860                 1.0570                 1.0948
 Frc consts  --      6.4292                 7.5612                 8.7494
 IR Inten    --     10.4379               295.0348                78.4934

 - Thermochemistry -
 -------------------
 Temperature   298.150 Kelvin.  Pressure   1.00000 Atm.
 Atom     1 has atomic number  6 and mass  12.00000

 Molecular mass:   259.16060 amu.
 Principal axes and moments of inertia in atomic units:
                           1         2         3
     Eigenvalues --  3532.839986450.511818846.19350
           X            0.99974  -0.02249  -0.00317
           Y            0.02250   0.99974   0.00340
           Z            0.00310  -0.00347   0.99999
 This molecule is an asymmetric top.
 Rotational symmetry number  1.
 Warning -- assumption of classical behavior for rotation
           may cause significant error
 Rotational temperatures (Kelvin)      0.02452     0.01343     0.00979
 Rotational constants (GHZ):           0.51085     0.27978     0.20401
 Zero-point vibrational energy     979510.1 (Joules/Mol)
                                  234.10853 (Kcal/Mol)
 Warning -- explicit consideration of  30 degrees of freedom as
           vibrations may cause significant error
 Vibrational temperatures:     37.05    49.13    61.35    89.53    95.14
          (Kelvin)            106.47   137.67   153.28   160.00   168.60
                              212.29   251.56   296.95   315.32   341.53
                              364.46   419.28   431.19   440.35   469.87
                              507.09   525.86   553.90   610.45   638.80
                              711.02   750.56   779.41   799.15   892.14
                              918.38   921.09  1037.32  1037.70  1048.58
                             1089.64  1106.96  1152.44  1162.35  1194.12
                             1253.11  1258.97  1289.38  1343.07  1375.09
                             1403.91  1414.34  1434.62  1476.51  1498.35
                             1526.69  1539.83  1580.81  1597.92  1605.70
                             1617.20  1629.52  1676.64  1678.78  1727.93
                             1731.56  1776.62  1786.08  1821.26  1845.51
                             1860.39  1887.15  1912.84  1923.29  1944.44
                             1955.39  1972.27  1976.63  2004.30  2019.87
                             2027.15  2027.94  2044.87  2050.50  2062.91
                             2068.81  2128.91  2147.18  2153.87  2170.17
                             2172.56  2183.71  2189.13  2196.07  2198.16
                             2208.26  2224.49  2390.20  2548.14  2594.96
                             3859.96  4343.31  4353.85  4359.50  4367.15
                             4370.18  4372.96  4383.36  4393.15  4395.35
                             4401.76  4412.01  4417.97  4426.70  4436.07
                             4436.26  4443.42  4445.36  4455.78  4472.38
                             4498.23  4526.38  4560.63  5013.44  5298.87

 Zero-point correction=                           0.373076 (Hartree/Particle)
 Thermal correction to Energy=                    0.393239
 Thermal correction to Enthalpy=                  0.394184
 Thermal correction to Gibbs Free Energy=         0.322911
 Sum of electronic and zero-point Energies=          -1113.562002
 Sum of electronic and thermal Energies=             -1113.541838
 Sum of electronic and thermal Enthalpies=           -1113.540894
 Sum of electronic and thermal Free Energies=        -1113.612167

                     E (Thermal)             CV                S
                      KCal/Mol        Cal/Mol-Kelvin    Cal/Mol-Kelvin
 Total                  246.761             74.471            150.006
 Electronic               0.000              0.000              0.000
 Translational            0.889              2.981             42.557
 Rotational               0.889              2.981             33.666
 Vibrational            244.984             68.509             73.784
 Vibration     1          0.593              1.985              6.132
 Vibration     2          0.594              1.983              5.572
 Vibration     3          0.595              1.980              5.133
 Vibration     4          0.597              1.972              4.385
 Vibration     5          0.598              1.970              4.265
 Vibration     6          0.599              1.966              4.044
 Vibration     7          0.603              1.952              3.540
 Vibration     8          0.605              1.944              3.331
 Vibration     9          0.607              1.940              3.248
 Vibration    10          0.608              1.935              3.146
 Vibration    11          0.617              1.905              2.704
 Vibration    12          0.627              1.873              2.383
 Vibration    13          0.641              1.831              2.075
 Vibration    14          0.647              1.812              1.966
 Vibration    15          0.656              1.783              1.822
 Vibration    16          0.664              1.757              1.707
 Vibration    17          0.687              1.690              1.466
 Vibration    18          0.692              1.674              1.419
 Vibration    19          0.696              1.662              1.384
 Vibration    20          0.710              1.622              1.277
 Vibration    21          0.729              1.570              1.155
 Vibration    22          0.739              1.543              1.099
 Vibration    23          0.754              1.502              1.020
 Vibration    24          0.786              1.417              0.878
 Vibration    25          0.803              1.374              0.814
 Vibration    26          0.850              1.263              0.673
 Vibration    27          0.877              1.202              0.606
 Vibration    28          0.897              1.158              0.562
 Vibration    29          0.911              1.128              0.533
 Vibration    30          0.980              0.990              0.416

 Optimization completed.
    -- Stationary point found.
 Normal termination of Gaussian 16 at Fri Dec 11 12:41:51 2020.

 ----------------------------------------------------------------------
 # B3LYP/6-311++G(d,p) empiricaldispersion=gd3bj scf=xqc pop=npa geom=c
 heck
 ----------------------------------------------------------------------

 ---------------------------------------
 CID_146427165_JID_7125_Energie_neutraal
 ---------------------------------------
 Structure from the checkpoint file:  "JID_7125.chk"
 Charge =  0 Multiplicity = 1

 SCF Done:  E(RB3LYP) =  -1114.17807733     A.U. after   14 cycles
 Normal termination of Gaussian 16 at Fri Dec 11 12:51:18 2020.

 ----------------------------------------------------------------------
 # B3LYP/6-311++G(d,p) empiricaldispersion=gd3bj scf=xqc pop=npa geom=c
 heck
 ----------------------------------------------------------------------

 -------------------------------------
 CID_146427165_JID_7125_Energie_kation
 -------------------------------------
 Structure from the checkpoint file:  "JID_7125.chk"
 Charge =  1 Multiplicity = 2

 SCF Done:  E(UB3LYP) =  -1113.86786464     A.U. after   26 cycles
 Normal termination of Gaussian 16 at Fri Dec 11 13:11:53 2020.
 Gaussian 16:  ES64L-G16RevA.03 25-Dec-2016

 ----------------------------------------------------------------------
 # B3LYP/6-311++G(d,p) empiricaldispersion=gd3bj scf=xqc pop=npa geom=c
 heck
 ----------------------------------------------------------------------

 ------------------------------------
 CID_146427165_JID_7125_Energie_anion
 ------------------------------------
 Structure from the checkpoint file:  "JID_7125.chk"
 Charge = -1 Multiplicity = 2

                         Standard orientation:
 ---------------------------------------------------------------------
 Center     Atomic      Atomic             Coordinates (Angstroms)
 Number     Number       Type             X           Y           Z
 ---------------------------------------------------------------------
      1          6           0        0.519340   -2.497063   -0.693162
      2          6           0       -0.918041   -2.097737   -1.065363
      3          6           0       -2.043986   -2.484236   -0.089039
      4          6           0       -2.141950   -1.714929    1.241361
      5          6           0       -2.077336   -0.188141    1.090028
      6          6           0       -3.181405    0.371742    0.200345
      7          8           0       -4.306551   -0.094060    0.230731
      8          6           0       -2.852781    1.511262   -0.758952
      9          6           0       -1.895945    2.593465   -0.242332
     10          6           0       -0.418768    2.215478   -0.377219
     11          8           0       -0.032745    1.349847   -1.162302
     12          7           0        0.432596    2.915220    0.411232
     13          6           0        1.154552   -1.724209    0.472201
     14          6           0        2.681836   -1.877381    0.554921
     15          6           0        3.467036   -1.196044   -0.577750
     16          6           0        3.161514    0.289563   -0.787054
     17         16           0        3.551854    1.369080    0.664683
     18          1           0        1.135680   -2.346597   -1.589122
     19          1           0        0.562072   -3.574779   -0.476251
     20          1           0       -0.935827   -1.019304   -1.264393
     21          1           0       -1.152315   -2.579239   -2.024330
     22          1           0       -2.997253   -2.351238   -0.614879
     23          1           0       -1.970808   -3.557415    0.136293
     24          1           0       -3.091245   -1.979041    1.719394
     25          1           0       -1.345105   -2.022424    1.926957
     26          1           0       -2.199791    0.280812    2.078176
     27          1           0       -1.099582    0.117101    0.719319
     28          1           0       -2.387566    1.056614   -1.644172
     29          1           0       -3.804712    1.947357   -1.072370
     30          1           0       -2.042763    3.505115   -0.836328
     31          1           0       -2.119834    2.867803    0.796163
     32          1           0        0.103700    3.617623    1.056066
     33          1           0        1.430563    2.717800    0.368466
     34          1           0        0.900259   -0.661987    0.377011
     35          1           0        0.721141   -2.060512    1.420886
     36          1           0        3.033241   -1.481484    1.516622
     37          1           0        2.942002   -2.944489    0.562633
     38          1           0        4.540393   -1.322943   -0.392734
     39          1           0        3.253213   -1.698127   -1.530934
     40          1           0        3.795002    0.694300   -1.582344
     41          1           0        2.121920    0.468601   -1.071624
     42          1           0        2.739760    0.757728    1.552589
 ---------------------------------------------------------------------

 SCF Done:  E(UB3LYP) =  -1114.17137615     A.U. after   33 cycles
 SCF Done:  E(UB3LYP) =  -1114.17137615     a.u. after    1 cycles

 The electronic state is 2-A.
 Alpha  occ. eigenvalues --  -88.74872 -19.01896 -18.99600 -14.22849 -10.18159
 Alpha  occ. eigenvalues --  -10.16716 -10.10541 -10.08860 -10.08560 -10.08405
 Alpha  occ. eigenvalues --  -10.07791 -10.07723 -10.07634 -10.07502 -10.07455
 Alpha  occ. eigenvalues --  -10.07116 -10.07055  -7.83577  -5.79923  -5.79596
 Alpha  occ. eigenvalues --   -5.78983  -0.95179  -0.94439  -0.80572  -0.73269
 Alpha  occ. eigenvalues --   -0.71823  -0.70115  -0.68390  -0.65408  -0.62131
 Alpha  occ. eigenvalues --   -0.59522  -0.57998  -0.54915  -0.51708  -0.48848
 Alpha  occ. eigenvalues --   -0.47551  -0.46493  -0.43768  -0.41962  -0.40217
 Alpha  occ. eigenvalues --   -0.39742  -0.38767  -0.37992  -0.37151  -0.36549
 Alpha  occ. eigenvalues --   -0.35174  -0.34410  -0.33848  -0.32916  -0.32302
 Alpha  occ. eigenvalues --   -0.31987  -0.31217  -0.29882  -0.29584  -0.28827
 Alpha  occ. eigenvalues --   -0.27818  -0.27424  -0.27161  -0.25954  -0.25680
 Alpha  occ. eigenvalues --   -0.25077  -0.24146  -0.23986  -0.23189  -0.22666
 Alpha  occ. eigenvalues --   -0.21819  -0.21596  -0.17770  -0.16947  -0.15695
 Alpha  occ. eigenvalues --   -0.15136   0.04084
 Alpha virt. eigenvalues --    0.06004   0.06273   0.07039   0.07199   0.08059
 Alpha virt. eigenvalues --    0.08342   0.08781   0.09009   0.09576   0.10202
 Alpha virt. eigenvalues --    0.10564   0.11001   0.11331   0.11675   0.11789

  Beta  occ. eigenvalues --  -88.74855 -19.01891 -18.99595 -14.22779 -10.18159
  Beta  occ. eigenvalues --  -10.16717 -10.10533 -10.08809 -10.08556 -10.08399
  Beta  occ. eigenvalues --  -10.07777 -10.07704 -10.07627 -10.07497 -10.07454
  Beta  occ. eigenvalues --  -10.07114 -10.07043  -7.83556  -5.79899  -5.79581
  Beta  occ. eigenvalues --   -5.78968  -0.95171  -0.94419  -0.80476  -0.73251
  Beta  occ. eigenvalues --   -0.71803  -0.70081  -0.68361  -0.65377  -0.62096
  Beta  occ. eigenvalues --   -0.59475  -0.57954  -0.54878  -0.51678  -0.48761
  Beta  occ. eigenvalues --   -0.47511  -0.46460  -0.43684  -0.41923  -0.40185
  Beta  occ. eigenvalues --   -0.39717  -0.38743  -0.37968  -0.37130  -0.36530
  Beta  occ. eigenvalues --   -0.35156  -0.34388  -0.33823  -0.32898  -0.32268
  Beta  occ. eigenvalues --   -0.31958  -0.31196  -0.29849  -0.29559  -0.28803
  Beta  occ. eigenvalues --   -0.27788  -0.27400  -0.27134  -0.25928  -0.25663
  Beta  occ. eigenvalues --   -0.25056  -0.24123  -0.23967  -0.23162  -0.22649
  Beta  occ. eigenvalues --   -0.21806  -0.21583  -0.17720  -0.16929  -0.15683
  Beta  occ. eigenvalues --   -0.15096
  Beta virt. eigenvalues --    0.06009   0.06315   0.07091   0.07252   0.07439
  Beta virt. eigenvalues --    0.08362   0.08849   0.09184   0.09198   0.09669
  Beta virt. eigenvalues --    0.10311   0.10701   0.11164   0.11578   0.11833

 Mulliken charges and spin densities:
               1          2
     1  C   -0.307106  -0.262764
     2  C   -0.069480  -0.034730
     3  C   -0.574988   0.223257
     4  C    0.244157  -0.698783
     5  C   -0.030169   0.237564
     6  C   -0.175141  -0.359545
     7  O   -0.249918   0.010570
     8  C   -0.300879   0.209838
     9  C    0.677825  -1.001855
    10  C    0.131664  -0.248369
    11  O   -0.280347  -0.025969
    12  N   -0.132957  -0.002915
    13  C    0.373409  -0.000155
    14  C   -0.190679  -0.349691
    15  C   -0.691064   0.148014
    16  C   -0.196275   0.047612
    17  S    0.644934  -0.803318
    18  H    0.140393  -0.038704
    19  H    0.097165   0.029060
    20  H    0.232160  -0.113009
    21  H    0.121224   0.042147
    22  H    0.128578   0.032711
    23  H    0.114130   0.015684
    24  H    0.248377  -0.045383
    25  H   -0.039736   0.175647
    26  H   -0.287073   0.518708
    27  H    0.935681  -0.814753
    28  H    0.168605   0.040667
    29  H    0.093443   0.117956
    30  H   -0.462180   0.677879
    31  H   -0.321256   0.517925
    32  H   -0.561789   0.850476
    33  H    0.018001   0.244441
    34  H   -0.433370   0.248182
    35  H    0.091632   0.083139
    36  H   -0.086553   0.250175
    37  H    0.028304   0.097083
    38  H    0.043989   0.078415
    39  H    0.065558   0.079533
    40  H    0.094180   0.169725
    41  H    0.131071   0.136639
    42  H   -0.433520   0.516898
 Sum of Mulliken charges =  -1.00000   1.00000

 Dipole moment (field-independent basis, Debye):
    X=              1.5183    Y=             -8.0319    Z=             -4.6196  Tot=              9.3892
 Quadrupole moment (field-independent basis, Debye-Ang):
   XX=           -181.3619   YY=           -178.6273   ZZ=           -150.6210
   XY=              1.4464   XZ=             -2.6539   YZ=             -8.8397

 Summary of Natural Population Analysis:

                                       Natural Population
                Natural  -----------------------------------------------
    Atom  No    Charge         Core      Valence    Rydberg      Total
 -----------------------------------------------------------------------
      C    1   -0.18591      0.99962     2.17929    0.00700     3.18591
      C    2   -0.19684      0.99962     2.18957    0.00766     3.19684
      C    3   -0.19140      0.99963     2.18473    0.00705     3.19140
      C    4   -0.18746      0.99963     2.17907    0.00876     3.18746
      C    5   -0.24847      0.99956     2.23960    0.00931     3.24847
      C    6    0.30455      0.99966     1.67388    0.02190     2.69545
      O    7   -0.29441      0.99987     3.28823    0.00630     4.29441
      C    8   -0.23970      0.99957     2.23014    0.00998     3.23970
      C    9   -0.23514      0.99958     2.22585    0.00970     3.23514
      C   10    0.33829      0.99968     1.63819    0.02383     2.66171
      O   11   -0.34315      0.99987     3.33733    0.00595     4.34315
      N   12   -0.39912      0.99969     2.89040    0.00903     3.89912
      C   13   -0.20162      0.99962     2.19338    0.00862     3.20162
      C   14   -0.19078      0.99962     2.18220    0.00896     3.19078
      C   15   -0.19498      0.99961     2.18763    0.00774     3.19498
      C   16   -0.25120      0.99957     2.24215    0.00948     3.25120
      S   17   -0.03206      4.99967     3.01706    0.01533     8.03206
      H   18    0.09361      0.00000     0.40512    0.00127     0.40639
      H   19    0.08951      0.00000     0.40932    0.00117     0.41049
      H   20    0.10767      0.00000     0.39067    0.00166     0.39233
      H   21    0.09361      0.00000     0.40555    0.00084     0.40639
      H   22    0.10025      0.00000     0.39870    0.00105     0.39975
      H   23    0.09284      0.00000     0.40613    0.00104     0.40716
      H   24    0.10244      0.00000     0.39652    0.00104     0.39756
      H   25    0.09704      0.00000     0.40177    0.00119     0.40296
      H   26    0.11851      0.00000     0.38025    0.00125     0.38149
      H   27    0.10953      0.00000     0.38768    0.00278     0.39047
      H   28    0.12221      0.00000     0.37642    0.00137     0.37779
      H   29    0.10903      0.00000     0.38989    0.00108     0.39097
      H   30    0.11776      0.00000     0.38080    0.00144     0.38224
      H   31    0.11153      0.00000     0.38489    0.00358     0.38847
      H   32    0.20368      0.00000     0.27618    0.02014     0.29632
      H   33    0.20355      0.00000     0.29340    0.00305     0.29645
      H   34    0.10153      0.00000     0.39569    0.00278     0.39847
      H   35    0.09661      0.00000     0.40206    0.00132     0.40339
      H   36    0.10010      0.00000     0.39867    0.00123     0.39990
      H   37    0.09517      0.00000     0.40387    0.00096     0.40483
      H   38    0.09883      0.00000     0.40003    0.00115     0.40117
      H   39    0.09636      0.00000     0.40244    0.00120     0.40364
      H   40    0.10220      0.00000     0.39691    0.00089     0.39780
      H   41    0.12004      0.00000     0.37806    0.00190     0.37996
      H   42    0.06579      0.00000     0.43050    0.00371     0.43421
 =======================================================================
   * Total *   -0.00000     20.99409    49.77021    0.23570    71.00000

 Normal termination of Gaussian 16 at Fri Dec 11 13:37:51 2020.
