 Gaussian 16, Revision A.03,

 -----------------------------------------------------------
 # opt freq B3LYP/6-31G(d) empiricaldispersion=gd3bj scf=xqc
 -----------------------------------------------------------

 ------------------------------
 CID_10511424_JID_2876_neutraal
 ------------------------------
 Symbolic Z-matrix:
 Charge =  0 Multiplicity = 1

 SCF Done:  E(RB3LYP) =  -610.320251278     A.U. after   14 cycles
 SCF Done:  E(RB3LYP) =  -610.335332197     A.U. after   13 cycles
 SCF Done:  E(RB3LYP) =  -610.337137087     A.U. after   12 cycles
 SCF Done:  E(RB3LYP) =  -610.337272848     A.U. after   11 cycles
 SCF Done:  E(RB3LYP) =  -610.337497086     A.U. after   11 cycles
 SCF Done:  E(RB3LYP) =  -610.337586805     A.U. after   10 cycles
 SCF Done:  E(RB3LYP) =  -610.337593590     A.U. after    9 cycles
 SCF Done:  E(RB3LYP) =  -610.337594904     A.U. after    8 cycles
 SCF Done:  E(RB3LYP) =  -610.337595396     A.U. after    7 cycles
 SCF Done:  E(RB3LYP) =  -610.337595737     A.U. after    7 cycles
 SCF Done:  E(RB3LYP) =  -610.337595829     A.U. after    7 cycles
 SCF Done:  E(RB3LYP) =  -610.337595862     A.U. after    6 cycles
 Optimization completed.
    -- Stationary point found.
 Normal termination of Gaussian 16 at Wed Dec  9 18:10:06 2020.

 --------------------------------------------------------------------
 #N Geom=AllCheck Guess=TCheck SCRF=Check GenChk RB3LYP/6-31G(d) Freq
 --------------------------------------------------------------------

 Structure from the checkpoint file:  "JID_2876.chk"
 ------------------------------
 CID_10511424_JID_2876_neutraal
 ------------------------------
 Charge =  0 Multiplicity = 1

 SCF Done:  E(RB3LYP) =  -610.337595862     A.U. after    1 cycles

  Exact polarizability: 105.769  -3.552  95.596  -0.149   1.512  76.204
 Approx polarizability: 143.623 -10.743 124.684  -1.535   1.988 121.076

                      1                      2                      3
                      A                      A                      A
 Frequencies --     64.6986                81.4406               103.4334
 Red. masses --      2.4314                 2.3379                 2.5193
 Frc consts  --      0.0060                 0.0091                 0.0159
 IR Inten    --      0.6330                 2.4387                 5.0020

                      4                      5                      6
                      A                      A                      A
 Frequencies --    123.4149               136.2080               165.5677
 Red. masses --      2.2256                 2.1815                 1.5851
 Frc consts  --      0.0200                 0.0238                 0.0256
 IR Inten    --      2.4130                 1.2014                 2.0135

                      7                      8                      9
                      A                      A                      A
 Frequencies --    184.2887               200.5630               227.3864
 Red. masses --      1.2229                 2.4223                 1.0483
 Frc consts  --      0.0245                 0.0574                 0.0319
 IR Inten    --      2.3749                 1.9861                 0.0165

                     10                     11                     12
                      A                      A                      A
 Frequencies --    236.7749               258.8831               307.4202
 Red. masses --      1.7510                 1.8708                 3.4690
 Frc consts  --      0.0578                 0.0739                 0.1932
 IR Inten    --      1.5408                 2.2989                 0.8978

                     13                     14                     15
                      A                      A                      A
 Frequencies --    324.8495               351.8835               395.4674
 Red. masses --      2.7130                 3.6569                 3.8441
 Frc consts  --      0.1687                 0.2668                 0.3542
 IR Inten    --      1.0682                 1.9129                 6.0523

                     16                     17                     18
                      A                      A                      A
 Frequencies --    432.9158               484.6779               522.9793
 Red. masses --      4.2930                 5.5454                 5.1289
 Frc consts  --      0.4740                 0.7675                 0.8265
 IR Inten    --      0.9477                 7.9186                 6.6832

                     19                     20                     21
                      A                      A                      A
 Frequencies --    610.5061               618.2241               659.9187
 Red. masses --      5.5874                 4.3937                 6.0702
 Frc consts  --      1.2270                 0.9894                 1.5575
 IR Inten    --     10.2694                 0.3510                 4.6173

                     22                     23                     24
                      A                      A                      A
 Frequencies --    699.6306               784.7191               792.0827
 Red. masses --      3.8069                 4.2581                 1.9336
 Frc consts  --      1.0979                 1.5449                 0.7148
 IR Inten    --     11.1065                 1.4604                 4.0489

                     25                     26                     27
                      A                      A                      A
 Frequencies --    876.6775               906.0875               957.7009
 Red. masses --      2.3570                 7.4989                 2.1659
 Frc consts  --      1.0673                 3.6273                 1.1704
 IR Inten    --     18.0129                58.0422                21.1701

                     28                     29                     30
                      A                      A                      A
 Frequencies --   1021.0170              1025.0950              1055.2756
 Red. masses --      2.6440                 1.9784                 4.4114
 Frc consts  --      1.6240                 1.2249                 2.8944
 IR Inten    --     34.8862                 0.2124                37.8745

                     31                     32                     33
                      A                      A                      A
 Frequencies --   1066.7376              1076.1653              1103.9366
 Red. masses --      1.6212                 2.7782                 6.9926
 Frc consts  --      1.0869                 1.8957                 5.0208
 IR Inten    --     21.1811                14.2541                71.3159

                     34                     35                     36
                      A                      A                      A
 Frequencies --   1174.5818              1178.5684              1183.8779
 Red. masses --      3.2417                 2.7518                 1.4108
 Frc consts  --      2.6351                 2.2520                 1.1650
 IR Inten    --    114.9427               259.3170                27.0934

                     37                     38                     39
                      A                      A                      A
 Frequencies --   1185.7190              1210.2043              1213.2898
 Red. masses --      1.2758                 2.0397                 3.0057
 Frc consts  --      1.0568                 1.7601                 2.6069
 IR Inten    --      1.4088                59.1570               195.7258

                     40                     41                     42
                      A                      A                      A
 Frequencies --   1236.9442              1253.0048              1299.4206
 Red. masses --      1.8850                 2.3604                 3.5127
 Frc consts  --      1.6993                 2.1834                 3.4945
 IR Inten    --    102.2049               189.4061                39.1091

                     43                     44                     45
                      A                      A                      A
 Frequencies --   1338.3658              1398.9015              1428.5463
 Red. masses --      1.2464                 1.5673                 1.2326
 Frc consts  --      1.3154                 1.8071                 1.4820
 IR Inten    --      1.8352                 0.3920                 6.4692

                     46                     47                     48
                      A                      A                      A
 Frequencies --   1439.1812              1492.2912              1501.2609
 Red. masses --      1.2632                 1.1665                 1.0955
 Frc consts  --      1.5415                 1.5305                 1.4546
 IR Inten    --      2.6890                 3.4036                 3.1343

                     49                     50                     51
                      A                      A                      A
 Frequencies --   1501.6421              1517.1371              1518.7092
 Red. masses --      1.1532                 1.0544                 1.0554
 Frc consts  --      1.5320                 1.4299                 1.4342
 IR Inten    --      6.1169                 2.7435                 0.0425

                     52                     53                     54
                      A                      A                      A
 Frequencies --   1519.1091              1526.1170              1527.6830
 Red. masses --      1.0573                 1.0504                 1.0506
 Frc consts  --      1.4376                 1.4414                 1.4447
 IR Inten    --      4.1840                13.8418                 3.3407

                     55                     56                     57
                      A                      A                      A
 Frequencies --   1532.6373              1540.2416              1546.6223
 Red. masses --      1.0441                 1.0485                 1.0498
 Frc consts  --      1.4450                 1.4655                 1.4795
 IR Inten    --     18.3763                 7.8290                 4.8998

                     58                     59                     60
                      A                      A                      A
 Frequencies --   1678.9583              3058.3378              3058.6822
 Red. masses --     13.6374                 1.0572                 1.0340
 Frc consts  --     22.6496                 5.8261                 5.6998
 IR Inten    --     10.9433                12.6414                25.9597

                     61                     62                     63
                      A                      A                      A
 Frequencies --   3060.4599              3066.2131              3072.1155
 Red. masses --      1.0318                 1.0367                 1.0361
 Frc consts  --      5.6941                 5.7425                 5.7613
 IR Inten    --     35.4783                31.7417                20.1481

                     64                     65                     66
                      A                      A                      A
 Frequencies --   3097.4352              3127.9051              3131.8413
 Red. masses --      1.1026                 1.1024                 1.1060
 Frc consts  --      6.2324                 6.3545                 6.3913
 IR Inten    --      8.4713                25.5239                25.4073

                     67                     68                     69
                      A                      A                      A
 Frequencies --   3134.9870              3144.9706              3152.6880
 Red. masses --      1.1048                 1.1030                 1.1010
 Frc consts  --      6.3977                 6.4279                 6.4474
 IR Inten    --     29.0137                 9.9836                36.9706

                     70                     71                     72
                      A                      A                      A
 Frequencies --   3164.1084              3165.7902              3167.4738
 Red. masses --      1.1046                 1.1033                 1.1057
 Frc consts  --      6.5157                 6.5149                 6.5361
 IR Inten    --     24.5932                 8.2227                20.8146

 - Thermochemistry -
 -------------------
 Temperature   298.150 Kelvin.  Pressure   1.00000 Atm.
 Atom     1 has atomic number  6 and mass  12.00000

 Molecular mass:   174.10044 amu.
 Principal axes and moments of inertia in atomic units:
                           1         2         3
     Eigenvalues --  1345.876892051.509602698.83103
           X            0.99965   0.02632   0.00408
           Y           -0.02636   0.99961   0.00945
           Z           -0.00383  -0.00955   0.99995
 This molecule is an asymmetric top.
 Rotational symmetry number  1.
 Warning -- assumption of classical behavior for rotation
           may cause significant error
 Rotational temperatures (Kelvin)      0.06436     0.04222     0.03209
 Rotational constants (GHZ):           1.34094     0.87971     0.66871
 Zero-point vibrational energy     576615.9 (Joules/Mol)
                                  137.81451 (Kcal/Mol)
 Warning -- explicit consideration of  20 degrees of freedom as
           vibrations may cause significant error
 Vibrational temperatures:     93.09   117.17   148.82   177.57   195.97
          (Kelvin)            238.21   265.15   288.57   327.16   340.67
                              372.48   442.31   467.39   506.28   568.99
                              622.87   697.34   752.45   878.38   889.49
                              949.48  1006.61  1129.04  1139.63  1261.34
                             1303.66  1377.92  1469.02  1474.88  1518.31
                             1534.80  1548.36  1588.32  1689.96  1695.70
                             1703.34  1705.99  1741.21  1745.65  1779.69
                             1802.79  1869.58  1925.61  2012.71  2055.36
                             2070.66  2147.07  2159.98  2160.53  2182.82
                             2185.08  2185.66  2195.74  2198.00  2205.12
                             2216.06  2225.24  2415.65  4400.27  4400.76
                             4403.32  4411.60  4420.09  4456.52  4500.36
                             4506.02  4510.55  4524.91  4536.01  4552.45
                             4554.87  4557.29

 Zero-point correction=                           0.219621 (Hartree/Particle)
 Thermal correction to Energy=                    0.232841
 Thermal correction to Enthalpy=                  0.233786
 Thermal correction to Gibbs Free Energy=         0.180664
 Sum of electronic and zero-point Energies=           -610.117974
 Sum of electronic and thermal Energies=              -610.104754
 Sum of electronic and thermal Enthalpies=            -610.103810
 Sum of electronic and thermal Free Energies=         -610.156932

                     E (Thermal)             CV                S
                      KCal/Mol        Cal/Mol-Kelvin    Cal/Mol-Kelvin
 Total                  146.110             48.271            111.805
 Electronic               0.000              0.000              0.000
 Translational            0.889              2.981             41.371
 Rotational               0.889              2.981             30.389
 Vibrational            144.333             42.309             40.045
 Vibration     1          0.597              1.971              4.308
 Vibration     2          0.600              1.962              3.856
 Vibration     3          0.605              1.946              3.389
 Vibration     4          0.610              1.929              3.046
 Vibration     5          0.614              1.917              2.856
 Vibration     6          0.624              1.885              2.485
 Vibration     7          0.631              1.861              2.285
 Vibration     8          0.638              1.839              2.128
 Vibration     9          0.651              1.799              1.899
 Vibration    10          0.656              1.784              1.827
 Vibration    11          0.668              1.748              1.669
 Vibration    12          0.697              1.660              1.376
 Vibration    13          0.709              1.626              1.286
 Vibration    14          0.728              1.571              1.158
 Vibration    15          0.762              1.480              0.979
 Vibration    16          0.794              1.399              0.849
 Vibration    17          0.841              1.284              0.698
 Vibration    18          0.878              1.199              0.603
 Vibration    19          0.970              1.010              0.432
 Vibration    20          0.978              0.993              0.419

                           ! Non-Optimized Parameters !
 Normal termination of Gaussian 16 at Wed Dec  9 18:17:20 2020.

 ----------------------------------------------------------------------
 # B3LYP/6-311++G(d,p) empiricaldispersion=gd3bj scf=xqc pop=npa geom=c
 heck
 ----------------------------------------------------------------------

 --------------------------------------
 CID_10511424_JID_2876_Energie_neutraal
 --------------------------------------
 Structure from the checkpoint file:  "JID_2876.chk"
 Charge =  0 Multiplicity = 1

 SCF Done:  E(RB3LYP) =  -610.512851695     A.U. after   14 cycles
 Normal termination of Gaussian 16 at Wed Dec  9 18:20:33 2020.

 ----------------------------------------------------------------------
 # B3LYP/6-311++G(d,p) empiricaldispersion=gd3bj scf=xqc pop=npa geom=c
 heck
 ----------------------------------------------------------------------

 ------------------------------------
 CID_10511424_JID_2876_Energie_kation
 ------------------------------------
 Structure from the checkpoint file:  "JID_2876.chk"
 Charge =  1 Multiplicity = 2

 SCF Done:  E(UB3LYP) =  -610.179014233     A.U. after   25 cycles
 Normal termination of Gaussian 16 at Wed Dec  9 18:27:43 2020.
 Gaussian 16:  ES64L-G16RevA.03 25-Dec-2016

 ----------------------------------------------------------------------
 # B3LYP/6-311++G(d,p) empiricaldispersion=gd3bj scf=xqc pop=npa geom=c
 heck
 ----------------------------------------------------------------------

 -----------------------------------
 CID_10511424_JID_2876_Energie_anion
 -----------------------------------
 Structure from the checkpoint file:  "JID_2876.chk"
 Charge = -1 Multiplicity = 2

                         Standard orientation:
 ---------------------------------------------------------------------
 Center     Atomic      Atomic             Coordinates (Angstroms)
 Number     Number       Type             X           Y           Z
 ---------------------------------------------------------------------
      1          6           0        2.665827    1.250422   -0.417029
      2          6           0        2.462028   -0.260776   -0.518588
      3          6           0        1.104104   -0.762359   -0.028764
      4          7           0        0.894350   -0.374703    1.402771
      5          7           0       -0.217477    0.140987    1.560727
      6          6           0       -0.957690    0.163584    0.237427
      7          8           0        0.039369   -0.112963   -0.719671
      8          8           0       -1.591338    1.353543   -0.014745
      9          6           0       -0.754242    2.500031   -0.150790
     10          8           0       -1.902829   -0.833516    0.352217
     11          6           0       -2.732824   -1.005442   -0.801291
     12          6           0        0.978691   -2.285205   -0.119646
     13          1           0        1.971605    1.786165   -1.068609
     14          1           0        3.684500    1.516798   -0.716740
     15          1           0        2.515561    1.601044    0.609379
     16          1           0        2.582319   -0.591909   -1.557057
     17          1           0        3.223760   -0.783276    0.071432
     18          1           0       -0.056132    2.583502    0.689083
     19          1           0       -0.195816    2.468635   -1.090640
     20          1           0       -1.426948    3.359327   -0.148499
     21          1           0       -3.374593   -0.133651   -0.954491
     22          1           0       -2.122041   -1.177696   -1.694159
     23          1           0       -3.343251   -1.886076   -0.595551
     24          1           0        1.115056   -2.598820   -1.159060
     25          1           0        1.741093   -2.767592    0.498521
     26          1           0       -0.010207   -2.598486    0.221584
 ---------------------------------------------------------------------

 SCF Done:  E(UB3LYP) =  -610.507844876     A.U. after   33 cycles
 SCF Done:  E(UB3LYP) =  -610.507844876     a.u. after    1 cycles

 The electronic state is 2-A.
 Alpha  occ. eigenvalues --  -19.01380 -19.00565 -19.00445 -14.16702 -14.16524
 Alpha  occ. eigenvalues --  -10.19812 -10.11631 -10.09779 -10.08439 -10.05548
 Alpha  occ. eigenvalues --  -10.05000 -10.03446  -0.99801  -0.91692  -0.89726
 Alpha  occ. eigenvalues --   -0.83860  -0.68612  -0.62523  -0.60649  -0.57359
 Alpha  occ. eigenvalues --   -0.53338  -0.50680  -0.46846  -0.45465  -0.40970
 Alpha  occ. eigenvalues --   -0.40256  -0.34128  -0.33781  -0.33042  -0.32477
 Alpha  occ. eigenvalues --   -0.31615  -0.31157  -0.30492  -0.28818  -0.28297
 Alpha  occ. eigenvalues --   -0.25937  -0.24843  -0.24158  -0.23507  -0.22050
 Alpha  occ. eigenvalues --   -0.21846  -0.20302  -0.18428  -0.17053  -0.16896
 Alpha  occ. eigenvalues --   -0.14737  -0.08113   0.05568
 Alpha virt. eigenvalues --    0.07886   0.08473   0.08691   0.09798   0.10720
 Alpha virt. eigenvalues --    0.11157   0.12340   0.12530   0.12924   0.13653
 Alpha virt. eigenvalues --    0.14650   0.14787   0.15710   0.16577   0.16912

  Beta  occ. eigenvalues --  -19.01366 -19.00561 -19.00413 -14.16061 -14.15960
  Beta  occ. eigenvalues --  -10.19823 -10.11660 -10.09759 -10.08381 -10.05529
  Beta  occ. eigenvalues --  -10.04997 -10.03386  -0.99672  -0.91530  -0.89648
  Beta  occ. eigenvalues --   -0.82948  -0.68468  -0.62390  -0.60565  -0.57239
  Beta  occ. eigenvalues --   -0.53118  -0.50204  -0.46447  -0.45290  -0.40874
  Beta  occ. eigenvalues --   -0.40104  -0.34041  -0.33629  -0.32976  -0.32322
  Beta  occ. eigenvalues --   -0.31524  -0.30993  -0.30429  -0.28708  -0.28007
  Beta  occ. eigenvalues --   -0.25790  -0.24751  -0.24096  -0.23213  -0.21969
  Beta  occ. eigenvalues --   -0.21506  -0.18599  -0.17164  -0.16859  -0.16623
  Beta  occ. eigenvalues --   -0.14640  -0.07417
  Beta virt. eigenvalues --    0.07836   0.08693   0.08840   0.10065   0.10809
  Beta virt. eigenvalues --    0.11290   0.12455   0.12612   0.12948   0.13849
  Beta virt. eigenvalues --    0.14191   0.14777   0.14858   0.15735   0.16441

 Mulliken charges and spin densities:
               1          2
     1  C   -0.536248  -0.007285
     2  C   -0.236396   0.154674
     3  C   -0.941584   0.336028
     4  N    0.009213   0.292423
     5  N   -0.042974   0.256298
     6  C   -0.658654   0.103825
     7  O   -0.029529   0.007636
     8  O   -0.132058   0.028471
     9  C    0.098181  -0.316698
    10  O   -0.135606   0.038775
    11  C    0.570093  -0.786941
    12  C    0.803536  -0.953925
    13  H    0.133290  -0.003777
    14  H    0.132376   0.003677
    15  H    0.161857  -0.004722
    16  H    0.147650  -0.016397
    17  H    0.139043   0.000130
    18  H    0.110018   0.057718
    19  H    0.078574   0.078909
    20  H   -0.105005   0.263787
    21  H   -0.179169   0.317248
    22  H   -0.145834   0.303152
    23  H   -0.180462   0.318975
    24  H   -0.216981   0.354372
    25  H   -0.010968   0.154846
    26  H    0.167640   0.018803
 Sum of Mulliken charges =  -1.00000   1.00000

 Dipole moment (field-independent basis, Debye):
    X=              4.1702    Y=              2.7615    Z=             -1.8162  Tot=              5.3212
 Quadrupole moment (field-independent basis, Debye-Ang):
   XX=           -104.2734   YY=            -98.8626   ZZ=           -101.4890
   XY=              0.5583   XZ=             -5.4293   YZ=             -3.4425

 Summary of Natural Population Analysis:

                                       Natural Population
                Natural  -----------------------------------------------
    Atom  No    Charge         Core      Valence    Rydberg      Total
 -----------------------------------------------------------------------
      C    1   -0.28667      0.99967     2.28259    0.00442     3.28667
      C    2   -0.19521      0.99957     2.18651    0.00913     3.19521
      C    3    0.18964      0.99956     1.79061    0.02019     2.81036
      N    4   -0.02903      0.99974     2.51085    0.01844     3.52903
      N    5   -0.04608      0.99974     2.52885    0.01748     3.54608
      C    6    0.47468      0.99964     1.49396    0.03171     2.52532
      O    7   -0.32422      0.99985     3.31674    0.00763     4.32422
      O    8   -0.30060      0.99984     3.29025    0.01051     4.30060
      C    9   -0.10138      0.99959     2.09252    0.00927     3.10138
      O   10   -0.29606      0.99985     3.28663    0.00959     4.29606
      C   11   -0.10436      0.99960     2.09527    0.00950     3.10436
      C   12   -0.29502      0.99959     2.28745    0.00798     3.29502
      H   13    0.09811      0.00000     0.40057    0.00133     0.40189
      H   14    0.08996      0.00000     0.40923    0.00081     0.41004
      H   15    0.10477      0.00000     0.39402    0.00121     0.39523
      H   16    0.09482      0.00000     0.40406    0.00112     0.40518
      H   17    0.09959      0.00000     0.39931    0.00111     0.40041
      H   18    0.09083      0.00000     0.40795    0.00122     0.40917
      H   19    0.08269      0.00000     0.41610    0.00121     0.41731
      H   20    0.08542      0.00000     0.41367    0.00091     0.41458
      H   21    0.08639      0.00000     0.41184    0.00177     0.41361
      H   22    0.08611      0.00000     0.41216    0.00173     0.41389
      H   23    0.08684      0.00000     0.41200    0.00116     0.41316
      H   24    0.09762      0.00000     0.40083    0.00155     0.40238
      H   25    0.09981      0.00000     0.39915    0.00104     0.40019
      H   26    0.11135      0.00000     0.38735    0.00130     0.38865
 =======================================================================
   * Total *    0.00000     11.99622    34.83046    0.17332    47.00000

 Normal termination of Gaussian 16 at Wed Dec  9 18:37:01 2020.
