 Gaussian 16, Revision A.03,

 -----------------------------------------------------------
 # opt freq B3LYP/6-31G(d) empiricaldispersion=gd3bj scf=xqc
 -----------------------------------------------------------

 ------------------------------
 CID_10848103_JID_9465_neutraal
 ------------------------------
 Symbolic Z-matrix:
 Charge =  0 Multiplicity = 1

 SCF Done:  E(RB3LYP) =  -750.978206040     A.U. after   15 cycles
 SCF Done:  E(RB3LYP) =  -750.980597408     A.U. after   13 cycles
 SCF Done:  E(RB3LYP) =  -750.980723009     A.U. after   13 cycles
 SCF Done:  E(RB3LYP) =  -750.981198067     A.U. after   13 cycles
 SCF Done:  E(RB3LYP) =  -750.981381919     A.U. after   11 cycles
 SCF Done:  E(RB3LYP) =  -750.981448441     A.U. after   11 cycles
 SCF Done:  E(RB3LYP) =  -750.981483165     A.U. after   11 cycles
 SCF Done:  E(RB3LYP) =  -750.981514002     A.U. after   10 cycles
 SCF Done:  E(RB3LYP) =  -750.981523327     A.U. after   10 cycles
 SCF Done:  E(RB3LYP) =  -750.981523722     A.U. after    8 cycles
 Optimization completed.
    -- Stationary point found.
 Normal termination of Gaussian 16 at Sun Dec 13 12:36:32 2020.

 --------------------------------------------------------------------
 #N Geom=AllCheck Guess=TCheck SCRF=Check GenChk RB3LYP/6-31G(d) Freq
 --------------------------------------------------------------------

 Structure from the checkpoint file:  "JID_9465.chk"
 ------------------------------
 CID_10848103_JID_9465_neutraal
 ------------------------------
 Charge =  0 Multiplicity = 1

 SCF Done:  E(RB3LYP) =  -750.981523722     A.U. after    1 cycles

  Exact polarizability: 192.645   9.427 160.209  10.929 -15.586 175.843
 Approx polarizability: 273.872   7.976 242.485  26.352 -32.341 315.873

                      1                      2                      3
                      A                      A                      A
 Frequencies --     31.0089                41.7245                65.0228
 Red. masses --      4.8840                 5.5471                 6.7276
 Frc consts  --      0.0028                 0.0057                 0.0168
 IR Inten    --      1.8234                 1.8859                 4.4277

                      4                      5                      6
                      A                      A                      A
 Frequencies --     87.2308               120.1720               137.1870
 Red. masses --      3.4801                 3.5134                 3.6976
 Frc consts  --      0.0156                 0.0299                 0.0410
 IR Inten    --      0.6114                 2.9662                 2.2331

                      7                      8                      9
                      A                      A                      A
 Frequencies --    160.5206               178.4857               238.7740
 Red. masses --      3.3495                 4.3993                 3.8325
 Frc consts  --      0.0508                 0.0826                 0.1287
 IR Inten    --      1.1036                 1.3730                 1.4504

                     10                     11                     12
                      A                      A                      A
 Frequencies --    292.9848               306.7311               314.0003
 Red. masses --      4.3906                 3.4829                 3.0721
 Frc consts  --      0.2221                 0.1931                 0.1785
 IR Inten    --      4.9199                 4.2999                 0.7542

                     13                     14                     15
                      A                      A                      A
 Frequencies --    336.3649               370.7568               383.5842
 Red. masses --      3.9628                 3.6181                 3.1395
 Frc consts  --      0.2642                 0.2930                 0.2722
 IR Inten    --      0.0631                 1.1433                 0.3301

                     16                     17                     18
                      A                      A                      A
 Frequencies --    453.4972               455.5442               467.6815
 Red. masses --      3.0946                 3.0873                 3.3157
 Frc consts  --      0.3750                 0.3775                 0.4273
 IR Inten    --      0.9966                 0.9609                 4.3388

                     19                     20                     21
                      A                      A                      A
 Frequencies --    484.4687               500.6587               531.6716
 Red. masses --      4.3932                 3.5626                 3.9492
 Frc consts  --      0.6075                 0.5261                 0.6577
 IR Inten    --      0.4760                 1.2188                 0.3523

                     22                     23                     24
                      A                      A                      A
 Frequencies --    572.2770               573.6640               620.6547
 Red. masses --      4.5931                 3.9630                 3.4218
 Frc consts  --      0.8863                 0.7684                 0.7766
 IR Inten    --      0.6041                 1.6398                 9.7841

                     25                     26                     27
                      A                      A                      A
 Frequencies --    635.8326               646.5618               716.3916
 Red. masses --      3.8290                 4.2319                 3.6435
 Frc consts  --      0.9121                 1.0423                 1.1017
 IR Inten    --      0.2125                 3.4295                 0.7404

                     28                     29                     30
                      A                      A                      A
 Frequencies --    727.0395               756.8844               766.9648
 Red. masses --      2.8068                 1.6889                 1.4890
 Frc consts  --      0.8741                 0.5700                 0.5160
 IR Inten    --      2.9045                17.7154                24.5989

                     31                     32                     33
                      A                      A                      A
 Frequencies --    784.9690               790.6402               804.1646
 Red. masses --      2.8956                 2.0590                 2.9927
 Frc consts  --      1.0512                 0.7583                 1.1402
 IR Inten    --      9.1048                17.7244                 1.8584

                     34                     35                     36
                      A                      A                      A
 Frequencies --    846.6397               858.6909               877.6897
 Red. masses --      2.5798                 2.7603                 1.3944
 Frc consts  --      1.0895                 1.1992                 0.6329
 IR Inten    --      0.3504                 0.8307                 0.5957

                     37                     38                     39
                      A                      A                      A
 Frequencies --    886.6050               917.5949               925.8584
 Red. masses --      1.6109                 2.1635                 2.4145
 Frc consts  --      0.7461                 1.0733                 1.2194
 IR Inten    --      1.1757                 2.4860                 4.9900

                     40                     41                     42
                      A                      A                      A
 Frequencies --    943.4106               951.0632               980.9754
 Red. masses --      1.4524                 1.4905                 1.2565
 Frc consts  --      0.7616                 0.7943                 0.7124
 IR Inten    --      0.6367                 0.7488                 0.0729

                     43                     44                     45
                      A                      A                      A
 Frequencies --    981.4608              1006.5437              1016.9179
 Red. masses --      1.2590                 2.6818                 2.3845
 Frc consts  --      0.7146                 1.6008                 1.4529
 IR Inten    --      0.0202                 0.8790                 1.2040

                     46                     47                     48
                      A                      A                      A
 Frequencies --   1033.6497              1046.5341              1079.3337
 Red. masses --      2.2373                 2.3198                 3.4160
 Frc consts  --      1.4084                 1.4969                 2.3447
 IR Inten    --      0.4297                 0.6440                 0.9509

                     49                     50                     51
                      A                      A                      A
 Frequencies --   1081.0505              1097.0954              1123.4166
 Red. masses --      2.1792                 2.1242                 2.6188
 Frc consts  --      1.5005                 1.5064                 1.9473
 IR Inten    --      2.2420                 1.7567                 2.8279

                     52                     53                     54
                      A                      A                      A
 Frequencies --   1149.6259              1196.1553              1199.3218
 Red. masses --      2.1135                 1.2550                 1.2621
 Frc consts  --      1.6458                 1.0580                 1.0696
 IR Inten    --      3.9054                 0.3169                 0.0761

                     55                     56                     57
                      A                      A                      A
 Frequencies --   1202.6274              1206.7522              1215.4074
 Red. masses --      1.3119                 1.2588                 1.5371
 Frc consts  --      1.1180                 1.0801                 1.3378
 IR Inten    --      1.2303                 3.3019                 0.0352

                     58                     59                     60
                      A                      A                      A
 Frequencies --   1221.2704              1237.8237              1254.5888
 Red. masses --      1.8150                 1.6914                 1.3057
 Frc consts  --      1.5950                 1.5269                 1.2109
 IR Inten    --      1.6432                 2.1737                 2.8012

                     61                     62                     63
                      A                      A                      A
 Frequencies --   1260.1733              1270.0508              1309.2872
 Red. masses --      2.1774                 1.3890                 1.7352
 Frc consts  --      2.0372                 1.3201                 1.7525
 IR Inten    --      1.8472                 0.7807                 1.0102

                     64                     65                     66
                      A                      A                      A
 Frequencies --   1321.1203              1334.2720              1352.2614
 Red. masses --      1.7492                 1.7402                 2.1578
 Frc consts  --      1.7988                 1.8253                 2.3248
 IR Inten    --      1.9334                 1.1342                 1.8189

                     67                     68                     69
                      A                      A                      A
 Frequencies --   1365.2690              1378.1395              1382.4727
 Red. masses --      2.2797                 1.5134                 1.3325
 Frc consts  --      2.5036                 1.6935                 1.5005
 IR Inten    --      1.4182                 3.5090                 4.2619

                     70                     71                     72
                      A                      A                      A
 Frequencies --   1394.1392              1411.7305              1433.7558
 Red. masses --      1.4626                 1.4559                 1.3762
 Frc consts  --      1.6749                 1.7095                 1.6668
 IR Inten    --      0.6705                 7.6382                 2.4806

                     73                     74                     75
                      A                      A                      A
 Frequencies --   1495.9347              1499.7646              1502.0333
 Red. masses --      1.9853                 1.1584                 1.1462
 Frc consts  --      2.6176                 1.5352                 1.5236
 IR Inten    --      4.8866                 9.6183                 3.8303

                     76                     77                     78
                      A                      A                      A
 Frequencies --   1504.6000              1528.7685              1537.5448
 Red. masses --      2.1940                 1.2472                 1.2863
 Frc consts  --      2.9263                 1.7174                 1.7917
 IR Inten    --      4.4615                15.8174                11.2600

                     79                     80                     81
                      A                      A                      A
 Frequencies --   1541.6608              1547.2566              1637.3488
 Red. masses --      1.6731                 2.0681                 5.7527
 Frc consts  --      2.3429                 2.9171                 9.0867
 IR Inten    --      9.6726                13.5106                 0.9762

                     82                     83                     84
                      A                      A                      A
 Frequencies --   1643.3551              1663.7671              1669.2566
 Red. masses --      5.8412                 5.5872                 5.8678
 Frc consts  --      9.2942                 9.1124                 9.6333
 IR Inten    --      0.2990                 1.0948                 0.9687

                     85                     86                     87
                      A                      A                      A
 Frequencies --   2368.8245              3029.7258              3046.2990
 Red. masses --     12.5954                 1.0628                 1.0701
 Frc consts  --     41.6417                 5.7477                 5.8507
 IR Inten    --      7.2137                24.8728                13.3232

                     88                     89                     90
                      A                      A                      A
 Frequencies --   3063.8450              3065.1935              3068.7157
 Red. masses --      1.0780                 1.0930                 1.0619
 Frc consts  --      5.9623                 6.0506                 5.8920
 IR Inten    --      2.6944                26.3961                 9.5632

                     91                     92                     93
                      A                      A                      A
 Frequencies --   3074.8167              3091.3677              3108.0336
 Red. masses --      1.0632                 1.1003                 1.1018
 Frc consts  --      5.9225                 6.1952                 6.2706
 IR Inten    --     17.6150                32.5831                 7.5440

                     94                     95                     96
                      A                      A                      A
 Frequencies --   3117.8537              3171.1615              3176.8289
 Red. masses --      1.1032                 1.0874                 1.0865
 Frc consts  --      6.3186                 6.4426                 6.4605
 IR Inten    --     18.3040                10.7724                 7.8568

                     97                     98                     99
                      A                      A                      A
 Frequencies --   3187.1346              3188.1524              3199.7487
 Red. masses --      1.0876                 1.0871                 1.0917
 Frc consts  --      6.5092                 6.5101                 6.5855
 IR Inten    --      5.8751                 6.8124                30.6186

                    100                    101                    102
                      A                      A                      A
 Frequencies --   3203.2173              3210.4151              3213.8718
 Red. masses --      1.0919                 1.0970                 1.0954
 Frc consts  --      6.6007                 6.6619                 6.6662
 IR Inten    --     35.5902                27.9808                24.2179

 - Thermochemistry -
 -------------------
 Temperature   298.150 Kelvin.  Pressure   1.00000 Atm.
 Atom     1 has atomic number  6 and mass  12.00000

 Molecular mass:   247.13610 amu.
 Principal axes and moments of inertia in atomic units:
                           1         2         3
     Eigenvalues --  4057.316735205.582246650.70305
           X            0.99959   0.02049   0.02015
           Y           -0.01940   0.99842  -0.05282
           Z           -0.02120   0.05241   0.99840
 This molecule is an asymmetric top.
 Rotational symmetry number  1.
 Warning -- assumption of classical behavior for rotation
           may cause significant error
 Rotational temperatures (Kelvin)      0.02135     0.01664     0.01302
 Rotational constants (GHZ):           0.44481     0.34669     0.27136
 Zero-point vibrational energy     798276.4 (Joules/Mol)
                                  190.79263 (Kcal/Mol)
 Warning -- explicit consideration of  24 degrees of freedom as
           vibrations may cause significant error
 Vibrational temperatures:     44.61    60.03    93.55   125.51   172.90
          (Kelvin)            197.38   230.95   256.80   343.54   421.54
                              441.32   451.78   483.95   533.44   551.89
                              652.48   655.43   672.89   697.04   720.34
                              764.96   823.38   825.37   892.98   914.82
                              930.26  1030.73  1046.05  1088.99  1103.49
                             1129.40  1137.55  1157.01  1218.13  1235.46
                             1262.80  1275.63  1320.21  1332.10  1357.36
                             1368.37  1411.40  1412.10  1448.19  1463.12
                             1487.19  1505.73  1552.92  1555.39  1578.48
                             1616.35  1654.06  1721.00  1725.56  1730.31
                             1736.25  1748.70  1757.14  1780.95  1805.07
                             1813.11  1827.32  1883.77  1900.80  1919.72
                             1945.60  1964.32  1982.84  1989.07  2005.86
                             2031.17  2062.85  2152.32  2157.83  2161.09
                             2164.78  2199.56  2212.18  2218.11  2226.16
                             2355.78  2364.42  2393.79  2401.69  3408.21
                             4359.10  4382.94  4408.19  4410.13  4415.20
                             4423.98  4447.79  4471.77  4485.90  4562.59
                             4570.75  4585.58  4587.04  4603.72  4608.72
                             4619.07  4624.04

 Zero-point correction=                           0.304047 (Hartree/Particle)
 Thermal correction to Energy=                    0.319432
 Thermal correction to Enthalpy=                  0.320376
 Thermal correction to Gibbs Free Energy=         0.260699
 Sum of electronic and zero-point Energies=           -750.677476
 Sum of electronic and thermal Energies=              -750.662092
 Sum of electronic and thermal Enthalpies=            -750.661147
 Sum of electronic and thermal Free Energies=         -750.720825

                     E (Thermal)             CV                S
                      KCal/Mol        Cal/Mol-Kelvin    Cal/Mol-Kelvin
 Total                  200.447             62.063            125.602
 Electronic               0.000              0.000              0.000
 Translational            0.889              2.981             42.415
 Rotational               0.889              2.981             33.307
 Vibrational            198.669             56.101             49.880
 Vibration     1          0.594              1.984              5.764
 Vibration     2          0.594              1.981              5.175
 Vibration     3          0.597              1.971              4.299
 Vibration     4          0.601              1.958              3.721
 Vibration     5          0.609              1.932              3.098
 Vibration     6          0.614              1.916              2.843
 Vibration     7          0.622              1.891              2.544
 Vibration     8          0.629              1.869              2.344
 Vibration     9          0.657              1.781              1.812
 Vibration    10          0.688              1.687              1.457
 Vibration    11          0.697              1.661              1.380
 Vibration    12          0.702              1.647              1.341
 Vibration    13          0.717              1.603              1.229
 Vibration    14          0.743              1.532              1.077
 Vibration    15          0.753              1.505              1.025
 Vibration    16          0.812              1.353              0.785
 Vibration    17          0.814              1.349              0.779
 Vibration    18          0.825              1.322              0.744
 Vibration    19          0.841              1.284              0.698
 Vibration    20          0.856              1.249              0.656
 Vibration    21          0.887              1.180              0.583
 Vibration    22          0.928              1.091              0.500
 Vibration    23          0.930              1.088              0.497
 Vibration    24          0.981              0.988              0.415

 Optimization completed.
    -- Stationary point found.
 Normal termination of Gaussian 16 at Sun Dec 13 12:58:31 2020.

 ----------------------------------------------------------------------
 # B3LYP/6-311++G(d,p) empiricaldispersion=gd3bj scf=xqc pop=npa geom=c
 heck
 ----------------------------------------------------------------------

 --------------------------------------
 CID_10848103_JID_9465_Energie_neutraal
 --------------------------------------
 Structure from the checkpoint file:  "JID_9465.chk"
 Charge =  0 Multiplicity = 1

 SCF Done:  E(RB3LYP) =  -751.171183765     A.U. after   15 cycles
 Normal termination of Gaussian 16 at Sun Dec 13 13:08:03 2020.

 ----------------------------------------------------------------------
 # B3LYP/6-311++G(d,p) empiricaldispersion=gd3bj scf=xqc pop=npa geom=c
 heck
 ----------------------------------------------------------------------

 ------------------------------------
 CID_10848103_JID_9465_Energie_kation
 ------------------------------------
 Structure from the checkpoint file:  "JID_9465.chk"
 Charge =  1 Multiplicity = 2

 SCF Done:  E(UB3LYP) =  -750.873856270     A.U. after   25 cycles
 Normal termination of Gaussian 16 at Sun Dec 13 13:30:05 2020.
 Gaussian 16:  ES64L-G16RevA.03 25-Dec-2016

 ----------------------------------------------------------------------
 # B3LYP/6-311++G(d,p) empiricaldispersion=gd3bj scf=xqc pop=npa geom=c
 heck
 ----------------------------------------------------------------------

 -----------------------------------
 CID_10848103_JID_9465_Energie_anion
 -----------------------------------
 Structure from the checkpoint file:  "JID_9465.chk"
 Charge = -1 Multiplicity = 2

                         Standard orientation:
 ---------------------------------------------------------------------
 Center     Atomic      Atomic             Coordinates (Angstroms)
 Number     Number       Type             X           Y           Z
 ---------------------------------------------------------------------
      1          6           0        1.217482   -0.376279    2.054740
      2          6           0        0.171108   -1.505367    1.911595
      3          6           0       -0.730313   -1.578658    0.680414
      4          6           0       -1.386528   -2.802619    0.489377
      5          6           0       -2.231258   -3.032623   -0.592066
      6          6           0       -2.418779   -2.023059   -1.532073
      7          6           0       -1.770586   -0.802127   -1.361127
      8          6           0       -0.941358   -0.548758   -0.260348
      9          6           0       -0.215198    0.792023   -0.113427
     10          6           0        1.276594    0.544867   -0.286322
     11          6           0        1.961371    0.832287   -1.467863
     12          6           0        3.320207    0.537279   -1.596135
     13          6           0        4.004597   -0.053985   -0.536845
     14          6           0        3.324049   -0.347155    0.646017
     15          6           0        1.965993   -0.055915    0.785111
     16          6           0       -0.754772    1.937180   -0.980233
     17          6           0       -2.179372    2.377523   -0.579794
     18          6           0       -2.241392    2.832991    0.811416
     19          7           0       -2.255805    3.177342    1.919903
     20          1           0        0.733014    0.529626    2.438947
     21          1           0        1.927907   -0.683220    2.830044
     22          1           0       -0.464928   -1.488651    2.807482
     23          1           0        0.710352   -2.459792    1.952634
     24          1           0       -1.221766   -3.596999    1.214264
     25          1           0       -2.725565   -3.993347   -0.704106
     26          1           0       -3.058511   -2.181109   -2.395671
     27          1           0       -1.914113   -0.034224   -2.113728
     28          1           0       -0.368010    1.124744    0.918574
     29          1           0        1.437256    1.287021   -2.302974
     30          1           0        3.838097    0.768780   -2.522672
     31          1           0        5.062090   -0.285432   -0.627555
     32          1           0        3.854972   -0.805775    1.476878
     33          1           0       -0.078557    2.791792   -0.874960
     34          1           0       -0.766361    1.678956   -2.043587
     35          1           0       -2.520504    3.191700   -1.229454
     36          1           0       -2.885817    1.548906   -0.698056
 ---------------------------------------------------------------------

 SCF Done:  E(UB3LYP) =  -751.161339861     A.U. after   33 cycles
 SCF Done:  E(UB3LYP) =  -751.161339861     a.u. after    1 cycles

 The electronic state is 2-A.
 Alpha  occ. eigenvalues --  -14.22100 -10.12157 -10.12086 -10.10021 -10.09779
 Alpha  occ. eigenvalues --  -10.09729 -10.09570 -10.09528 -10.09514 -10.09428
 Alpha  occ. eigenvalues --  -10.09339 -10.08730 -10.08680 -10.08629 -10.08464
 Alpha  occ. eigenvalues --  -10.08433 -10.08392 -10.08285 -10.08182  -0.81944
 Alpha  occ. eigenvalues --   -0.79193  -0.76831  -0.73439  -0.71588  -0.68581
 Alpha  occ. eigenvalues --   -0.67197  -0.65702  -0.63537  -0.60688  -0.56463
 Alpha  occ. eigenvalues --   -0.55391  -0.51389  -0.50877  -0.48566  -0.48082
 Alpha  occ. eigenvalues --   -0.43375  -0.42140  -0.40584  -0.40243  -0.38651
 Alpha  occ. eigenvalues --   -0.37249  -0.36693  -0.35959  -0.35600  -0.35374
 Alpha  occ. eigenvalues --   -0.33655  -0.33145  -0.31476  -0.30793  -0.30103
 Alpha  occ. eigenvalues --   -0.29313  -0.28830  -0.28596  -0.27870  -0.27351
 Alpha  occ. eigenvalues --   -0.26661  -0.25039  -0.24919  -0.24479  -0.24338
 Alpha  occ. eigenvalues --   -0.23439  -0.23150  -0.16887  -0.16336  -0.15943
 Alpha  occ. eigenvalues --   -0.14836   0.03935
 Alpha virt. eigenvalues --    0.05508   0.05987   0.06297   0.06574   0.06949
 Alpha virt. eigenvalues --    0.07649   0.07846   0.08194   0.08296   0.08842
 Alpha virt. eigenvalues --    0.08960   0.09998   0.10418   0.10499   0.11137

  Beta  occ. eigenvalues --  -14.22085 -10.12152 -10.12046 -10.10019 -10.09778
  Beta  occ. eigenvalues --  -10.09724 -10.09564 -10.09511 -10.09499 -10.09428
  Beta  occ. eigenvalues --  -10.09335 -10.08717 -10.08668 -10.08620 -10.08450
  Beta  occ. eigenvalues --  -10.08416 -10.08382 -10.08272 -10.08160  -0.81913
  Beta  occ. eigenvalues --   -0.79174  -0.76808  -0.73401  -0.71566  -0.68533
  Beta  occ. eigenvalues --   -0.67173  -0.65669  -0.63508  -0.60642  -0.56429
  Beta  occ. eigenvalues --   -0.55348  -0.51351  -0.50840  -0.48539  -0.48048
  Beta  occ. eigenvalues --   -0.43321  -0.42107  -0.40533  -0.40216  -0.38605
  Beta  occ. eigenvalues --   -0.37229  -0.36664  -0.35920  -0.35562  -0.35341
  Beta  occ. eigenvalues --   -0.33624  -0.33113  -0.31433  -0.30764  -0.30073
  Beta  occ. eigenvalues --   -0.29287  -0.28802  -0.28566  -0.27846  -0.27322
  Beta  occ. eigenvalues --   -0.26630  -0.25006  -0.24894  -0.24455  -0.24305
  Beta  occ. eigenvalues --   -0.23395  -0.23118  -0.16840  -0.16300  -0.15916
  Beta  occ. eigenvalues --   -0.14809
  Beta virt. eigenvalues --    0.05665   0.06271   0.06468   0.06484   0.06939
  Beta virt. eigenvalues --    0.07510   0.07887   0.08109   0.08343   0.08766
  Beta virt. eigenvalues --    0.09090   0.09262   0.10381   0.10629   0.10849

 Mulliken charges and spin densities:
               1          2
     1  C    0.217576  -0.535647
     2  C    0.172221  -0.826947
     3  C    0.281079   0.402332
     4  C   -0.086348  -0.105109
     5  C    0.247356  -0.687001
     6  C    0.671489  -1.122322
     7  C   -0.869300   0.272097
     8  C    0.343366   0.347867
     9  C    0.067533  -0.181813
    10  C    0.314866  -0.080389
    11  C   -0.340229  -0.026840
    12  C    0.071825  -0.448374
    13  C    0.071100  -0.584842
    14  C   -0.228663   0.057569
    15  C    0.202238   0.324199
    16  C   -0.408562   0.303097
    17  C    0.469942  -0.576124
    18  C    0.301960  -0.500133
    19  N   -0.334745   0.024143
    20  H    0.201755   0.010754
    21  H    0.023051   0.153922
    22  H    0.131214   0.051574
    23  H    0.128272   0.010418
    24  H   -0.111275   0.274685
    25  H   -0.111323   0.259937
    26  H   -0.538222   0.722264
    27  H   -0.177150   0.332295
    28  H    0.067782  -0.060781
    29  H   -0.157712   0.310768
    30  H   -0.232565   0.404144
    31  H   -0.143337   0.295375
    32  H   -0.174662   0.316363
    33  H    0.062884   0.140863
    34  H   -0.511280   0.703657
    35  H   -0.809777   1.036277
    36  H    0.187639  -0.018279
 Sum of Mulliken charges =  -1.00000   1.00000

 Dipole moment (field-independent basis, Debye):
    X=              3.2783    Y=             -3.8375    Z=              4.4956  Tot=              6.7590
 Quadrupole moment (field-independent basis, Debye-Ang):
   XX=           -177.0394   YY=           -173.8195   ZZ=           -164.8859
   XY=              8.1092   XZ=             -3.2281   YZ=             -1.9910

 Summary of Natural Population Analysis:

                                       Natural Population
                Natural  -----------------------------------------------
    Atom  No    Charge         Core      Valence    Rydberg      Total
 -----------------------------------------------------------------------
      C    1   -0.21109      0.99963     2.19783    0.01363     3.21109
      C    2   -0.19304      0.99959     2.18507    0.00837     3.19304
      C    3   -0.01186      0.99946     2.00313    0.00928     3.01186
      C    4   -0.11007      0.99954     2.09560    0.01493     3.11007
      C    5   -0.06945      0.99956     2.06293    0.00696     3.06945
      C    6   -0.11066      0.99957     2.09590    0.01519     3.11066
      C    7   -0.10187      0.99951     2.09263    0.00973     3.10187
      C    8   -0.00613      0.99945     1.99616    0.01053     3.00613
      C    9   -0.13153      0.99953     2.12028    0.01172     3.13153
      C   10   -0.01824      0.99949     2.00252    0.01623     3.01824
      C   11   -0.09830      0.99950     2.08920    0.00960     3.09830
      C   12   -0.09950      0.99956     2.08986    0.01008     3.09950
      C   13   -0.11149      0.99959     2.09853    0.01337     3.11149
      C   14   -0.09189      0.99955     2.08253    0.00981     3.09189
      C   15    0.02933      0.99949     1.96369    0.00750     2.97067
      C   16   -0.18239      0.99962     2.17174    0.01103     3.18239
      C   17   -0.24796      0.99954     2.23896    0.00946     3.24796
      C   18    0.16515      0.99966     1.81884    0.01635     2.83485
      N   19   -0.19056      0.99979     2.67978    0.01099     3.69056
      H   20    0.10315      0.00000     0.39552    0.00133     0.39685
      H   21    0.10310      0.00000     0.39600    0.00090     0.39690
      H   22    0.10437      0.00000     0.39465    0.00098     0.39563
      H   23    0.10128      0.00000     0.39740    0.00132     0.39872
      H   24    0.09667      0.00000     0.40207    0.00126     0.40333
      H   25    0.09663      0.00000     0.40218    0.00120     0.40337
      H   26    0.10303      0.00000     0.39569    0.00128     0.39697
      H   27    0.10411      0.00000     0.39349    0.00240     0.39589
      H   28    0.11140      0.00000     0.38635    0.00225     0.38860
      H   29    0.10480      0.00000     0.39341    0.00179     0.39520
      H   30    0.10128      0.00000     0.39780    0.00092     0.39872
      H   31    0.09976      0.00000     0.39928    0.00096     0.40024
      H   32    0.09519      0.00000     0.40345    0.00136     0.40481
      H   33    0.10781      0.00000     0.39055    0.00164     0.39219
      H   34    0.10773      0.00000     0.38863    0.00364     0.39227
      H   35    0.12752      0.00000     0.36896    0.00352     0.37248
      H   36    0.12425      0.00000     0.37371    0.00203     0.37575
 =======================================================================
   * Total *    0.00054     18.99162    46.76431    0.24353    65.99946

 Normal termination of Gaussian 16 at Sun Dec 13 14:00:47 2020.
