 Gaussian 16, Revision A.03,

 -----------------------------------------------------------
 # opt freq B3LYP/6-31G(d) empiricaldispersion=gd3bj scf=xqc
 -----------------------------------------------------------

 ------------------------------
 CID_65565109_JID_6353_neutraal
 ------------------------------
 Symbolic Z-matrix:
 Charge =  0 Multiplicity = 1

 SCF Done:  E(RB3LYP) =  -1479.08258611     A.U. after   15 cycles
 SCF Done:  E(RB3LYP) =  -1479.08979327     A.U. after   13 cycles
 SCF Done:  E(RB3LYP) =  -1479.09130364     A.U. after   13 cycles
 SCF Done:  E(RB3LYP) =  -1479.09246087     A.U. after   13 cycles
 SCF Done:  E(RB3LYP) =  -1479.09290648     A.U. after   13 cycles
 SCF Done:  E(RB3LYP) =  -1479.09310228     A.U. after   13 cycles
 SCF Done:  E(RB3LYP) =  -1479.09326197     A.U. after   12 cycles
 SCF Done:  E(RB3LYP) =  -1479.09325652     A.U. after   11 cycles
 SCF Done:  E(RB3LYP) =  -1479.09322318     A.U. after   12 cycles
 SCF Done:  E(RB3LYP) =  -1479.09329923     A.U. after   12 cycles
 SCF Done:  E(RB3LYP) =  -1479.09334577     A.U. after   10 cycles
 SCF Done:  E(RB3LYP) =  -1479.09334634     A.U. after    9 cycles
 SCF Done:  E(RB3LYP) =  -1479.09334645     A.U. after    8 cycles
 SCF Done:  E(RB3LYP) =  -1479.09334667     A.U. after    8 cycles
 SCF Done:  E(RB3LYP) =  -1479.09334673     A.U. after    8 cycles
 Optimization completed.
    -- Stationary point found.
 Normal termination of Gaussian 16 at Thu Dec 10 22:26:37 2020.

 --------------------------------------------------------------------
 #N Geom=AllCheck Guess=TCheck SCRF=Check GenChk RB3LYP/6-31G(d) Freq
 --------------------------------------------------------------------

 Structure from the checkpoint file:  "JID_6353.chk"
 ------------------------------
 CID_65565109_JID_6353_neutraal
 ------------------------------
 Charge =  0 Multiplicity = 1

 SCF Done:  E(RB3LYP) =  -1479.09334673     A.U. after    1 cycles

  Exact polarizability: 154.996  -2.878 147.676  14.839   8.507 120.758
 Approx polarizability: 224.213 -14.473 261.044  28.045  35.342 203.249

                      1                      2                      3
                      A                      A                      A
 Frequencies --     24.9818                36.6212                48.6150
 Red. masses --      5.5488                 5.5673                 5.3727
 Frc consts  --      0.0020                 0.0044                 0.0075
 IR Inten    --      0.1887                 2.6374                 4.1506

                      4                      5                      6
                      A                      A                      A
 Frequencies --     66.7855                92.8910               103.7694
 Red. masses --      6.5835                 5.3368                 2.5465
 Frc consts  --      0.0173                 0.0271                 0.0162
 IR Inten    --      3.6429                 4.4875                 0.2740

                      7                      8                      9
                      A                      A                      A
 Frequencies --    121.0559               166.5015               192.6529
 Red. masses --      4.2855                 4.3023                 3.1628
 Frc consts  --      0.0370                 0.0703                 0.0692
 IR Inten    --      2.8234                 1.1936                 1.9577

                     10                     11                     12
                      A                      A                      A
 Frequencies --    199.6922               209.4292               271.1982
 Red. masses --      3.3484                 2.2784                 7.1910
 Frc consts  --      0.0787                 0.0589                 0.3116
 IR Inten    --      8.9343                 9.6255                 3.3309

                     13                     14                     15
                      A                      A                      A
 Frequencies --    273.9916               295.6308               306.8828
 Red. masses --      2.3834                 5.0814                 4.0167
 Frc consts  --      0.1054                 0.2617                 0.2229
 IR Inten    --      2.2917                 3.2981                 8.0814

                     16                     17                     18
                      A                      A                      A
 Frequencies --    310.4302               350.3408               439.5908
 Red. masses --      2.6290                 6.1069                 5.1250
 Frc consts  --      0.1493                 0.4416                 0.5835
 IR Inten    --      2.7228                 0.3826                10.4347

                     19                     20                     21
                      A                      A                      A
 Frequencies --    450.6729               492.9702               509.3016
 Red. masses --      3.8033                 4.1059                 2.4577
 Frc consts  --      0.4551                 0.5879                 0.3756
 IR Inten    --      3.3962                 8.7808                 8.5009

                     22                     23                     24
                      A                      A                      A
 Frequencies --    517.7216               527.3485               570.1610
 Red. masses --      1.8961                 2.1493                 1.3148
 Frc consts  --      0.2994                 0.3522                 0.2518
 IR Inten    --     79.6231                47.7369               335.0559

                     25                     26                     27
                      A                      A                      A
 Frequencies --    592.7295               615.5926               636.6194
 Red. masses --      4.0153                 2.6933                 2.4870
 Frc consts  --      0.8312                 0.6013                 0.5939
 IR Inten    --      8.5892               140.4038                26.7259

                     28                     29                     30
                      A                      A                      A
 Frequencies --    644.7280               689.6525               696.6555
 Red. masses --      1.4847                 3.0434                 3.2849
 Frc consts  --      0.3636                 0.8529                 0.9393
 IR Inten    --      6.7313                43.4060                 8.2094

                     31                     32                     33
                      A                      A                      A
 Frequencies --    713.1295               783.1331               803.6794
 Red. masses --      2.7788                 2.9383                 1.5899
 Frc consts  --      0.8326                 1.0617                 0.6050
 IR Inten    --      6.8782                24.9656                46.4874

                     34                     35                     36
                      A                      A                      A
 Frequencies --    822.5299               857.6238               872.6624
 Red. masses --      1.5094                 2.9329                 1.3013
 Frc consts  --      0.6017                 1.2710                 0.5839
 IR Inten    --      8.9846                23.8584                26.6033

                     37                     38                     39
                      A                      A                      A
 Frequencies --    944.6710               958.2863              1000.6526
 Red. masses --      2.0219                 5.9167                 2.0366
 Frc consts  --      1.0631                 3.2013                 1.2015
 IR Inten    --      5.3665                14.7316                15.8885

                     40                     41                     42
                      A                      A                      A
 Frequencies --   1010.4992              1019.6575              1057.2901
 Red. masses --      2.1385                 2.5776                 2.3930
 Frc consts  --      1.2865                 1.5789                 1.5761
 IR Inten    --     48.5144                27.4539                14.9965

                     43                     44                     45
                      A                      A                      A
 Frequencies --   1071.0143              1089.5577              1104.5362
 Red. masses --      2.1634                 3.6951                 6.1381
 Frc consts  --      1.4621                 2.5845                 4.4121
 IR Inten    --      4.4776                33.4638               101.8649

                     46                     47                     48
                      A                      A                      A
 Frequencies --   1122.2122              1151.6263              1172.7091
 Red. masses --      1.5415                 2.6431                 1.8001
 Frc consts  --      1.1438                 2.0653                 1.4586
 IR Inten    --     18.4713                 2.6125                15.2892

                     49                     50                     51
                      A                      A                      A
 Frequencies --   1234.4797              1240.5213              1284.8161
 Red. masses --      1.4449                 1.4258                 1.3469
 Frc consts  --      1.2974                 1.2928                 1.3100
 IR Inten    --      8.9579                23.0748                10.5968

                     52                     53                     54
                      A                      A                      A
 Frequencies --   1292.3667              1304.2085              1322.2036
 Red. masses --      1.4006                 2.4836                 1.9586
 Frc consts  --      1.3783                 2.4890                 2.0174
 IR Inten    --     14.9208                74.2778                43.3264

                     55                     56                     57
                      A                      A                      A
 Frequencies --   1342.6504              1356.3671              1373.4959
 Red. masses --      2.1404                 2.0952                 1.4541
 Frc consts  --      2.2734                 2.2711                 1.6162
 IR Inten    --     17.3354                77.9192                21.2760

                     58                     59                     60
                      A                      A                      A
 Frequencies --   1392.2239              1407.0614              1437.8339
 Red. masses --      1.5386                 2.3782                 1.9264
 Frc consts  --      1.7571                 2.7741                 2.3465
 IR Inten    --     20.5238                 7.1659                 7.2196

                     61                     62                     63
                      A                      A                      A
 Frequencies --   1440.4419              1455.4026              1476.5761
 Red. masses --      1.8230                 2.4370                 1.5014
 Frc consts  --      2.2286                 3.0413                 1.9286
 IR Inten    --      6.8773               148.9733                11.9942

                     64                     65                     66
                      A                      A                      A
 Frequencies --   1504.8850              1517.9950              1526.1911
 Red. masses --      1.0908                 2.1540                 1.0460
 Frc consts  --      1.4555                 2.9245                 1.4355
 IR Inten    --     14.4194                11.5420                 4.4573

                     67                     68                     69
                      A                      A                      A
 Frequencies --   1538.5760              1544.5490              1629.0096
 Red. masses --      1.0508                 1.1044                 4.3277
 Frc consts  --      1.4656                 1.5524                 6.7664
 IR Inten    --      2.7302                 3.7589                10.8019

                     70                     71                     72
                      A                      A                      A
 Frequencies --   1677.5356              3043.7472              3052.7822
 Red. masses --      1.2369                 1.0614                 1.0407
 Frc consts  --      2.0508                 5.7935                 5.7146
 IR Inten    --    150.7701                24.8269                26.2430

                     73                     74                     75
                      A                      A                      A
 Frequencies --   3055.7099              3080.9872              3103.2714
 Red. masses --      1.0808                 1.1029                 1.0630
 Frc consts  --      5.9458                 6.1681                 6.0317
 IR Inten    --      5.0801                 8.3670                 4.3105

                     76                     77                     78
                      A                      A                      A
 Frequencies --   3117.5455              3139.3087              3157.4946
 Red. masses --      1.0989                 1.1001                 1.1034
 Frc consts  --      6.2927                 6.3879                 6.4813
 IR Inten    --     17.8731                17.0626                10.8956

                     79                     80                     81
                      A                      A                      A
 Frequencies --   3251.3817              3299.4857              3512.7403
 Red. masses --      1.0961                 1.0985                 1.0496
 Frc consts  --      6.8269                 7.0462                 7.6307
 IR Inten    --      3.8098                 0.2007                95.7276

                     82                     83                     84
                      A                      A                      A
 Frequencies --   3551.7181              3656.1913              3668.3513
 Red. masses --      1.0753                 1.1003                 1.0818
 Frc consts  --      7.9923                 8.6663                 8.5767
 IR Inten    --     21.5372                64.9885                80.3013

 - Thermochemistry -
 -------------------
 Temperature   298.150 Kelvin.  Pressure   1.00000 Atm.
 Atom     1 has atomic number  6 and mass  12.00000

 Molecular mass:   262.05582 amu.
 Principal axes and moments of inertia in atomic units:
                           1         2         3
     Eigenvalues --  2754.298245629.210806421.38375
           X            0.99994   0.00389  -0.01046
           Y           -0.00481   0.99598  -0.08944
           Z            0.01007   0.08948   0.99594
 This molecule is an asymmetric top.
 Rotational symmetry number  1.
 Warning -- assumption of classical behavior for rotation
           may cause significant error
 Rotational temperatures (Kelvin)      0.03145     0.01539     0.01349
 Rotational constants (GHZ):           0.65525     0.32060     0.28105
 Zero-point vibrational energy     628044.2 (Joules/Mol)
                                  150.10617 (Kcal/Mol)
 Warning -- explicit consideration of  26 degrees of freedom as
           vibrations may cause significant error
 Vibrational temperatures:     35.94    52.69    69.95    96.09   133.65
          (Kelvin)            149.30   174.17   239.56   277.18   287.31
                              301.32   390.19   394.21   425.35   441.54
                              446.64   504.06   632.47   648.42   709.27
                              732.77   744.89   758.74   820.33   852.81
                              885.70   915.95   927.62   992.26  1002.33
                             1026.03  1126.75  1156.32  1183.44  1233.93
                             1255.57  1359.17  1378.76  1439.72  1453.88
                             1467.06  1521.20  1540.95  1567.63  1589.18
                             1614.61  1656.93  1687.27  1776.14  1784.83
                             1848.56  1859.43  1876.47  1902.36  1931.77
                             1951.51  1976.15  2003.10  2024.45  2068.72
                             2072.47  2094.00  2124.46  2165.19  2184.06
                             2195.85  2213.67  2222.26  2343.78  2413.60
                             4379.27  4392.27  4396.49  4432.85  4464.92
                             4485.45  4516.77  4542.93  4678.01  4747.22
                             5054.05  5110.13  5260.44  5277.94

 Zero-point correction=                           0.239209 (Hartree/Particle)
 Thermal correction to Energy=                    0.255809
 Thermal correction to Enthalpy=                  0.256753
 Thermal correction to Gibbs Free Energy=         0.193460
 Sum of electronic and zero-point Energies=          -1478.854137
 Sum of electronic and thermal Energies=             -1478.837538
 Sum of electronic and thermal Enthalpies=           -1478.836594
 Sum of electronic and thermal Free Energies=        -1478.899887

                     E (Thermal)             CV                S
                      KCal/Mol        Cal/Mol-Kelvin    Cal/Mol-Kelvin
 Total                  160.522             61.524            133.211
 Electronic               0.000              0.000              0.000
 Translational            0.889              2.981             42.590
 Rotational               0.889              2.981             32.965
 Vibrational            158.745             55.562             57.656
 Vibration     1          0.593              1.985              6.193
 Vibration     2          0.594              1.982              5.434
 Vibration     3          0.595              1.978              4.873
 Vibration     4          0.598              1.970              4.246
 Vibration     5          0.602              1.954              3.598
 Vibration     6          0.605              1.946              3.382
 Vibration     7          0.609              1.932              3.083
 Vibration     8          0.624              1.884              2.475
 Vibration     9          0.635              1.850              2.202
 Vibration    10          0.638              1.840              2.136
 Vibration    11          0.642              1.826              2.049
 Vibration    12          0.675              1.726              1.589
 Vibration    13          0.676              1.721              1.571
 Vibration    14          0.690              1.682              1.442
 Vibration    15          0.697              1.661              1.379
 Vibration    16          0.699              1.654              1.360
 Vibration    17          0.727              1.575              1.165
 Vibration    18          0.800              1.384              0.828
 Vibration    19          0.809              1.359              0.794
 Vibration    20          0.849              1.266              0.676
 Vibration    21          0.864              1.229              0.635
 Vibration    22          0.873              1.211              0.615
 Vibration    23          0.882              1.189              0.593
 Vibration    24          0.926              1.096              0.504
 Vibration    25          0.950              1.047              0.462
 Vibration    26          0.975              0.999              0.424

 Optimization completed.
    -- Stationary point found.
 Normal termination of Gaussian 16 at Thu Dec 10 22:38:32 2020.

 ----------------------------------------------------------------------
 # B3LYP/6-311++G(d,p) empiricaldispersion=gd3bj scf=xqc pop=npa geom=c
 heck
 ----------------------------------------------------------------------

 --------------------------------------
 CID_65565109_JID_6353_Energie_neutraal
 --------------------------------------
 Structure from the checkpoint file:  "JID_6353.chk"
 Charge =  0 Multiplicity = 1

 SCF Done:  E(RB3LYP) =  -1479.35169719     A.U. after   16 cycles
 Normal termination of Gaussian 16 at Thu Dec 10 22:44:45 2020.

 ----------------------------------------------------------------------
 # B3LYP/6-311++G(d,p) empiricaldispersion=gd3bj scf=xqc pop=npa geom=c
 heck
 ----------------------------------------------------------------------

 ------------------------------------
 CID_65565109_JID_6353_Energie_kation
 ------------------------------------
 Structure from the checkpoint file:  "JID_6353.chk"
 Charge =  1 Multiplicity = 2

 SCF Done:  E(UB3LYP) =  -1479.04797586     A.U. after   33 cycles
 SCF Done:  E(UB3LYP) =  -1479.04797586     a.u. after    2 cycles
 Normal termination of Gaussian 16 at Thu Dec 10 23:24:52 2020.
 Gaussian 16:  ES64L-G16RevA.03 25-Dec-2016

 ----------------------------------------------------------------------
 # B3LYP/6-311++G(d,p) empiricaldispersion=gd3bj scf=xqc pop=npa geom=c
 heck
 ----------------------------------------------------------------------

 -----------------------------------
 CID_65565109_JID_6353_Energie_anion
 -----------------------------------
 Structure from the checkpoint file:  "JID_6353.chk"
 Charge = -1 Multiplicity = 2

                         Standard orientation:
 ---------------------------------------------------------------------
 Center     Atomic      Atomic             Coordinates (Angstroms)
 Number     Number       Type             X           Y           Z
 ---------------------------------------------------------------------
      1          6           0        1.313755    2.312747   -2.030238
      2          6           0        0.531815    1.278512   -1.215650
      3          6           0        1.402251    0.077492   -0.848477
      4          6           0        2.441253    0.286575    0.251132
      5         16           0        2.403799    1.544250    1.339759
      6          7           0        3.406429   -0.650623    0.256950
      7         16           0        0.400936   -1.440745   -0.449454
      8          8           0       -0.707509   -1.482677   -1.398778
      9          8           0        1.370768   -2.550183   -0.382974
     10          7           0       -0.195737   -1.328832    1.112321
     11          6           0       -0.949231   -0.158544    1.622872
     12          6           0       -2.191282    0.145485    0.850015
     13          6           0       -3.109968   -0.734245    0.303914
     14          7           0       -4.067652    0.031557   -0.272400
     15          7           0       -3.847406    1.359597   -0.146689
     16          6           0       -2.705035    1.427552    0.535819
     17          1           0        2.153286    2.716513   -1.457174
     18          1           0        0.659948    3.146667   -2.304807
     19          1           0        1.703698    1.873923   -2.956599
     20          1           0        0.142460    1.741536   -0.307345
     21          1           0       -0.320918    0.911553   -1.792523
     22          1           0        1.924401   -0.274224   -1.748055
     23          1           0        3.244691   -1.534198   -0.219687
     24          1           0        4.080628   -0.630717    1.011657
     25          1           0        0.533627   -1.638561    1.749251
     26          1           0       -1.191107   -0.435056    2.656749
     27          1           0       -0.312355    0.731907    1.675584
     28          1           0       -3.116755   -1.811761    0.247911
     29          1           0       -4.869783   -0.279432   -0.799124
     30          1           0       -2.284433    2.393326    0.785712
 ---------------------------------------------------------------------

 SCF Done:  E(UB3LYP) =  -1479.36766550     A.U. after   30 cycles

 The electronic state is 2-A.
 Alpha  occ. eigenvalues --  -88.92769 -88.63288 -18.99439 -18.99297 -14.29749
 Alpha  occ. eigenvalues --  -14.23883 -14.22941 -14.18098 -10.11316 -10.11088
 Alpha  occ. eigenvalues --  -10.09569 -10.08376 -10.07778 -10.06762 -10.05124
 Alpha  occ. eigenvalues --  -10.04679  -7.99156  -7.72050  -5.95421  -5.95395
 Alpha  occ. eigenvalues --   -5.95166  -5.68383  -5.67942  -5.67654  -0.99620
 Alpha  occ. eigenvalues --   -0.95654  -0.88799  -0.81230  -0.79023  -0.72970
 Alpha  occ. eigenvalues --   -0.69994  -0.68565  -0.61555  -0.60032  -0.56877
 Alpha  occ. eigenvalues --   -0.52330  -0.51082  -0.49457  -0.47507  -0.45281
 Alpha  occ. eigenvalues --   -0.42744  -0.40375  -0.39134  -0.38480  -0.37197
 Alpha  occ. eigenvalues --   -0.35417  -0.35138  -0.34897  -0.33161  -0.32715
 Alpha  occ. eigenvalues --   -0.31046  -0.30058  -0.29677  -0.29499  -0.26479
 Alpha  occ. eigenvalues --   -0.23766  -0.23340  -0.22678  -0.22440  -0.20747
 Alpha  occ. eigenvalues --   -0.20665  -0.20124  -0.18856  -0.17613  -0.17108
 Alpha  occ. eigenvalues --   -0.16261  -0.14415  -0.08743  -0.06234   0.04140
 Alpha virt. eigenvalues --    0.06344   0.08047   0.08887   0.09598   0.09845
 Alpha virt. eigenvalues --    0.10397   0.11117   0.11729   0.12076   0.13046
 Alpha virt. eigenvalues --    0.13191   0.14121   0.14339   0.14784   0.15196

  Beta  occ. eigenvalues --  -88.92692 -88.63239 -18.99430 -18.99208 -14.29745
  Beta  occ. eigenvalues --  -14.23884 -14.22918 -14.17910 -10.11309 -10.11076
  Beta  occ. eigenvalues --  -10.09567 -10.08390 -10.07778 -10.05942 -10.05120
  Beta  occ. eigenvalues --  -10.04680  -7.99067  -7.72006  -5.95357  -5.95337
  Beta  occ. eigenvalues --   -5.95024  -5.68385  -5.67757  -5.67629  -0.99449
  Beta  occ. eigenvalues --   -0.95650  -0.88655  -0.81163  -0.78279  -0.72965
  Beta  occ. eigenvalues --   -0.69969  -0.68383  -0.61417  -0.59749  -0.56281
  Beta  occ. eigenvalues --   -0.52269  -0.51023  -0.49315  -0.47344  -0.45164
  Beta  occ. eigenvalues --   -0.42315  -0.40203  -0.38973  -0.38200  -0.37081
  Beta  occ. eigenvalues --   -0.35358  -0.35051  -0.34774  -0.33053  -0.32640
  Beta  occ. eigenvalues --   -0.30999  -0.30027  -0.29455  -0.29307  -0.26385
  Beta  occ. eigenvalues --   -0.23699  -0.22828  -0.22461  -0.21044  -0.20684
  Beta  occ. eigenvalues --   -0.20427  -0.19752  -0.18453  -0.17344  -0.17056
  Beta  occ. eigenvalues --   -0.16021  -0.14363  -0.07225  -0.06079
  Beta virt. eigenvalues --    0.06301   0.08027   0.08818   0.09513   0.09829
  Beta virt. eigenvalues --    0.10342   0.10923   0.11071   0.11937   0.12580
  Beta virt. eigenvalues --    0.13035   0.13170   0.14073   0.14349   0.14768

 Mulliken charges and spin densities:
               1          2
     1  C   -0.719001   0.008429
     2  C   -0.037759   0.030010
     3  C   -0.248755  -0.121048
     4  C   -0.175914   0.295526
     5  S   -0.758184   0.265869
     6  N   -0.294063   0.171197
     7  S    0.655482   0.025795
     8  O   -0.145166   0.005019
     9  O   -0.264510   0.027172
    10  N   -0.268115   0.041229
    11  C   -0.137671  -0.418834
    12  C   -0.083198   0.096884
    13  C   -0.054744  -0.087986
    14  N   -0.028838   0.003041
    15  N   -0.130620   0.000381
    16  C   -0.363694   0.143193
    17  H    0.140539   0.013540
    18  H    0.119002   0.000726
    19  H    0.112881  -0.004409
    20  H    0.044077  -0.021171
    21  H    0.140308   0.009027
    22  H    0.213175   0.060308
    23  H    0.249400  -0.000457
    24  H    0.209242   0.002382
    25  H    0.109748   0.197793
    26  H   -0.008511   0.204636
    27  H    0.168503  -0.063250
    28  H    0.122719   0.061606
    29  H    0.270325   0.034958
    30  H    0.163340   0.018433
 Sum of Mulliken charges =  -1.00000   1.00000

 Dipole moment (field-independent basis, Debye):
    X=             -5.6600    Y=             -2.0702    Z=             -1.7321  Tot=              6.2707
 Quadrupole moment (field-independent basis, Debye-Ang):
   XX=           -144.8984   YY=           -142.0820   ZZ=           -130.0038
   XY=             -1.1046   XZ=             -7.2075   YZ=             -7.6906

 Summary of Natural Population Analysis:

                                       Natural Population
                Natural  -----------------------------------------------
    Atom  No    Charge         Core      Valence    Rydberg      Total
 -----------------------------------------------------------------------
      C    1   -0.28301      0.99966     2.27909    0.00426     3.28301
      C    2   -0.20784      0.99961     2.19796    0.01027     3.20784
      C    3   -0.21331      0.99948     2.19735    0.01648     3.21331
      C    4    0.16732      0.99962     1.81147    0.02159     2.83268
      S    5   -0.14686      4.99954     3.13219    0.01513     8.14686
      N    6   -0.36634      0.99966     2.85520    0.01149     3.86634
      S    7    1.12014      4.99924     1.78275    0.09787     6.87986
      O    8   -0.46334      0.99990     3.45710    0.00634     4.46334
      O    9   -0.48373      0.99991     3.47777    0.00605     4.48373
      N   10   -0.43962      0.99974     2.92793    0.01196     3.93962
      C   11   -0.10509      0.99957     2.09333    0.01219     3.10509
      C   12   -0.08317      0.99952     2.07273    0.01092     3.08317
      C   13    0.00431      0.99953     1.98533    0.01082     2.99569
      N   14   -0.16962      0.99970     2.65806    0.01187     3.66962
      N   15   -0.16254      0.99975     2.64820    0.01459     3.66254
      C   16   -0.00808      0.99959     1.99442    0.01407     3.00808
      H   17    0.11034      0.00000     0.38872    0.00094     0.38966
      H   18    0.09348      0.00000     0.40580    0.00072     0.40652
      H   19    0.08982      0.00000     0.40930    0.00088     0.41018
      H   20    0.10869      0.00000     0.38963    0.00168     0.39131
      H   21    0.10606      0.00000     0.39288    0.00106     0.39394
      H   22    0.11543      0.00000     0.38327    0.00130     0.38457
      H   23    0.19795      0.00000     0.30081    0.00124     0.30205
      H   24    0.19006      0.00000     0.30863    0.00130     0.30994
      H   25    0.20390      0.00000     0.29369    0.00240     0.29610
      H   26    0.10210      0.00000     0.39688    0.00102     0.39790
      H   27    0.11573      0.00000     0.38255    0.00172     0.38427
      H   28    0.11053      0.00000     0.38825    0.00122     0.38947
      H   29    0.19551      0.00000     0.30278    0.00171     0.30449
      H   30    0.10116      0.00000     0.39770    0.00114     0.39884
 =======================================================================
   * Total *   -0.00000     23.99401    44.71177    0.29423    69.00000

 Normal termination of Gaussian 16 at Thu Dec 10 23:40:27 2020.
