 Gaussian 16, Revision A.03,

 -----------------------------------------------------------
 # opt freq B3LYP/6-31G(d) empiricaldispersion=gd3bj scf=xqc
 -----------------------------------------------------------

 -------------------------------
 CID_136272030_JID_1521_neutraal
 -------------------------------
 Symbolic Z-matrix:
 Charge =  0 Multiplicity = 1

 SCF Done:  E(RB3LYP) =  -530.128234785     A.U. after   14 cycles
 SCF Done:  E(RB3LYP) =  -530.135638819     A.U. after   13 cycles
 SCF Done:  E(RB3LYP) =  -530.136259756     A.U. after   11 cycles
 SCF Done:  E(RB3LYP) =  -530.136180620     A.U. after   11 cycles
 SCF Done:  E(RB3LYP) =  -530.136648297     A.U. after   12 cycles
 SCF Done:  E(RB3LYP) =  -530.136856933     A.U. after   11 cycles
 SCF Done:  E(RB3LYP) =  -530.136871068     A.U. after   10 cycles
 SCF Done:  E(RB3LYP) =  -530.136875083     A.U. after    8 cycles
 SCF Done:  E(RB3LYP) =  -530.136877533     A.U. after    9 cycles
 SCF Done:  E(RB3LYP) =  -530.136879020     A.U. after    8 cycles
 SCF Done:  E(RB3LYP) =  -530.136879909     A.U. after    8 cycles
 SCF Done:  E(RB3LYP) =  -530.136880149     A.U. after    7 cycles
 Optimization completed.
    -- Stationary point found.
 Normal termination of Gaussian 16 at Tue Dec  8 20:18:05 2020.

 --------------------------------------------------------------------
 #N Geom=AllCheck Guess=TCheck SCRF=Check GenChk RB3LYP/6-31G(d) Freq
 --------------------------------------------------------------------

 Structure from the checkpoint file:  "JID_1521.chk"
 -------------------------------
 CID_136272030_JID_1521_neutraal
 -------------------------------
 Charge =  0 Multiplicity = 1

 SCF Done:  E(RB3LYP) =  -530.136880149     A.U. after    1 cycles

  Exact polarizability: 113.058  -0.204  84.700   2.669  -6.371  67.406
 Approx polarizability: 147.778  -0.863 132.981   7.077 -19.281 102.866

                      1                      2                      3
                      A                      A                      A
 Frequencies --     61.9659                89.2692                92.0040
 Red. masses --      5.2568                 3.9214                 2.4511
 Frc consts  --      0.0119                 0.0184                 0.0122
 IR Inten    --      0.8285                 0.1518                 1.1754

                      4                      5                      6
                      A                      A                      A
 Frequencies --    153.5772               181.4734               192.0631
 Red. masses --      3.7714                 1.9252                 4.7566
 Frc consts  --      0.0524                 0.0374                 0.1034
 IR Inten    --      2.7624                 0.0671                10.1782

                      7                      8                      9
                      A                      A                      A
 Frequencies --    258.1625               276.8824               312.4405
 Red. masses --      1.5026                 2.1308                 1.7008
 Frc consts  --      0.0590                 0.0962                 0.0978
 IR Inten    --      1.1356                 1.1778                15.2698

                     10                     11                     12
                      A                      A                      A
 Frequencies --    324.5556               349.4306               364.7754
 Red. masses --      1.9914                 3.4743                 2.1102
 Frc consts  --      0.1236                 0.2499                 0.1654
 IR Inten    --     29.6343                 2.1292                13.5139

                     13                     14                     15
                      A                      A                      A
 Frequencies --    481.2671               498.1660               597.1802
 Red. masses --      1.8551                 4.9645                 2.8447
 Frc consts  --      0.2532                 0.7259                 0.5977
 IR Inten    --     70.1269                24.7065                 6.7319

                     16                     17                     18
                      A                      A                      A
 Frequencies --    695.1200               713.0206               724.2832
 Red. masses --      2.5554                 2.3359                 4.3259
 Frc consts  --      0.7275                 0.6997                 1.3370
 IR Inten    --     10.5717                82.4942                21.5223

                     19                     20                     21
                      A                      A                      A
 Frequencies --    767.7166               780.9185               817.0177
 Red. masses --      3.2364                 1.9744                 1.8434
 Frc consts  --      1.1239                 0.7094                 0.7250
 IR Inten    --      8.2091                17.4897                15.7759

                     22                     23                     24
                      A                      A                      A
 Frequencies --    851.6291               908.8669               941.0388
 Red. masses --      1.8840                 1.2996                 2.0160
 Frc consts  --      0.8051                 0.6325                 1.0519
 IR Inten    --     18.9631                78.7155                 5.4881

                     25                     26                     27
                      A                      A                      A
 Frequencies --   1006.6063              1009.9820              1030.6933
 Red. masses --      2.5292                 3.0458                 3.0682
 Frc consts  --      1.5099                 1.8305                 1.9204
 IR Inten    --     13.2685                 2.3826                12.1915

                     28                     29                     30
                      A                      A                      A
 Frequencies --   1065.1044              1068.9132              1084.0251
 Red. masses --      1.8835                 1.9145                 2.5608
 Frc consts  --      1.2589                 1.2888                 1.7730
 IR Inten    --     11.5755                 1.5406                 8.4836

                     31                     32                     33
                      A                      A                      A
 Frequencies --   1097.5305              1145.7012              1220.6447
 Red. masses --      1.7972                 2.0403                 1.6205
 Frc consts  --      1.2755                 1.5779                 1.4225
 IR Inten    --      7.7347                 4.4336                 0.9742

                     34                     35                     36
                      A                      A                      A
 Frequencies --   1251.2419              1281.2206              1301.8067
 Red. masses --      2.1280                 2.0937                 1.3332
 Frc consts  --      1.9629                 2.0249                 1.3312
 IR Inten    --      6.9258                36.4871                20.8516

                     37                     38                     39
                      A                      A                      A
 Frequencies --   1310.6312              1351.5837              1378.6606
 Red. masses --      1.7131                 1.2321                 1.3288
 Frc consts  --      1.7337                 1.3261                 1.4881
 IR Inten    --     24.8178                 8.1734                 5.4119

                     40                     41                     42
                      A                      A                      A
 Frequencies --   1392.8423              1406.9398              1438.8501
 Red. masses --      1.5697                 1.5262                 1.3798
 Frc consts  --      1.7942                 1.7799                 1.6831
 IR Inten    --      8.8955                 5.9563                 8.6179

                     43                     44                     45
                      A                      A                      A
 Frequencies --   1444.0145              1494.2686              1522.8285
 Red. masses --      1.2423                 4.2983                 1.0525
 Frc consts  --      1.5262                 5.6546                 1.4380
 IR Inten    --      0.6544                73.1228                 0.7283

                     46                     47                     48
                      A                      A                      A
 Frequencies --   1529.3847              1537.4239              1546.1473
 Red. masses --      1.0533                 1.0865                 1.0773
 Frc consts  --      1.4515                 1.5130                 1.5173
 IR Inten    --      7.0855                 7.9627                 2.6017

                     49                     50                     51
                      A                      A                      A
 Frequencies --   1649.4417              1695.5662              1856.1577
 Red. masses --      7.4293                 1.0866                10.1378
 Frc consts  --     11.9089                 1.8406                20.5789
 IR Inten    --     43.2840                38.1784               730.9300

                     52                     53                     54
                      A                      A                      A
 Frequencies --   3012.7131              3047.0314              3051.8311
 Red. masses --      1.0706                 1.0375                 1.0654
 Frc consts  --      5.7255                 5.6751                 5.8464
 IR Inten    --     56.2248                28.4959                12.3675

                     55                     56                     57
                      A                      A                      A
 Frequencies --   3070.2022              3089.1901              3095.1844
 Red. masses --      1.0821                 1.0998                 1.0932
 Frc consts  --      6.0096                 6.1835                 6.1707
 IR Inten    --     22.1588                 1.2941                27.9813

                     58                     59                     60
                      A                      A                      A
 Frequencies --   3113.7397              3120.8966              3481.4989
 Red. masses --      1.1025                 1.1013                 1.0503
 Frc consts  --      6.2978                 6.3201                 7.5003
 IR Inten    --     54.0061                30.3330                 0.7341

                     61                     62                     63
                      A                      A                      A
 Frequencies --   3553.6014              3563.5219              3695.5023
 Red. masses --      1.0824                 1.0926                 1.0814
 Frc consts  --      8.0534                 8.1746                 8.7012
 IR Inten    --    230.8501                 0.9973                74.2865

 - Thermochemistry -
 -------------------
 Temperature   298.150 Kelvin.  Pressure   1.00000 Atm.
 Atom     1 has atomic number  6 and mass  12.00000

 Molecular mass:   156.10111 amu.
 Principal axes and moments of inertia in atomic units:
                           1         2         3
     Eigenvalues --   869.892202684.348803101.70788
           X            0.99995   0.00361  -0.00971
           Y           -0.00326   0.99934   0.03611
           Z            0.00983  -0.03608   0.99930
 This molecule is an asymmetric top.
 Rotational symmetry number  1.
 Warning -- assumption of classical behavior for rotation
           may cause significant error
 Rotational temperatures (Kelvin)      0.09957     0.03227     0.02792
 Rotational constants (GHZ):           2.07467     0.67232     0.58185
 Zero-point vibrational energy     517061.6 (Joules/Mol)
                                  123.58069 (Kcal/Mol)
 Warning -- explicit consideration of  15 degrees of freedom as
           vibrations may cause significant error
 Vibrational temperatures:     89.16   128.44   132.37   220.96   261.10
          (Kelvin)            276.34   371.44   398.37   449.53   466.96
                              502.75   524.83   692.44   716.75   859.21
                             1000.12  1025.88  1042.08  1104.57  1123.57
                             1175.51  1225.30  1307.66  1353.94  1448.28
                             1453.14  1482.94  1532.45  1537.93  1559.67
                             1579.10  1648.41  1756.24  1800.26  1843.39
                             1873.01  1885.71  1944.63  1983.59  2003.99
                             2024.27  2070.18  2077.61  2149.92  2191.01
                             2200.44  2212.01  2224.56  2373.18  2439.54
                             2670.60  4334.62  4384.00  4390.90  4417.34
                             4444.66  4453.28  4479.98  4490.27  5009.10
                             5112.84  5127.11  5317.00

 Zero-point correction=                           0.196938 (Hartree/Particle)
 Thermal correction to Energy=                    0.208043
 Thermal correction to Enthalpy=                  0.208987
 Thermal correction to Gibbs Free Energy=         0.160015
 Sum of electronic and zero-point Energies=           -529.939942
 Sum of electronic and thermal Energies=              -529.928837
 Sum of electronic and thermal Enthalpies=            -529.927893
 Sum of electronic and thermal Free Energies=         -529.976865

                     E (Thermal)             CV                S
                      KCal/Mol        Cal/Mol-Kelvin    Cal/Mol-Kelvin
 Total                  130.549             41.260            103.072
 Electronic               0.000              0.000              0.000
 Translational            0.889              2.981             41.045
 Rotational               0.889              2.981             30.361
 Vibrational            128.772             35.298             31.666
 Vibration     1          0.597              1.972              4.394
 Vibration     2          0.602              1.957              3.676
 Vibration     3          0.602              1.955              3.617
 Vibration     4          0.619              1.899              2.627
 Vibration     5          0.630              1.865              2.313
 Vibration     6          0.634              1.851              2.208
 Vibration     7          0.667              1.749              1.674
 Vibration     8          0.678              1.716              1.553
 Vibration     9          0.701              1.650              1.349
 Vibration    10          0.709              1.626              1.287
 Vibration    11          0.727              1.576              1.169
 Vibration    12          0.738              1.545              1.102
 Vibration    13          0.838              1.292              0.707
 Vibration    14          0.854              1.254              0.663
 Vibration    15          0.955              1.038              0.455

 Optimization completed.
    -- Stationary point found.
 Normal termination of Gaussian 16 at Tue Dec  8 20:23:05 2020.

 ----------------------------------------------------------------------
 # B3LYP/6-311++G(d,p) empiricaldispersion=gd3bj scf=xqc pop=npa geom=c
 heck
 ----------------------------------------------------------------------

 ---------------------------------------
 CID_136272030_JID_1521_Energie_neutraal
 ---------------------------------------
 Structure from the checkpoint file:  "JID_1521.chk"
 Charge =  0 Multiplicity = 1

 SCF Done:  E(RB3LYP) =  -530.302377098     A.U. after   15 cycles
 Normal termination of Gaussian 16 at Tue Dec  8 20:25:13 2020.

 ----------------------------------------------------------------------
 # B3LYP/6-311++G(d,p) empiricaldispersion=gd3bj scf=xqc pop=npa geom=c
 heck
 ----------------------------------------------------------------------

 -------------------------------------
 CID_136272030_JID_1521_Energie_kation
 -------------------------------------
 Structure from the checkpoint file:  "JID_1521.chk"
 Charge =  1 Multiplicity = 2

 SCF Done:  E(UB3LYP) =  -530.000107388     A.U. after   23 cycles
 Normal termination of Gaussian 16 at Tue Dec  8 20:31:36 2020.
 Gaussian 16:  ES64L-G16RevA.03 25-Dec-2016

 ----------------------------------------------------------------------
 # B3LYP/6-311++G(d,p) empiricaldispersion=gd3bj scf=xqc pop=npa geom=c
 heck
 ----------------------------------------------------------------------

 ------------------------------------
 CID_136272030_JID_1521_Energie_anion
 ------------------------------------
 Structure from the checkpoint file:  "JID_1521.chk"
 Charge = -1 Multiplicity = 2

                         Standard orientation:
 ---------------------------------------------------------------------
 Center     Atomic      Atomic             Coordinates (Angstroms)
 Number     Number       Type             X           Y           Z
 ---------------------------------------------------------------------
      1          6           0        3.366701   -0.890374   -0.660543
      2          6           0        1.840736   -0.845174   -0.773510
      3          6           0        1.127144   -0.401703    0.526288
      4          6           0        1.581659    0.986060    1.022585
      5          7           0        1.346569    2.025706    0.003510
      6          6           0       -0.359762   -0.448446    0.348758
      7          7           0       -1.127755   -1.437938    0.709843
      8          7           0       -2.388656   -1.041942    0.299040
      9          6           0       -2.427681    0.206293   -0.297401
     10          8           0       -3.380370    0.834118   -0.729080
     11          7           0       -1.072253    0.550660   -0.273099
     12          1           0        3.800712    0.103720   -0.500430
     13          1           0        3.810331   -1.296603   -1.575522
     14          1           0        3.682896   -1.526374    0.174811
     15          1           0        1.541166   -0.183051   -1.595892
     16          1           0        1.461039   -1.839083   -1.034853
     17          1           0        1.367697   -1.130019    1.309886
     18          1           0        0.993260    1.252446    1.906860
     19          1           0        2.632275    0.924057    1.343472
     20          1           0        1.489793    2.946708    0.412560
     21          1           0        2.029774    1.938071   -0.746758
     22          1           0       -3.190437   -1.617912    0.497473
     23          1           0       -0.653668    1.439761   -0.531097
 ---------------------------------------------------------------------

 SCF Done:  E(UB3LYP) =  -530.295435421     A.U. after   29 cycles

 The electronic state is 2-A.
 Alpha  occ. eigenvalues --  -18.99252 -14.27965 -14.25663 -14.24295 -14.19431
 Alpha  occ. eigenvalues --  -10.20461 -10.14647 -10.09492 -10.09126 -10.07162
 Alpha  occ. eigenvalues --  -10.05533  -0.98842  -0.92203  -0.82450  -0.78556
 Alpha  occ. eigenvalues --   -0.73986  -0.69083  -0.62317  -0.56438  -0.54943
 Alpha  occ. eigenvalues --   -0.51929  -0.47770  -0.43660  -0.41135  -0.39921
 Alpha  occ. eigenvalues --   -0.38283  -0.38021  -0.34023  -0.33796  -0.33515
 Alpha  occ. eigenvalues --   -0.31442  -0.28561  -0.27286  -0.26557  -0.25631
 Alpha  occ. eigenvalues --   -0.23704  -0.23626  -0.23413  -0.21714  -0.17605
 Alpha  occ. eigenvalues --   -0.15426  -0.13032   0.04382
 Alpha virt. eigenvalues --    0.07398   0.07538   0.08208   0.09486   0.10580
 Alpha virt. eigenvalues --    0.11060   0.11237   0.11558   0.12156   0.13285
 Alpha virt. eigenvalues --    0.13973   0.14239   0.14720   0.15467   0.15898

  Beta  occ. eigenvalues --  -18.99250 -14.27961 -14.25651 -14.24290 -14.19346
  Beta  occ. eigenvalues --  -10.20461 -10.14647 -10.09452 -10.09123 -10.07142
  Beta  occ. eigenvalues --  -10.05472  -0.98836  -0.92200  -0.82430  -0.78439
  Beta  occ. eigenvalues --   -0.73963  -0.69030  -0.62237  -0.56419  -0.54827
  Beta  occ. eigenvalues --   -0.51865  -0.47719  -0.43623  -0.41114  -0.39851
  Beta  occ. eigenvalues --   -0.38270  -0.37952  -0.33922  -0.33768  -0.33470
  Beta  occ. eigenvalues --   -0.31389  -0.28495  -0.27225  -0.26530  -0.25574
  Beta  occ. eigenvalues --   -0.23684  -0.23588  -0.23374  -0.21692  -0.17594
  Beta  occ. eigenvalues --   -0.15350  -0.13018
  Beta virt. eigenvalues --    0.07063   0.07711   0.08781   0.08998   0.10115
  Beta virt. eigenvalues --    0.10999   0.11468   0.11830   0.11982   0.12418
  Beta virt. eigenvalues --    0.14044   0.14196   0.14339   0.14909   0.15802

 Mulliken charges and spin densities:
               1          2
     1  C    1.915754  -2.462596
     2  C   -1.411197   0.985479
     3  C    0.037065   1.263406
     4  C    2.363725  -3.026179
     5  N   -0.667469   0.172610
     6  C   -0.773945  -0.225960
     7  N   -0.057388  -0.012808
     8  N   -0.262352  -0.004518
     9  C    0.405818  -0.105262
    10  O   -0.433855  -0.001905
    11  N   -0.235375  -0.062436
    12  H   -0.521297   0.685756
    13  H   -0.440299   0.585571
    14  H   -0.286127   0.421750
    15  H   -0.077410   0.227323
    16  H   -0.044636   0.204787
    17  H    0.081824   0.148716
    18  H   -0.284706   0.466383
    19  H   -0.436812   0.619013
    20  H   -0.398897   0.662899
    21  H   -0.116128   0.366728
    22  H    0.294225   0.043900
    23  H    0.349483   0.047346
 Sum of Mulliken charges =  -1.00000   1.00000

 Dipole moment (field-independent basis, Debye):
    X=             -6.6286    Y=             -5.1049    Z=              0.8701  Tot=              8.4117
 Quadrupole moment (field-independent basis, Debye-Ang):
   XX=           -139.2097   YY=           -110.4032   ZZ=            -95.3715
   XY=             -0.7046   XZ=             -2.6172   YZ=             -1.6314

 Summary of Natural Population Analysis:

                                       Natural Population
                Natural  -----------------------------------------------
    Atom  No    Charge         Core      Valence    Rydberg      Total
 -----------------------------------------------------------------------
      C    1   -0.28810      0.99967     2.28298    0.00545     3.28810
      C    2   -0.18667      0.99962     2.17812    0.00894     3.18667
      C    3   -0.13602      0.99955     2.12406    0.01241     3.13602
      C    4   -0.08683      0.99962     2.07427    0.01295     3.08683
      N    5   -0.44189      0.99977     2.92997    0.01215     3.94189
      C    6    0.20936      0.99961     1.77278    0.01824     2.79064
      N    7   -0.16916      0.99967     2.65796    0.01153     3.66916
      N    8   -0.22782      0.99968     2.71698    0.01115     3.72782
      C    9    0.37881      0.99971     1.59776    0.02372     2.62119
      O   10   -0.33626      0.99987     3.33114    0.00525     4.33626
      N   11   -0.31489      0.99962     2.80827    0.00700     3.81489
      H   12    0.10275      0.00000     0.39452    0.00273     0.39725
      H   13    0.10205      0.00000     0.39669    0.00127     0.39795
      H   14    0.09669      0.00000     0.40197    0.00135     0.40331
      H   15    0.09784      0.00000     0.40057    0.00158     0.40216
      H   16    0.09975      0.00000     0.39905    0.00120     0.40025
      H   17    0.11160      0.00000     0.38626    0.00214     0.38840
      H   18    0.09449      0.00000     0.40387    0.00163     0.40551
      H   19    0.09356      0.00000     0.40359    0.00285     0.40644
      H   20    0.18914      0.00000     0.30288    0.00797     0.31086
      H   21    0.18463      0.00000     0.30976    0.00561     0.31537
      H   22    0.19855      0.00000     0.29988    0.00157     0.30145
      H   23    0.22843      0.00000     0.26934    0.00224     0.27157
 =======================================================================
   * Total *    0.00000     10.99639    30.84267    0.16094    42.00000

 Normal termination of Gaussian 16 at Tue Dec  8 20:39:09 2020.
