 Gaussian 16, Revision A.03,

 -----------------------------------------------------------
 # opt freq B3LYP/6-31G(d) empiricaldispersion=gd3bj scf=xqc
 -----------------------------------------------------------

 ------------------------------
 CID_19793811_JID_5829_neutraal
 ------------------------------
 Symbolic Z-matrix:
 Charge =  0 Multiplicity = 1

 SCF Done:  E(RB3LYP) =  -766.894323177     A.U. after   14 cycles
 SCF Done:  E(RB3LYP) =  -766.884695044     A.U. after   12 cycles
 SCF Done:  E(RB3LYP) =  -766.898064410     A.U. after   13 cycles
 SCF Done:  E(RB3LYP) =  -766.899157460     A.U. after   12 cycles
 SCF Done:  E(RB3LYP) =  -766.899102512     A.U. after   12 cycles
 SCF Done:  E(RB3LYP) =  -766.899578690     A.U. after   12 cycles
 SCF Done:  E(RB3LYP) =  -766.899744637     A.U. after   12 cycles
 SCF Done:  E(RB3LYP) =  -766.899862843     A.U. after   12 cycles
 SCF Done:  E(RB3LYP) =  -766.900105762     A.U. after   11 cycles
 SCF Done:  E(RB3LYP) =  -766.900060416     A.U. after   13 cycles
 SCF Done:  E(RB3LYP) =  -766.904758374     A.U. after    8 cycles
 SCF Done:  E(RB3LYP) =  -766.904759385     A.U. after    9 cycles
 SCF Done:  E(RB3LYP) =  -766.904760453     A.U. after    9 cycles
 SCF Done:  E(RB3LYP) =  -766.904760857     A.U. after    8 cycles
 SCF Done:  E(RB3LYP) =  -766.904760917     A.U. after    7 cycles
 Optimization completed.
    -- Stationary point found.
 Normal termination of Gaussian 16 at Thu Dec 10 17:39:56 2020.

 --------------------------------------------------------------------
 #N Geom=AllCheck Guess=TCheck SCRF=Check GenChk RB3LYP/6-31G(d) Freq
 --------------------------------------------------------------------

 Structure from the checkpoint file:  "JID_5829.chk"
 ------------------------------
 CID_19793811_JID_5829_neutraal
 ------------------------------
 Charge =  0 Multiplicity = 1

 SCF Done:  E(RB3LYP) =  -766.904760917     A.U. after    1 cycles

  Exact polarizability: 121.364   4.379 116.619   4.533   1.553 103.063
 Approx polarizability: 167.864   7.729 154.105  10.717  14.388 166.320

                      1                      2                      3
                      A                      A                      A
 Frequencies --     25.9274                26.9364                37.9407
 Red. masses --      6.3868                 7.2474                 5.9282
 Frc consts  --      0.0025                 0.0031                 0.0050
 IR Inten    --      0.9915                 0.6819                 2.3816

                      4                      5                      6
                      A                      A                      A
 Frequencies --     50.9781                63.3790                88.0418
 Red. masses --      5.6157                 6.6318                 3.9901
 Frc consts  --      0.0086                 0.0157                 0.0182
 IR Inten    --      1.3579                 2.4953                 2.4798

                      7                      8                      9
                      A                      A                      A
 Frequencies --    105.5496               128.6887               137.1663
 Red. masses --      3.2756                 1.3242                 3.3234
 Frc consts  --      0.0215                 0.0129                 0.0368
 IR Inten    --      1.3954                 0.1572                 0.4017

                     10                     11                     12
                      A                      A                      A
 Frequencies --    166.4097               196.7392               242.8301
 Red. masses --      4.0525                 4.1880                 2.8935
 Frc consts  --      0.0661                 0.0955                 0.1005
 IR Inten    --      6.7714                 4.2588                 9.7966

                     13                     14                     15
                      A                      A                      A
 Frequencies --    251.1311               268.7731               313.8728
 Red. masses --      2.1321                 2.4449                 2.3853
 Frc consts  --      0.0792                 0.1041                 0.1385
 IR Inten    --      2.5382                 0.1026                 0.8071

                     16                     17                     18
                      A                      A                      A
 Frequencies --    346.0860               403.1625               424.6863
 Red. masses --      3.0632                 2.9449                 2.6400
 Frc consts  --      0.2162                 0.2820                 0.2805
 IR Inten    --      5.1314                 4.6444                 5.1248

                     19                     20                     21
                      A                      A                      A
 Frequencies --    455.6832               493.4009               546.4000
 Red. masses --      2.8439                 3.0503                 2.2347
 Frc consts  --      0.3479                 0.4375                 0.3931
 IR Inten    --      2.2581                 3.8938                23.5400

                     22                     23                     24
                      A                      A                      A
 Frequencies --    553.3637               594.7796               605.8893
 Red. masses --      3.1089                 2.6353                 2.9386
 Frc consts  --      0.5609                 0.5493                 0.6356
 IR Inten    --     10.5014                 2.9200                 8.3109

                     25                     26                     27
                      A                      A                      A
 Frequencies --    644.5840               650.9578               701.7296
 Red. masses --      3.9699                 2.3823                 1.4478
 Frc consts  --      0.9718                 0.5948                 0.4201
 IR Inten    --      2.0462                29.6245                54.3671

                     28                     29                     30
                      A                      A                      A
 Frequencies --    729.4107               773.5546               812.6434
 Red. masses --      1.9692                 2.3392                 2.1819
 Frc consts  --      0.6173                 0.8247                 0.8490
 IR Inten    --     38.2420                 3.2953                 5.3324

                     31                     32                     33
                      A                      A                      A
 Frequencies --    839.2743               875.5285               927.8112
 Red. masses --      2.5866                 2.7197                 2.5243
 Frc consts  --      1.0735                 1.2283                 1.2803
 IR Inten    --     11.0774                 2.8261                 5.3999

                     34                     35                     36
                      A                      A                      A
 Frequencies --    940.7029               970.2748               986.2731
 Red. masses --      2.0851                 3.1063                 1.8823
 Frc consts  --      1.0871                 1.7230                 1.0788
 IR Inten    --     14.4992                 6.0566                 8.3365

                     37                     38                     39
                      A                      A                      A
 Frequencies --   1012.5033              1048.1062              1059.6899
 Red. masses --      1.9510                 1.6843                 1.7539
 Frc consts  --      1.1784                 1.0902                 1.1604
 IR Inten    --     16.1094                19.2981                20.1286

                     40                     41                     42
                      A                      A                      A
 Frequencies --   1081.3656              1083.6870              1092.2651
 Red. masses --      2.5769                 1.8638                 2.8500
 Frc consts  --      1.7754                 1.2896                 2.0033
 IR Inten    --     10.0505                22.8834                69.4692

                     43                     44                     45
                      A                      A                      A
 Frequencies --   1124.8709              1157.8886              1183.8449
 Red. masses --      2.5075                 2.1098                 2.2845
 Frc consts  --      1.8694                 1.6666                 1.8864
 IR Inten    --     28.1654                84.5971               117.6410

                     46                     47                     48
                      A                      A                      A
 Frequencies --   1194.4392              1236.2237              1254.8216
 Red. masses --      1.3016                 1.2854                 1.5254
 Frc consts  --      1.0941                 1.1574                 1.4152
 IR Inten    --      5.2734                21.2946                68.9304

                     49                     50                     51
                      A                      A                      A
 Frequencies --   1266.1284              1275.6469              1283.6013
 Red. masses --      1.2885                 2.4816                 1.3206
 Frc consts  --      1.2170                 2.3793                 1.2819
 IR Inten    --     40.1970               303.7194                25.9778

                     52                     53                     54
                      A                      A                      A
 Frequencies --   1321.3441              1330.3730              1371.9653
 Red. masses --      1.4840                 1.2656                 1.4394
 Frc consts  --      1.5266                 1.3197                 1.5963
 IR Inten    --      8.4876                20.7048                 0.7911

                     55                     56                     57
                      A                      A                      A
 Frequencies --   1397.4155              1403.7380              1414.3960
 Red. masses --      1.4642                 1.5005                 1.2808
 Frc consts  --      1.6846                 1.7420                 1.5096
 IR Inten    --      2.5796                15.2357                27.9893

                     58                     59                     60
                      A                      A                      A
 Frequencies --   1426.0944              1431.1887              1436.7079
 Red. masses --      1.5317                 1.5176                 1.5797
 Frc consts  --      1.8354                 1.8315                 1.9212
 IR Inten    --     22.6735                32.8998                15.5433

                     61                     62                     63
                      A                      A                      A
 Frequencies --   1484.5146              1486.0333              1504.6588
 Red. masses --      1.0897                 1.0856                 1.0545
 Frc consts  --      1.4149                 1.4124                 1.4066
 IR Inten    --      7.3110                10.5435                12.2984

                     64                     65                     66
                      A                      A                      A
 Frequencies --   1510.1467              1513.7526              1519.0292
 Red. masses --      1.0692                 1.0690                 1.0831
 Frc consts  --      1.4367                 1.4433                 1.4725
 IR Inten    --      7.3683                 0.2192                12.3861

                     67                     68                     69
                      A                      A                      A
 Frequencies --   1524.8238              1542.5310              1811.9961
 Red. masses --      1.1020                 1.0814                10.7251
 Frc consts  --      1.5096                 1.5160                20.7476
 IR Inten    --     12.2719                 6.5457               138.6847

                     70                     71                     72
                      A                      A                      A
 Frequencies --   1836.5389              1849.6844              3026.2269
 Red. masses --     11.2732                 9.4280                 1.0705
 Frc consts  --     22.4026                19.0049                 5.7764
 IR Inten    --    219.6960               246.4885                13.4334

                     73                     74                     75
                      A                      A                      A
 Frequencies --   3043.8133              3053.1103              3068.3863
 Red. masses --      1.0676                 1.0694                 1.0618
 Frc consts  --      5.8275                 5.8732                 5.8898
 IR Inten    --     10.1120                 9.1028                14.0086

                     76                     77                     78
                      A                      A                      A
 Frequencies --   3079.9320              3081.3363              3081.7042
 Red. masses --      1.0355                 1.0788                 1.0671
 Frc consts  --      5.7876                 6.0351                 5.9708
 IR Inten    --      2.7217                21.5473                23.7593

                     79                     80                     81
                      A                      A                      A
 Frequencies --   3087.8911              3108.7569              3119.3812
 Red. masses --      1.0645                 1.1032                 1.1012
 Frc consts  --      5.9803                 6.2815                 6.3131
 IR Inten    --     12.8746                20.6214                 3.5625

                     82                     83                     84
                      A                      A                      A
 Frequencies --   3126.3202              3135.6051              3138.4459
 Red. masses --      1.0935                 1.1026                 1.1005
 Frc consts  --      6.2969                 6.3870                 6.3868
 IR Inten    --      4.8433                27.4258                18.0755

                     85                     86                     87
                      A                      A                      A
 Frequencies --   3153.2361              3177.2837              3677.8398
 Red. masses --      1.1001                 1.1055                 1.0640
 Frc consts  --      6.4443                 6.5752                 8.4794
 IR Inten    --      2.3233                 7.5968                49.7282

 - Thermochemistry -
 -------------------
 Temperature   298.150 Kelvin.  Pressure   1.00000 Atm.
 Atom     1 has atomic number  6 and mass  12.00000

 Molecular mass:   216.09977 amu.
 Principal axes and moments of inertia in atomic units:
                           1         2         3
     Eigenvalues --  2845.977403523.607525419.19849
           X            0.99954   0.03018  -0.00302
           Y           -0.03026   0.99904  -0.03169
           Z            0.00206   0.03177   0.99949
 This molecule is an asymmetric top.
 Rotational symmetry number  1.
 Warning -- assumption of classical behavior for rotation
           may cause significant error
 Rotational temperatures (Kelvin)      0.03043     0.02458     0.01598
 Rotational constants (GHZ):           0.63414     0.51219     0.33303
 Zero-point vibrational energy     681942.3 (Joules/Mol)
                                  162.98811 (Kcal/Mol)
 Warning -- explicit consideration of  24 degrees of freedom as
           vibrations may cause significant error
 Vibrational temperatures:     37.30    38.76    54.59    73.35    91.19
          (Kelvin)            126.67   151.86   185.15   197.35   239.43
                              283.06   349.38   361.32   386.70   451.59
                              497.94   580.06   611.03   655.63   709.89
                              786.15   796.17   855.76   871.74   927.41
                              936.58  1009.63  1049.46  1112.97  1169.21
                             1207.53  1259.69  1334.91  1353.46  1396.01
                             1419.03  1456.77  1507.99  1524.66  1555.84
                             1559.18  1571.53  1618.44  1665.94  1703.29
                             1718.53  1778.65  1805.41  1821.68  1835.37
                             1846.82  1901.12  1914.11  1973.95  2010.57
                             2019.67  2035.00  2051.83  2059.16  2067.10
                             2135.89  2138.07  2164.87  2172.76  2177.95
                             2185.54  2193.88  2219.36  2607.06  2642.37
                             2661.28  4354.07  4379.37  4392.74  4414.72
                             4431.34  4433.36  4433.89  4442.79  4472.81
                             4488.09  4498.08  4511.44  4515.52  4536.80
                             4571.40  5291.59

 Zero-point correction=                           0.259738 (Hartree/Particle)
 Thermal correction to Energy=                    0.276217
 Thermal correction to Enthalpy=                  0.277162
 Thermal correction to Gibbs Free Energy=         0.213007
 Sum of electronic and zero-point Energies=           -766.645023
 Sum of electronic and thermal Energies=              -766.628543
 Sum of electronic and thermal Enthalpies=            -766.627599
 Sum of electronic and thermal Free Energies=         -766.691754

                     E (Thermal)             CV                S
                      KCal/Mol        Cal/Mol-Kelvin    Cal/Mol-Kelvin
 Total                  173.329             58.562            135.025
 Electronic               0.000              0.000              0.000
 Translational            0.889              2.981             42.015
 Rotational               0.889              2.981             32.363
 Vibrational            171.552             52.600             60.646
 Vibration     1          0.593              1.985              6.119
 Vibration     2          0.593              1.984              6.043
 Vibration     3          0.594              1.982              5.364
 Vibration     4          0.595              1.977              4.779
 Vibration     5          0.597              1.972              4.349
 Vibration     6          0.601              1.958              3.703
 Vibration     7          0.605              1.945              3.349
 Vibration     8          0.611              1.925              2.966
 Vibration     9          0.614              1.916              2.843
 Vibration    10          0.624              1.884              2.476
 Vibration    11          0.636              1.844              2.163
 Vibration    12          0.659              1.775              1.782
 Vibration    13          0.663              1.761              1.723
 Vibration    14          0.673              1.731              1.604
 Vibration    15          0.702              1.647              1.342
 Vibration    16          0.724              1.583              1.184
 Vibration    17          0.769              1.463              0.951
 Vibration    18          0.787              1.417              0.876
 Vibration    19          0.814              1.348              0.779
 Vibration    20          0.849              1.265              0.675
 Vibration    21          0.902              1.148              0.552
 Vibration    22          0.909              1.132              0.537
 Vibration    23          0.952              1.043              0.459
 Vibration    24          0.965              1.019              0.440

 Optimization completed.
    -- Stationary point found.
 Normal termination of Gaussian 16 at Thu Dec 10 17:51:11 2020.

 ----------------------------------------------------------------------
 # B3LYP/6-311++G(d,p) empiricaldispersion=gd3bj scf=xqc pop=npa geom=c
 heck
 ----------------------------------------------------------------------

 --------------------------------------
 CID_19793811_JID_5829_Energie_neutraal
 --------------------------------------
 Structure from the checkpoint file:  "JID_5829.chk"
 Charge =  0 Multiplicity = 1

 SCF Done:  E(RB3LYP) =  -767.142553461     A.U. after   14 cycles
 Normal termination of Gaussian 16 at Thu Dec 10 17:56:28 2020.

 ----------------------------------------------------------------------
 # B3LYP/6-311++G(d,p) empiricaldispersion=gd3bj scf=xqc pop=npa geom=c
 heck
 ----------------------------------------------------------------------

 ------------------------------------
 CID_19793811_JID_5829_Energie_kation
 ------------------------------------
 Structure from the checkpoint file:  "JID_5829.chk"
 Charge =  1 Multiplicity = 2

 SCF Done:  E(UB3LYP) =  -766.807139370     A.U. after   24 cycles
 Normal termination of Gaussian 16 at Thu Dec 10 18:08:27 2020.
 Gaussian 16:  ES64L-G16RevA.03 25-Dec-2016

 ----------------------------------------------------------------------
 # B3LYP/6-311++G(d,p) empiricaldispersion=gd3bj scf=xqc pop=npa geom=c
 heck
 ----------------------------------------------------------------------

 -----------------------------------
 CID_19793811_JID_5829_Energie_anion
 -----------------------------------
 Structure from the checkpoint file:  "JID_5829.chk"
 Charge = -1 Multiplicity = 2

                         Standard orientation:
 ---------------------------------------------------------------------
 Center     Atomic      Atomic             Coordinates (Angstroms)
 Number     Number       Type             X           Y           Z
 ---------------------------------------------------------------------
      1          6           0       -2.321855   -1.844149    1.302996
      2          6           0       -2.533608   -0.895485    0.151823
      3          8           0       -3.167425   -1.130150   -0.852009
      4          8           0       -1.895050    0.286733    0.361850
      5          6           0       -2.030284    1.256549   -0.697669
      6          6           0       -1.243140    2.490231   -0.284143
      7          6           0        0.230721    2.237069    0.036710
      8          8           0        0.740011    2.751569    1.014445
      9          6           0        1.025709    1.375623   -0.931061
     10          6           0        2.450941    1.046702   -0.475132
     11          6           0        2.543872    0.260920    0.845591
     12          6           0        1.542665   -0.896152    0.963878
     13          6           0        1.655128   -1.885857   -0.171879
     14          8           0        2.672772   -2.206821   -0.743199
     15          8           0        0.443409   -2.411477   -0.509508
     16          1           0       -1.404712   -2.411363    1.113882
     17          1           0       -3.160371   -2.540922    1.353122
     18          1           0       -2.211762   -1.305815    2.246990
     19          1           0       -1.666790    0.819595   -1.631744
     20          1           0       -3.089967    1.489628   -0.836166
     21          1           0       -1.292788    3.214885   -1.109855
     22          1           0       -1.689890    2.960968    0.595905
     23          1           0        0.460463    0.458206   -1.133750
     24          1           0        1.050627    1.908929   -1.893901
     25          1           0        2.931245    0.467115   -1.270744
     26          1           0        3.018649    1.976683   -0.365736
     27          1           0        3.560092   -0.134971    0.942740
     28          1           0        2.368894    0.938980    1.684269
     29          1           0        1.731637   -1.452511    1.892011
     30          1           0        0.513393   -0.533307    1.024501
     31          1           0        0.610653   -3.047645   -1.230853
 ---------------------------------------------------------------------

 SCF Done:  E(UB3LYP) =  -767.135076806     A.U. after   33 cycles
 SCF Done:  E(UB3LYP) =  -767.135076806     a.u. after    1 cycles

 The electronic state is 2-A.
 Alpha  occ. eigenvalues --  -19.07757 -19.07083 -19.02431 -19.01531 -18.99714
 Alpha  occ. eigenvalues --  -10.21459 -10.20681 -10.14184 -10.13076 -10.08847
 Alpha  occ. eigenvalues --  -10.08280 -10.07492 -10.07206 -10.07018 -10.06736
 Alpha  occ. eigenvalues --   -1.01690  -1.01053  -0.93268  -0.92897  -0.92433
 Alpha  occ. eigenvalues --   -0.71686  -0.69958  -0.66209  -0.64720  -0.59519
 Alpha  occ. eigenvalues --   -0.55806  -0.52488  -0.48117  -0.47336  -0.41727
 Alpha  occ. eigenvalues --   -0.41038  -0.40576  -0.40061  -0.39121  -0.38979
 Alpha  occ. eigenvalues --   -0.38146  -0.36490  -0.35251  -0.34759  -0.32882
 Alpha  occ. eigenvalues --   -0.32526  -0.31579  -0.31239  -0.30670  -0.29427
 Alpha  occ. eigenvalues --   -0.29016  -0.27995  -0.27017  -0.25947  -0.25231
 Alpha  occ. eigenvalues --   -0.24059  -0.23638  -0.23376  -0.23269  -0.21290
 Alpha  occ. eigenvalues --   -0.19173  -0.18533  -0.14065   0.04233
 Alpha virt. eigenvalues --    0.05955   0.07327   0.07608   0.08236   0.08536
 Alpha virt. eigenvalues --    0.09312   0.09767   0.09947   0.10298   0.10452
 Alpha virt. eigenvalues --    0.11658   0.11957   0.12251   0.13130   0.13516

  Beta  occ. eigenvalues --  -19.07714 -19.07073 -19.02421 -19.01517 -18.99588
  Beta  occ. eigenvalues --  -10.21458 -10.20667 -10.14033 -10.13051 -10.08825
  Beta  occ. eigenvalues --  -10.08257 -10.07483 -10.07205 -10.07005 -10.06730
  Beta  occ. eigenvalues --   -1.01638  -1.01030  -0.93022  -0.92852  -0.92399
  Beta  occ. eigenvalues --   -0.71645  -0.69884  -0.66137  -0.64671  -0.59431
  Beta  occ. eigenvalues --   -0.55715  -0.52410  -0.48027  -0.47278  -0.41581
  Beta  occ. eigenvalues --   -0.41002  -0.40514  -0.40001  -0.39083  -0.38901
  Beta  occ. eigenvalues --   -0.38095  -0.36434  -0.35096  -0.34665  -0.32802
  Beta  occ. eigenvalues --   -0.32475  -0.31504  -0.31116  -0.30627  -0.29366
  Beta  occ. eigenvalues --   -0.28953  -0.27944  -0.26953  -0.25891  -0.24932
  Beta  occ. eigenvalues --   -0.23971  -0.23598  -0.23275  -0.23091  -0.21260
  Beta  occ. eigenvalues --   -0.19140  -0.18515  -0.13955
  Beta virt. eigenvalues --    0.06444   0.07330   0.07820   0.08118   0.08791
  Beta virt. eigenvalues --    0.09160   0.09574   0.09988   0.10261   0.10747
  Beta virt. eigenvalues --    0.10968   0.11706   0.12104   0.12474   0.13286

 Mulliken charges and spin densities:
               1          2
     1  C    0.085944  -0.617614
     2  C   -0.082242   0.190648
     3  O   -0.272985   0.031668
     4  O    0.018320   0.024640
     5  C    0.116806  -0.445736
     6  C    0.502011  -1.007047
     7  C   -0.760974   0.687938
     8  O   -0.253672   0.036015
     9  C    0.252608  -0.127331
    10  C    0.357731  -0.734548
    11  C   -0.443198  -0.007204
    12  C    0.239684  -0.381403
    13  C   -0.245941   0.050210
    14  O   -0.249244   0.011239
    15  O   -0.185956   0.027749
    16  H   -0.025003   0.227634
    17  H   -0.110309   0.274327
    18  H    0.037586   0.124788
    19  H   -0.051363   0.267989
    20  H   -0.254771   0.460151
    21  H   -0.419551   0.618001
    22  H    0.086482   0.109994
    23  H    0.365104  -0.207946
    24  H   -0.620958   0.861024
    25  H    0.033003   0.151376
    26  H    0.138166   0.022255
    27  H    0.184169  -0.018418
    28  H    0.153624   0.044116
    29  H   -0.138159   0.339148
    30  H    0.736618  -0.518811
    31  H   -0.193531   0.505147
 Sum of Mulliken charges =  -1.00000   1.00000

 Dipole moment (field-independent basis, Debye):
    X=              1.0300    Y=             -1.4223    Z=              4.1092  Tot=              4.4687
 Quadrupole moment (field-independent basis, Debye-Ang):
   XX=           -136.8063   YY=           -148.4431   ZZ=           -124.4038
   XY=              2.2437   XZ=             -3.7108   YZ=              1.0840

 Summary of Natural Population Analysis:

                                       Natural Population
                Natural  -----------------------------------------------
    Atom  No    Charge         Core      Valence    Rydberg      Total
 -----------------------------------------------------------------------
      C    1   -0.33690      0.99961     2.33265    0.00464     3.33690
      C    2    0.41266      0.99972     1.56414    0.02348     2.58734
      O    3   -0.30425      0.99987     3.29857    0.00581     4.30425
      O    4   -0.28820      0.99986     3.27998    0.00836     4.28820
      C    5   -0.01675      0.99956     2.00479    0.01240     3.01675
      C    6   -0.24465      0.99958     2.23499    0.01008     3.24465
      C    7    0.31526      0.99967     1.66323    0.02185     2.68474
      O    8   -0.28490      0.99987     3.27904    0.00599     4.28490
      C    9   -0.24590      0.99958     2.23757    0.00875     3.24590
      C   10   -0.19316      0.99963     2.18387    0.00966     3.19316
      C   11   -0.18916      0.99963     2.18200    0.00754     3.18916
      C   12   -0.24792      0.99957     2.23951    0.00885     3.24792
      C   13    0.40784      0.99971     1.56688    0.02556     2.59216
      O   14   -0.30768      0.99987     3.30177    0.00605     4.30768
      O   15   -0.34872      0.99988     3.34149    0.00735     4.34872
      H   16    0.12529      0.00000     0.37295    0.00176     0.37471
      H   17    0.10879      0.00000     0.39030    0.00092     0.39121
      H   18    0.10817      0.00000     0.39068    0.00115     0.39183
      H   19    0.09513      0.00000     0.40349    0.00138     0.40487
      H   20    0.09616      0.00000     0.40257    0.00126     0.40384
      H   21    0.11930      0.00000     0.37592    0.00478     0.38070
      H   22    0.10802      0.00000     0.39081    0.00116     0.39198
      H   23    0.10522      0.00000     0.39210    0.00268     0.39478
      H   24    0.11915      0.00000     0.37754    0.00331     0.38085
      H   25    0.10232      0.00000     0.39671    0.00097     0.39768
      H   26    0.10245      0.00000     0.39663    0.00092     0.39755
      H   27    0.09907      0.00000     0.39993    0.00100     0.40093
      H   28    0.10879      0.00000     0.39014    0.00107     0.39121
      H   29    0.11511      0.00000     0.38392    0.00097     0.38489
      H   30    0.11587      0.00000     0.38182    0.00231     0.38413
      H   31    0.24359      0.00000     0.24888    0.00753     0.25641
 =======================================================================
   * Total *   -0.00000     14.99560    42.80488    0.19952    58.00000

 Normal termination of Gaussian 16 at Thu Dec 10 18:24:37 2020.
