 Gaussian 16, Revision A.03,

 -----------------------------------------------------------
 # opt freq B3LYP/6-31G(d) empiricaldispersion=gd3bj scf=xqc
 -----------------------------------------------------------

 ------------------------------
 CID_61319941_JID_4039_neutraal
 ------------------------------
 Symbolic Z-matrix:
 Charge =  0 Multiplicity = 1

 SCF Done:  E(RB3LYP) =  -958.799680075     A.U. after   14 cycles
 SCF Done:  E(RB3LYP) =  -958.804168502     A.U. after   12 cycles
 SCF Done:  E(RB3LYP) =  -958.805104702     A.U. after   12 cycles
 SCF Done:  E(RB3LYP) =  -958.805384301     A.U. after   12 cycles
 SCF Done:  E(RB3LYP) =  -958.805587476     A.U. after   11 cycles
 SCF Done:  E(RB3LYP) =  -958.805616343     A.U. after   11 cycles
 SCF Done:  E(RB3LYP) =  -958.805659722     A.U. after   10 cycles
 SCF Done:  E(RB3LYP) =  -958.805663938     A.U. after    9 cycles
 SCF Done:  E(RB3LYP) =  -958.805665180     A.U. after    9 cycles
 SCF Done:  E(RB3LYP) =  -958.805665659     A.U. after    7 cycles
 SCF Done:  E(RB3LYP) =  -958.805665714     A.U. after    7 cycles
 Optimization completed.
    -- Stationary point found.
 Normal termination of Gaussian 16 at Thu Dec 10 09:16:37 2020.

 --------------------------------------------------------------------
 #N Geom=AllCheck Guess=TCheck SCRF=Check GenChk RB3LYP/6-31G(d) Freq
 --------------------------------------------------------------------

 Structure from the checkpoint file:  "JID_4039.chk"
 ------------------------------
 CID_61319941_JID_4039_neutraal
 ------------------------------
 Charge =  0 Multiplicity = 1

 SCF Done:  E(RB3LYP) =  -958.805665714     A.U. after    1 cycles

  Exact polarizability: 161.692 -15.119 116.856  -2.422  -0.115 131.742
 Approx polarizability: 202.316 -32.176 180.854  -3.680  -7.326 233.550

                      1                      2                      3
                      A                      A                      A
 Frequencies --     29.3087                49.7753                52.8342
 Red. masses --      4.3644                 5.4420                 4.1078
 Frc consts  --      0.0022                 0.0079                 0.0068
 IR Inten    --      0.0404                 0.0177                 0.3400

                      4                      5                      6
                      A                      A                      A
 Frequencies --     65.1370                95.1250               108.6383
 Red. masses --      3.8436                 2.6743                 3.4257
 Frc consts  --      0.0096                 0.0143                 0.0238
 IR Inten    --      0.2354                 1.0857                 0.0852

                      7                      8                      9
                      A                      A                      A
 Frequencies --    114.2021               190.0931               225.1472
 Red. masses --      3.5137                 3.2175                 1.2841
 Frc consts  --      0.0270                 0.0685                 0.0384
 IR Inten    --      2.2678                 0.4835                 0.2879

                     10                     11                     12
                      A                      A                      A
 Frequencies --    231.1065               251.7521               277.5973
 Red. masses --      1.9400                 3.0416                 1.7198
 Frc consts  --      0.0610                 0.1136                 0.0781
 IR Inten    --      1.9092                 0.5448                 0.3877

                     13                     14                     15
                      A                      A                      A
 Frequencies --    309.0539               334.5470               355.5664
 Red. masses --      2.4013                 1.6029                 2.3303
 Frc consts  --      0.1351                 0.1057                 0.1736
 IR Inten    --      0.8517                26.3802                 4.5175

                     16                     17                     18
                      A                      A                      A
 Frequencies --    360.7638               397.0031               415.3943
 Red. masses --      1.5193                 3.2950                 2.2663
 Frc consts  --      0.1165                 0.3060                 0.2304
 IR Inten    --     68.1597                 2.8990                11.2480

                     19                     20                     21
                      A                      A                      A
 Frequencies --    445.3307               497.3307               530.0246
 Red. masses --      2.2597                 3.5488                 3.8512
 Frc consts  --      0.2640                 0.5172                 0.6374
 IR Inten    --      5.9387                 3.3411                 3.6307

                     22                     23                     24
                      A                      A                      A
 Frequencies --    571.8619               646.0136               655.1442
 Red. masses --      3.3542                 4.0431                 3.2201
 Frc consts  --      0.6463                 0.9941                 0.8143
 IR Inten    --      1.5007                 2.1955                 8.4202

                     25                     26                     27
                      A                      A                      A
 Frequencies --    673.3982               708.5345               749.5495
 Red. masses --      3.6420                 1.2039                 6.2474
 Frc consts  --      0.9730                 0.3561                 2.0680
 IR Inten    --      1.3482                60.3350                 4.7766

                     28                     29                     30
                      A                      A                      A
 Frequencies --    783.5573               794.8262               835.3953
 Red. masses --      1.6851                 1.7802                 1.3984
 Frc consts  --      0.6096                 0.6626                 0.5750
 IR Inten    --     37.9158                56.3618                10.9978

                     31                     32                     33
                      A                      A                      A
 Frequencies --    842.3904               866.6349               883.8009
 Red. masses --      1.7385                 3.8987                 2.0589
 Frc consts  --      0.7269                 1.7252                 0.9476
 IR Inten    --      1.8889                12.1424                10.8484

                     34                     35                     36
                      A                      A                      A
 Frequencies --    905.8332               913.9040               966.1059
 Red. masses --      1.3731                 1.5661                 2.2591
 Frc consts  --      0.6638                 0.7707                 1.2423
 IR Inten    --      1.5260                18.3583                 6.3077

                     37                     38                     39
                      A                      A                      A
 Frequencies --    980.0302              1000.9020              1014.5834
 Red. masses --      1.2582                 1.5325                 1.6242
 Frc consts  --      0.7120                 0.9046                 0.9851
 IR Inten    --      0.9255                34.3488                 2.6886

                     40                     41                     42
                      A                      A                      A
 Frequencies --   1055.5668              1067.4548              1080.8185
 Red. masses --      2.3778                 1.7681                 3.0181
 Frc consts  --      1.5610                 1.1870                 2.0773
 IR Inten    --      4.5353                12.5379                58.2786

                     43                     44                     45
                      A                      A                      A
 Frequencies --   1103.2243              1116.1544              1132.8993
 Red. masses --      1.6349                 1.4036                 3.2386
 Frc consts  --      1.1724                 1.0302                 2.4490
 IR Inten    --     14.0939                 7.9364                47.9542

                     46                     47                     48
                      A                      A                      A
 Frequencies --   1137.3320              1163.8404              1182.5254
 Red. masses --      1.6563                 2.5305                 2.5786
 Frc consts  --      1.2623                 2.0195                 2.1245
 IR Inten    --     11.4499                21.5383                17.4542

                     49                     50                     51
                      A                      A                      A
 Frequencies --   1194.6589              1239.1653              1254.8360
 Red. masses --      2.0050                 1.3803                 1.4024
 Frc consts  --      1.6860                 1.2488                 1.3010
 IR Inten    --      4.1949                33.4238                10.9855

                     52                     53                     54
                      A                      A                      A
 Frequencies --   1287.7711              1297.1486              1325.8160
 Red. masses --      1.3489                 1.3549                 1.2568
 Frc consts  --      1.3180                 1.3431                 1.3016
 IR Inten    --     13.8091                 2.2567                 1.7648

                     55                     56                     57
                      A                      A                      A
 Frequencies --   1355.1130              1377.5968              1384.2365
 Red. masses --      1.3018                 1.2976                 1.2626
 Frc consts  --      1.4085                 1.4508                 1.4253
 IR Inten    --      4.3310                 5.0103                19.1642

                     58                     59                     60
                      A                      A                      A
 Frequencies --   1393.7659              1395.6837              1406.1340
 Red. masses --      1.3064                 1.4355                 1.7977
 Frc consts  --      1.4952                 1.6475                 2.0942
 IR Inten    --      7.4415                 1.9901                 2.6674

                     61                     62                     63
                      A                      A                      A
 Frequencies --   1411.7967              1427.1643              1433.9590
 Red. masses --      1.4415                 1.2850                 1.2446
 Frc consts  --      1.6928                 1.5421                 1.5079
 IR Inten    --      2.1205                 3.4970                45.0280

                     64                     65                     66
                      A                      A                      A
 Frequencies --   1442.1586              1494.6631              1501.0199
 Red. masses --      1.2388                 1.2044                 4.1985
 Frc consts  --      1.5181                 1.5852                 5.5734
 IR Inten    --      2.9560                 0.4290                 7.8068

                     67                     68                     69
                      A                      A                      A
 Frequencies --   1514.6650              1518.0051              1523.2144
 Red. masses --      1.0745                 1.1853                 1.0656
 Frc consts  --      1.4524                 1.6092                 1.4566
 IR Inten    --      3.6459                27.1686                 5.2638

                     70                     71                     72
                      A                      A                      A
 Frequencies --   1531.6251              1538.5820              1545.7655
 Red. masses --      1.0453                 1.0665                 1.0841
 Frc consts  --      1.4447                 1.4875                 1.5262
 IR Inten    --      3.9485                 6.3649                 6.6192

                     73                     74                     75
                      A                      A                      A
 Frequencies --   1550.9979              1599.7770              2994.1980
 Red. masses --      1.0454                 5.2661                 1.0817
 Frc consts  --      1.4817                 7.9407                 5.7136
 IR Inten    --      7.1697                 0.5484                12.5148

                     76                     77                     78
                      A                      A                      A
 Frequencies --   3020.0441              3028.4138              3037.4486
 Red. masses --      1.0622                 1.0794                 1.0530
 Frc consts  --      5.7078                 5.8324                 5.7239
 IR Inten    --     20.5912                10.6970                19.3037

                     79                     80                     81
                      A                      A                      A
 Frequencies --   3043.5477              3047.2571              3050.2812
 Red. masses --      1.0685                 1.0411                 1.0612
 Frc consts  --      5.8314                 5.6960                 5.8176
 IR Inten    --     81.3583                35.0439                37.6443

                     82                     83                     84
                      A                      A                      A
 Frequencies --   3061.1570              3091.8541              3108.8745
 Red. masses --      1.0942                 1.1056                 1.1009
 Frc consts  --      6.0409                 6.2271                 6.2692
 IR Inten    --     38.5948                18.6331                38.8370

                     85                     86                     87
                      A                      A                      A
 Frequencies --   3112.4206              3128.3836              3147.1388
 Red. masses --      1.0931                 1.1000                 1.1006
 Frc consts  --      6.2388                 6.3430                 6.4226
 IR Inten    --     43.2134                40.5408                14.9115

                     88                     89                     90
                      A                      A                      A
 Frequencies --   3152.1985              3207.4459              3225.7538
 Red. masses --      1.0925                 1.0896                 1.0940
 Frc consts  --      6.3958                 6.6045                 6.7073
 IR Inten    --     21.7415                 9.0568                 8.5634

                     91                     92                     93
                      A                      A                      A
 Frequencies --   3271.6466              3492.5324              3739.5815
 Red. masses --      1.0970                 1.0738                 1.0658
 Frc consts  --      6.9179                 7.7175                 8.7818
 IR Inten    --      1.4376                 6.5369                 9.0092

 - Thermochemistry -
 -------------------
 Temperature   298.150 Kelvin.  Pressure   1.00000 Atm.
 Atom     1 has atomic number  6 and mass  12.00000

 Molecular mass:   213.11874 amu.
 Principal axes and moments of inertia in atomic units:
                           1         2         3
     Eigenvalues --  1460.491226064.407686317.01841
           X            1.00000  -0.00240  -0.00109
           Y            0.00246   0.99830   0.05829
           Z            0.00095  -0.05829   0.99830
 This molecule is an asymmetric top.
 Rotational symmetry number  1.
 Warning -- assumption of classical behavior for rotation
           may cause significant error
 Rotational temperatures (Kelvin)      0.05930     0.01428     0.01371
 Rotational constants (GHZ):           1.23571     0.29760     0.28570
 Zero-point vibrational energy     760068.4 (Joules/Mol)
                                  181.66070 (Kcal/Mol)
 Warning -- explicit consideration of  22 degrees of freedom as
           vibrations may cause significant error
 Vibrational temperatures:     42.17    71.62    76.02    93.72   136.86
          (Kelvin)            156.31   164.31   273.50   323.94   332.51
                              362.22   399.40   444.66   481.34   511.58
                              519.06   571.20   597.66   640.73   715.55
                              762.59   822.78   929.47   942.61   968.87
                             1019.42  1078.43  1127.36  1143.58  1201.95
                             1212.01  1246.89  1271.59  1303.29  1314.90
                             1390.01  1410.04  1440.07  1459.76  1518.73
                             1535.83  1555.06  1587.29  1605.90  1629.99
                             1636.37  1674.51  1701.39  1718.85  1782.88
                             1805.43  1852.82  1866.31  1907.55  1949.71
                             1982.05  1991.61  2005.32  2008.08  2023.11
                             2031.26  2053.37  2063.15  2074.94  2150.49
                             2159.63  2179.27  2184.07  2191.57  2203.67
                             2213.68  2224.01  2231.54  2301.72  4307.98
                             4345.17  4357.21  4370.21  4378.99  4384.32
                             4388.67  4404.32  4448.49  4472.98  4478.08
                             4501.05  4528.03  4535.31  4614.80  4641.14
                             4707.17  5024.98  5380.42

 Zero-point correction=                           0.289495 (Hartree/Particle)
 Thermal correction to Energy=                    0.305041
 Thermal correction to Enthalpy=                  0.305985
 Thermal correction to Gibbs Free Energy=         0.245599
 Sum of electronic and zero-point Energies=           -958.516171
 Sum of electronic and thermal Energies=              -958.500624
 Sum of electronic and thermal Enthalpies=            -958.499680
 Sum of electronic and thermal Free Energies=         -958.560067

                     E (Thermal)             CV                S
                      KCal/Mol        Cal/Mol-Kelvin    Cal/Mol-Kelvin
 Total                  191.416             58.366            127.095
 Electronic               0.000              0.000              0.000
 Translational            0.889              2.981             41.974
 Rotational               0.889              2.981             32.392
 Vibrational            189.639             52.405             52.729
 Vibration     1          0.593              1.984              5.876
 Vibration     2          0.595              1.978              4.826
 Vibration     3          0.596              1.976              4.708
 Vibration     4          0.597              1.971              4.295
 Vibration     5          0.603              1.953              3.552
 Vibration     6          0.606              1.942              3.293
 Vibration     7          0.607              1.938              3.196
 Vibration     8          0.633              1.854              2.227
 Vibration     9          0.650              1.803              1.917
 Vibration    10          0.653              1.793              1.870
 Vibration    11          0.664              1.760              1.718
 Vibration    12          0.679              1.715              1.548
 Vibration    13          0.698              1.656              1.367
 Vibration    14          0.716              1.607              1.238
 Vibration    15          0.731              1.564              1.141
 Vibration    16          0.735              1.553              1.119
 Vibration    17          0.764              1.477              0.974
 Vibration    18          0.779              1.437              0.908
 Vibration    19          0.805              1.371              0.810
 Vibration    20          0.853              1.256              0.665
 Vibration    21          0.885              1.184              0.587
 Vibration    22          0.928              1.092              0.501

 Optimization completed.
    -- Stationary point found.
 Normal termination of Gaussian 16 at Thu Dec 10 09:26:21 2020.

 ----------------------------------------------------------------------
 # B3LYP/6-311++G(d,p) empiricaldispersion=gd3bj scf=xqc pop=npa geom=c
 heck
 ----------------------------------------------------------------------

 --------------------------------------
 CID_61319941_JID_4039_Energie_neutraal
 --------------------------------------
 Structure from the checkpoint file:  "JID_4039.chk"
 Charge =  0 Multiplicity = 1

 SCF Done:  E(RB3LYP) =  -959.001907515     A.U. after   16 cycles
 Normal termination of Gaussian 16 at Thu Dec 10 09:31:03 2020.

 ----------------------------------------------------------------------
 # B3LYP/6-311++G(d,p) empiricaldispersion=gd3bj scf=xqc pop=npa geom=c
 heck
 ----------------------------------------------------------------------

 ------------------------------------
 CID_61319941_JID_4039_Energie_kation
 ------------------------------------
 Structure from the checkpoint file:  "JID_4039.chk"
 Charge =  1 Multiplicity = 2

 SCF Done:  E(UB3LYP) =  -958.713222463     A.U. after   26 cycles
 Normal termination of Gaussian 16 at Thu Dec 10 09:41:43 2020.
 Gaussian 16:  ES64L-G16RevA.03 25-Dec-2016

 ----------------------------------------------------------------------
 # B3LYP/6-311++G(d,p) empiricaldispersion=gd3bj scf=xqc pop=npa geom=c
 heck
 ----------------------------------------------------------------------

 -----------------------------------
 CID_61319941_JID_4039_Energie_anion
 -----------------------------------
 Structure from the checkpoint file:  "JID_4039.chk"
 Charge = -1 Multiplicity = 2

                         Standard orientation:
 ---------------------------------------------------------------------
 Center     Atomic      Atomic             Coordinates (Angstroms)
 Number     Number       Type             X           Y           Z
 ---------------------------------------------------------------------
      1          6           0        4.860545    0.475210    0.610727
      2          6           0        3.343620    0.625886    0.763657
      3          6           0        2.518770   -0.253888   -0.194985
      4          6           0        2.908632   -1.733112   -0.094569
      5          6           0        0.988104   -0.109368    0.020664
      6          6           0        0.506497    1.349087    0.089633
      7          8           0        0.693151    2.023249   -1.156304
      8          7           0        0.289278   -0.842162   -1.046188
      9          6           0       -0.890341   -1.608876   -0.643594
     10          6           0       -2.000305   -0.842063    0.032125
     11          6           0       -2.261616   -0.730646    1.373055
     12          6           0       -3.315740    0.186388    1.676724
     13          6           0       -3.845596    0.767552    0.558730
     14         16           0       -3.068350    0.194387   -0.885098
     15          1           0        5.202473   -0.523639    0.898395
     16          1           0        5.389462    1.200218    1.239158
     17          1           0        5.170050    0.645589   -0.428091
     18          1           0        3.055597    0.395246    1.800103
     19          1           0        3.089705    1.682662    0.609707
     20          1           0        2.728559    0.073949   -1.225912
     21          1           0        2.826899   -2.084690    0.943300
     22          1           0        2.240035   -2.331847   -0.717738
     23          1           0        3.936410   -1.908989   -0.425983
     24          1           0        0.740585   -0.579610    0.983180
     25          1           0       -0.568492    1.369700    0.273748
     26          1           0        0.992986    1.891563    0.911600
     27          1           0        1.648566    2.101708   -1.304494
     28          1           0        0.051602   -0.175372   -1.779152
     29          1           0       -1.269822   -2.114507   -1.539182
     30          1           0       -0.561120   -2.395518    0.045911
     31          1           0       -1.709185   -1.287791    2.123004
     32          1           0       -3.663294    0.399302    2.681761
     33          1           0       -4.652998    1.483947    0.492996
 ---------------------------------------------------------------------

 SCF Done:  E(UB3LYP) =  -958.988341932     A.U. after   33 cycles
 SCF Done:  E(UB3LYP) =  -958.988341932     a.u. after    1 cycles

 The electronic state is 2-A.
 Alpha  occ. eigenvalues --  -88.77687 -19.02941 -14.19846 -10.11207 -10.11122
 Alpha  occ. eigenvalues --  -10.10143 -10.10131 -10.09893 -10.08179 -10.07726
 Alpha  occ. eigenvalues --  -10.07348 -10.06813 -10.05978 -10.05308  -7.86327
 Alpha  occ. eigenvalues --   -5.82606  -5.82246  -5.81938  -0.92902  -0.81569
 Alpha  occ. eigenvalues --   -0.78060  -0.71104  -0.65896  -0.63829  -0.62990
 Alpha  occ. eigenvalues --   -0.61451  -0.56474  -0.54787  -0.50990  -0.46786
 Alpha  occ. eigenvalues --   -0.46057  -0.44527  -0.41497  -0.41290  -0.38272
 Alpha  occ. eigenvalues --   -0.37633  -0.36441  -0.34176  -0.33526  -0.31896
 Alpha  occ. eigenvalues --   -0.31817  -0.31129  -0.30186  -0.29109  -0.28503
 Alpha  occ. eigenvalues --   -0.28159  -0.27298  -0.26638  -0.25975  -0.24631
 Alpha  occ. eigenvalues --   -0.24065  -0.22743  -0.22534  -0.21846  -0.18935
 Alpha  occ. eigenvalues --   -0.16076  -0.14696  -0.12607   0.04302
 Alpha virt. eigenvalues --    0.05854   0.06469   0.06994   0.07700   0.07826
 Alpha virt. eigenvalues --    0.08355   0.08829   0.09596   0.10212   0.10671
 Alpha virt. eigenvalues --    0.11283   0.11541   0.11936   0.12388   0.12497

  Beta  occ. eigenvalues --  -88.77676 -19.02922 -14.19836 -10.11200 -10.11115
  Beta  occ. eigenvalues --  -10.10075 -10.10067 -10.09888 -10.08170 -10.07710
  Beta  occ. eigenvalues --  -10.07337 -10.06791 -10.05942 -10.05287  -7.86316
  Beta  occ. eigenvalues --   -5.82601  -5.82241  -5.81905  -0.92858  -0.81533
  Beta  occ. eigenvalues --   -0.77991  -0.71069  -0.65819  -0.63765  -0.62921
  Beta  occ. eigenvalues --   -0.61411  -0.56423  -0.54728  -0.50935  -0.46713
  Beta  occ. eigenvalues --   -0.45987  -0.44433  -0.41439  -0.41257  -0.38213
  Beta  occ. eigenvalues --   -0.37600  -0.36412  -0.34143  -0.33494  -0.31854
  Beta  occ. eigenvalues --   -0.31736  -0.31084  -0.30139  -0.29069  -0.28444
  Beta  occ. eigenvalues --   -0.28105  -0.27186  -0.26602  -0.25928  -0.24569
  Beta  occ. eigenvalues --   -0.24032  -0.22711  -0.22487  -0.21820  -0.18908
  Beta  occ. eigenvalues --   -0.15931  -0.14447  -0.12505
  Beta virt. eigenvalues --    0.06401   0.06739   0.06943   0.07644   0.08051
  Beta virt. eigenvalues --    0.08283   0.08833   0.09275   0.09974   0.10456
  Beta virt. eigenvalues --    0.10919   0.11490   0.11756   0.12127   0.12518

 Mulliken charges and spin densities:
               1          2
     1  C    1.436213  -2.083142
     2  C   -1.622034   1.477309
     3  C    1.294273  -0.572544
     4  C    0.432374  -1.174573
     5  C   -1.212383   0.704014
     6  C   -0.407003  -0.537260
     7  O   -0.183187  -0.002372
     8  N    0.162891  -0.015138
     9  C    0.427440  -1.221353
    10  C    0.725529  -0.088477
    11  C   -1.595142   1.247345
    12  C    1.285701  -1.612196
    13  C   -0.541623   0.205324
    14  S    0.124618   0.088879
    15  H   -0.023206   0.167972
    16  H   -0.506755   0.651876
    17  H   -0.301506   0.444456
    18  H   -0.140301   0.301351
    19  H   -0.013431   0.120027
    20  H    0.089402   0.098386
    21  H   -0.204144   0.350112
    22  H    0.166632  -0.011054
    23  H   -0.024929   0.170797
    24  H    0.468788  -0.337726
    25  H    0.419742  -0.248143
    26  H   -0.304545   0.453894
    27  H    0.039378   0.226024
    28  H    0.217179   0.049987
    29  H   -0.160151   0.340818
    30  H    0.110950   0.085721
    31  H   -0.690684   0.854636
    32  H   -0.341989   0.500636
    33  H   -0.128100   0.364413
 Sum of Mulliken charges =  -1.00000   1.00000

 Dipole moment (field-independent basis, Debye):
    X=             -3.7829    Y=             -0.8308    Z=             -2.7596  Tot=              4.7557
 Quadrupole moment (field-independent basis, Debye-Ang):
   XX=           -185.4458   YY=           -135.5554   ZZ=           -134.0574
   XY=             -8.0356   XZ=              2.3137   YZ=              2.7870

 Summary of Natural Population Analysis:

                                       Natural Population
                Natural  -----------------------------------------------
    Atom  No    Charge         Core      Valence    Rydberg      Total
 -----------------------------------------------------------------------
      C    1   -0.28469      0.99967     2.27979    0.00523     3.28469
      C    2   -0.19129      0.99962     2.18220    0.00946     3.19129
      C    3   -0.11343      0.99958     2.10156    0.01229     3.11343
      C    4   -0.28702      0.99965     2.28219    0.00518     3.28702
      C    5   -0.02108      0.99957     2.00881    0.01270     3.02108
      C    6   -0.02023      0.99956     2.00760    0.01308     3.02023
      O    7   -0.37302      0.99990     3.36667    0.00646     4.37302
      N    8   -0.34314      0.99974     2.83123    0.01217     3.84314
      C    9   -0.10122      0.99955     2.08871    0.01296     3.10122
      C   10   -0.09964      0.99950     2.08631    0.01383     3.09964
      C   11   -0.13169      0.99945     2.12107    0.01117     3.13169
      C   12   -0.12869      0.99953     2.11742    0.01174     3.12869
      C   13   -0.18670      0.99954     2.17675    0.01042     3.18670
      S   14    0.20076      4.99939     2.77989    0.01996     7.79924
      H   15    0.09674      0.00000     0.40222    0.00104     0.40326
      H   16    0.10055      0.00000     0.39820    0.00125     0.39945
      H   17    0.09613      0.00000     0.40258    0.00129     0.40387
      H   18    0.09450      0.00000     0.40426    0.00124     0.40550
      H   19    0.09428      0.00000     0.40401    0.00172     0.40572
      H   20    0.09159      0.00000     0.40644    0.00197     0.40841
      H   21    0.09426      0.00000     0.40465    0.00110     0.40574
      H   22    0.10912      0.00000     0.38954    0.00134     0.39088
      H   23    0.09822      0.00000     0.40089    0.00089     0.40178
      H   24    0.09586      0.00000     0.40187    0.00227     0.40414
      H   25    0.09545      0.00000     0.40254    0.00201     0.40455
      H   26    0.08076      0.00000     0.41791    0.00133     0.41924
      H   27    0.22845      0.00000     0.26836    0.00319     0.27155
      H   28    0.18074      0.00000     0.31670    0.00256     0.31926
      H   29    0.10009      0.00000     0.39897    0.00094     0.39991
      H   30    0.10066      0.00000     0.39806    0.00128     0.39934
      H   31    0.10873      0.00000     0.38966    0.00162     0.39127
      H   32    0.10723      0.00000     0.39152    0.00125     0.39277
      H   33    0.10774      0.00000     0.39133    0.00093     0.39226
 =======================================================================
   * Total *    0.00000     17.99424    39.81989    0.18586    58.00000

 Normal termination of Gaussian 16 at Thu Dec 10 09:56:08 2020.
