 Gaussian 16, Revision A.03,

 -----------------------------------------------------------
 # opt freq B3LYP/6-31G(d) empiricaldispersion=gd3bj scf=xqc
 -----------------------------------------------------------

 ------------------------------
 CID_13301931_JID_1041_neutraal
 ------------------------------
 Symbolic Z-matrix:
 Charge =  0 Multiplicity = 1

 SCF Done:  E(RB3LYP) =  -464.520380130     A.U. after   13 cycles
 SCF Done:  E(RB3LYP) =  -464.527511148     A.U. after   13 cycles
 SCF Done:  E(RB3LYP) =  -464.529973550     A.U. after   12 cycles
 SCF Done:  E(RB3LYP) =  -464.531087703     A.U. after   12 cycles
 SCF Done:  E(RB3LYP) =  -464.531424794     A.U. after   11 cycles
 SCF Done:  E(RB3LYP) =  -464.531582919     A.U. after   11 cycles
 SCF Done:  E(RB3LYP) =  -464.531613673     A.U. after   10 cycles
 SCF Done:  E(RB3LYP) =  -464.531618540     A.U. after    8 cycles
 SCF Done:  E(RB3LYP) =  -464.531619099     A.U. after    8 cycles
 Optimization completed.
    -- Stationary point found.

 1\1\GINC-NODE310\FOpt\RB3LYP\6-31G(d)\C9H20N2\VSC10255\08-Dec-2020\0\\
 # opt freq B3LYP/6-31G(d) empiricaldispersion=gd3bj scf=xqc\\CID_13301
 931_JID_1041_neutraal\\0,1\C,1.4502950459,0.079536668,0.2636813351\C,0
 .506146538,-0.4537499893,1.3615663521\C,0.9396657845,0.0836327257,2.73
 10993342\C,-0.9367031633,-0.0009446816,1.0517276605\C,0.5471782858,-1.
 9647766052,1.3283148613\N,0.8610028469,-2.6683285577,2.3449841123\N,0.
 7972580438,-4.0357597375,2.2515565527\C,1.7446783992,-4.7476380913,3.1
 366657871\C,1.5239024393,-6.2427334268,2.8823042345\C,3.1990913849,-4.

 Normal termination of Gaussian 16 at Tue Dec  8 19:11:06 2020.

 --------------------------------------------------------------------
 #N Geom=AllCheck Guess=TCheck SCRF=Check GenChk RB3LYP/6-31G(d) Freq
 --------------------------------------------------------------------

 Structure from the checkpoint file:  "JID_1041.chk"
 ------------------------------
 CID_13301931_JID_1041_neutraal
 ------------------------------
 Charge =  0 Multiplicity = 1

 SCF Done:  E(RB3LYP) =  -464.531619099     A.U. after    1 cycles

  Exact polarizability: 149.545  -2.637 101.928   0.750   1.365  93.771
 Approx polarizability: 186.367  -7.812 148.459   2.948   3.379 131.855

                      1                      2                      3
                      A                      A                      A
 Frequencies --     30.9053                58.5560                91.0220
 Red. masses --      2.7443                 2.8287                 3.1859
 Frc consts  --      0.0015                 0.0057                 0.0156
 IR Inten    --      0.0391                 0.2389                 0.2680

                      4                      5                      6
                      A                      A                      A
 Frequencies --    117.6779               197.8231               218.0476
 Red. masses --      3.0901                 1.5400                 1.3620
 Frc consts  --      0.0252                 0.0355                 0.0382
 IR Inten    --      1.7410                 6.0168                 3.5621

                      7                      8                      9
                      A                      A                      A
 Frequencies --    224.1936               252.1659               263.3884
 Red. masses --      1.0760                 1.5689                 2.3792
 Frc consts  --      0.0319                 0.0588                 0.0972
 IR Inten    --      0.7247                 1.1955                 5.8677

                     10                     11                     12
                      A                      A                      A
 Frequencies --    269.0908               275.7320               277.4590
 Red. masses --      1.2395                 1.0486                 1.1676
 Frc consts  --      0.0529                 0.0470                 0.0530
 IR Inten    --      0.2348                 0.0868                 0.4604

                     13                     14                     15
                      A                      A                      A
 Frequencies --    284.3753               337.6637               342.1219
 Red. masses --      1.1684                 2.3357                 2.4846
 Frc consts  --      0.0557                 0.1569                 0.1713
 IR Inten    --      0.9972                 0.8437                 0.5004

                     16                     17                     18
                      A                      A                      A
 Frequencies --    355.2837               368.1625               414.1248
 Red. masses --      2.2475                 2.3793                 2.2672
 Frc consts  --      0.1671                 0.1900                 0.2291
 IR Inten    --      1.1550                 1.7196                 0.2447

                     19                     20                     21
                      A                      A                      A
 Frequencies --    447.8995               454.3724               491.7093
 Red. masses --      2.5627                 2.8201                 2.4164
 Frc consts  --      0.3029                 0.3430                 0.3442
 IR Inten    --      5.3430                 1.3140                 5.8691

                     22                     23                     24
                      A                      A                      A
 Frequencies --    533.3220               606.0123               721.1421
 Red. masses --      2.4838                 4.1012                 2.3725
 Frc consts  --      0.4162                 0.8874                 0.7269
 IR Inten    --      5.3642                21.0471                64.1486

                     25                     26                     27
                      A                      A                      A
 Frequencies --    773.8273               802.9915               926.5500
 Red. masses --      2.5073                 2.8267                 1.9494
 Frc consts  --      0.8846                 1.0739                 0.9860
 IR Inten    --     19.9567                 4.0237                 0.3508

                     28                     29                     30
                      A                      A                      A
 Frequencies --    932.6154               941.9421               942.4257
 Red. masses --      1.7916                 1.7904                 1.5735
 Frc consts  --      0.9181                 0.9360                 0.8234
 IR Inten    --      1.8971                 0.6842                13.6286

                     31                     32                     33
                      A                      A                      A
 Frequencies --    948.0075               956.1873               975.7643
 Red. masses --      1.7190                 1.5988                 1.2034
 Frc consts  --      0.9102                 0.8612                 0.6751
 IR Inten    --      1.2795                 0.3246                 0.0427

                     34                     35                     36
                      A                      A                      A
 Frequencies --    976.0987               992.8890              1056.9520
 Red. masses --      1.2014                 1.6410                 1.4105
 Frc consts  --      0.6744                 0.9531                 0.9284
 IR Inten    --      0.0194                 4.3140                 1.8904

                     37                     38                     39
                      A                      A                      A
 Frequencies --   1059.6274              1067.0439              1074.7236
 Red. masses --      1.4318                 1.4418                 1.5829
 Frc consts  --      0.9472                 0.9672                 1.0772
 IR Inten    --     10.3230                 1.0471                 7.3480

                     40                     41                     42
                      A                      A                      A
 Frequencies --   1153.0861              1241.5034              1248.1937
 Red. masses --      3.7879                 2.6344                 2.3338
 Frc consts  --      2.9674                 2.3924                 2.1422
 IR Inten    --    118.4228                 6.1799                 9.0941

                     43                     44                     45
                      A                      A                      A
 Frequencies --   1258.0525              1276.4704              1297.5274
 Red. masses --      2.5118                 2.6953                 2.8045
 Frc consts  --      2.3422                 2.5875                 2.7819
 IR Inten    --     42.7344                54.8425                 8.3978

                     46                     47                     48
                      A                      A                      A
 Frequencies --   1320.4977              1392.1460              1420.1568
 Red. masses --      2.7153                 1.4098                 1.2580
 Frc consts  --      2.7896                 1.6098                 1.4949
 IR Inten    --      4.3831                 5.2754                 9.6017

                     49                     50                     51
                      A                      A                      A
 Frequencies --   1421.9969              1424.1808              1426.7114
 Red. masses --      1.2191                 1.2728                 1.2428
 Frc consts  --      1.4524                 1.5211                 1.4904
 IR Inten    --      4.3218                 5.9379                 6.5271

                     52                     53                     54
                      A                      A                      A
 Frequencies --   1449.5003              1455.5248              1503.1632
 Red. masses --      1.2387                 1.2264                 1.0515
 Frc consts  --      1.5334                 1.5309                 1.3999
 IR Inten    --     11.9451                 2.4688                 0.9797

                     55                     56                     57
                      A                      A                      A
 Frequencies --   1508.0114              1513.1292              1515.9925
 Red. masses --      1.0487                 1.0882                 1.0761
 Frc consts  --      1.4051                 1.4679                 1.4571
 IR Inten    --      0.0644                 5.4061                 8.6581

                     58                     59                     60
                      A                      A                      A
 Frequencies --   1516.4216              1516.7952              1520.9869
 Red. masses --      1.0569                 1.0470                 1.0501
 Frc consts  --      1.4320                 1.4192                 1.4313
 IR Inten    --      2.0348                 0.0829                 0.5337

                     61                     62                     63
                      A                      A                      A
 Frequencies --   1528.0776              1529.3952              1534.2917
 Red. masses --      1.0615                 1.0520                 1.0570
 Frc consts  --      1.4603                 1.4497                 1.4660
 IR Inten    --      4.2290                 6.0284                 3.6986

                     64                     65                     66
                      A                      A                      A
 Frequencies --   1543.4872              1548.7541              1554.2241
 Red. masses --      1.1065                 1.0796                 1.1158
 Frc consts  --      1.5532                 1.5257                 1.5881
 IR Inten    --      2.0098                15.2461                 5.5552

                     67                     68                     69
                      A                      A                      A
 Frequencies --   1724.6664              2995.0191              3037.9927
 Red. masses --      8.8806                 1.0834                 1.0344
 Frc consts  --     15.5634                 5.7260                 5.6247
 IR Inten    --      3.0563                52.4678                25.2578

                     70                     71                     72
                      A                      A                      A
 Frequencies --   3040.0308              3042.4183              3045.3232
 Red. masses --      1.0380                 1.0351                 1.0381
 Frc consts  --      5.6522                 5.6450                 5.6723
 IR Inten    --     16.9292                39.7199                38.6462

                     73                     74                     75
                      A                      A                      A
 Frequencies --   3055.9373              3060.9805              3102.8024
 Red. masses --      1.0371                 1.0370                 1.1024
 Frc consts  --      5.7064                 5.7248                 6.2533
 IR Inten    --     19.7899                16.7091                 0.3137

                     76                     77                     78
                      A                      A                      A
 Frequencies --   3104.6766              3108.0874              3111.5326
 Red. masses --      1.0999                 1.1016                 1.0973
 Frc consts  --      6.2464                 6.2699                 6.2592
 IR Inten    --      7.4963                63.2944                58.5791

                     79                     80                     81
                      A                      A                      A
 Frequencies --   3115.1017              3118.3467              3124.0482
 Red. masses --      1.1029                 1.1024                 1.1010
 Frc consts  --      6.3056                 6.3157                 6.3308
 IR Inten    --     15.2286                16.0430                69.5036

                     82                     83                     84
                      A                      A                      A
 Frequencies --   3126.2602              3131.6051              3135.9801
 Red. masses --      1.1027                 1.1019                 1.1027
 Frc consts  --      6.3499                 6.3670                 6.3895
 IR Inten    --     10.4399                13.9104                49.3596

                     85                     86                     87
                      A                      A                      A
 Frequencies --   3137.3933              3151.3720              3381.7541
 Red. masses --      1.1020                 1.1010                 1.0733
 Frc consts  --      6.3908                 6.4424                 7.2319
 IR Inten    --     30.4129                21.7454                10.7891

 - Thermochemistry -
 -------------------
 Temperature   298.150 Kelvin.  Pressure   1.00000 Atm.
 Atom     1 has atomic number  6 and mass  12.00000

 Molecular mass:   156.16265 amu.
 Principal axes and moments of inertia in atomic units:
                           1         2         3
     Eigenvalues --   811.531863783.678123791.76227
           X            1.00000  -0.00038  -0.00138
           Y            0.00020   0.99188  -0.12719
           Z            0.00142   0.12719   0.99188
 This molecule is an asymmetric top.
 Rotational symmetry number  1.
 Warning -- assumption of classical behavior for rotation
           may cause significant error
 Rotational temperatures (Kelvin)      0.10673     0.02289     0.02284
 Rotational constants (GHZ):           2.22387     0.47698     0.47596
 Zero-point vibrational energy     744851.8 (Joules/Mol)
                                  178.02386 (Kcal/Mol)
 Warning -- explicit consideration of  23 degrees of freedom as
           vibrations may cause significant error
 Vibrational temperatures:     44.47    84.25   130.96   169.31   284.62
          (Kelvin)            313.72   322.56   362.81   378.96   387.16
                              396.72   399.20   409.15   485.82   492.24
                              511.17   529.70   595.83   644.43   653.74
                              707.46   767.33   871.92  1037.56  1113.36
                             1155.33  1333.10  1341.83  1355.24  1355.94
                             1363.97  1375.74  1403.91  1404.39  1428.55
                             1520.72  1524.57  1535.24  1546.29  1659.03
                             1786.25  1795.87  1810.06  1836.56  1866.85
                             1899.90  2002.99  2043.29  2045.94  2049.08
                             2052.72  2085.51  2094.18  2162.72  2169.69
                             2177.06  2181.18  2181.79  2182.33  2188.36
                             2198.56  2200.46  2207.50  2220.73  2228.31
                             2236.18  2481.41  4309.16  4370.99  4373.93
                             4377.36  4381.54  4396.81  4404.07  4464.24
                             4466.94  4471.84  4476.80  4481.94  4486.61
                             4494.81  4497.99  4505.68  4511.98  4514.01
                             4534.12  4865.59

 Zero-point correction=                           0.283699 (Hartree/Particle)
 Thermal correction to Energy=                    0.297883
 Thermal correction to Enthalpy=                  0.298827
 Thermal correction to Gibbs Free Energy=         0.243751
 Sum of electronic and zero-point Energies=           -464.247920
 Sum of electronic and thermal Energies=              -464.233737
 Sum of electronic and thermal Enthalpies=            -464.232792
 Sum of electronic and thermal Free Energies=         -464.287868

                     E (Thermal)             CV                S
                      KCal/Mol        Cal/Mol-Kelvin    Cal/Mol-Kelvin
 Total                  186.924             53.610            115.916
 Electronic               0.000              0.000              0.000
 Translational            0.889              2.981             41.047
 Rotational               0.889              2.981             30.833
 Vibrational            185.147             47.649             44.036
 Vibration     1          0.594              1.984              5.770
 Vibration     2          0.596              1.974              4.505
 Vibration     3          0.602              1.956              3.638
 Vibration     4          0.608              1.935              3.138
 Vibration     5          0.637              1.843              2.153
 Vibration     6          0.646              1.814              1.975
 Vibration     7          0.649              1.804              1.925
 Vibration     8          0.664              1.759              1.715
 Vibration     9          0.670              1.740              1.639
 Vibration    10          0.673              1.730              1.602
 Vibration    11          0.677              1.718              1.560
 Vibration    12          0.678              1.715              1.549
 Vibration    13          0.683              1.703              1.507
 Vibration    14          0.718              1.600              1.223
 Vibration    15          0.721              1.591              1.202
 Vibration    16          0.731              1.564              1.143
 Vibration    17          0.741              1.538              1.087
 Vibration    18          0.778              1.440              0.912
 Vibration    19          0.807              1.366              0.802
 Vibration    20          0.813              1.351              0.783
 Vibration    21          0.847              1.268              0.679
 Vibration    22          0.888              1.176              0.580
 Vibration    23          0.965              1.019              0.439

 Optimization completed.
    -- Stationary point found.

 1\1\GINC-NODE310\Freq\RB3LYP\6-31G(d)\C9H20N2\VSC10255\08-Dec-2020\0\\
 #N Geom=AllCheck Guess=TCheck SCRF=Check GenChk RB3LYP/6-31G(d) Freq\\
 CID_13301931_JID_1041_neutraal\\0,1\C,1.4502950459,0.079536668,0.26368
 13351\C,0.506146538,-0.4537499893,1.3615663521\C,0.9396657845,0.083632
 7257,2.7310993342\C,-0.9367031633,-0.0009446816,1.0517276605\C,0.54717
 82858,-1.9647766052,1.3283148613\N,0.8610028469,-2.6683285577,2.344984
 1123\N,0.7972580438,-4.0357597375,2.2515565527\C,1.7446783992,-4.74763
 80913,3.1366657871\C,1.5239024393,-6.2427334268,2.8823042345\C,3.19909

 Normal termination of Gaussian 16 at Tue Dec  8 19:17:16 2020.

 ----------------------------------------------------------------------
 # B3LYP/6-311++G(d,p) empiricaldispersion=gd3bj scf=xqc pop=npa geom=c
 heck
 ----------------------------------------------------------------------

 --------------------------------------
 CID_13301931_JID_1041_Energie_neutraal
 --------------------------------------
 Structure from the checkpoint file:  "JID_1041.chk"
 Charge =  0 Multiplicity = 1

 SCF Done:  E(RB3LYP) =  -464.665361038     A.U. after   13 cycles
 Normal termination of Gaussian 16 at Tue Dec  8 19:19:42 2020.

 ----------------------------------------------------------------------
 # B3LYP/6-311++G(d,p) empiricaldispersion=gd3bj scf=xqc pop=npa geom=c
 heck
 ----------------------------------------------------------------------

 ------------------------------------
 CID_13301931_JID_1041_Energie_kation
 ------------------------------------
 Structure from the checkpoint file:  "JID_1041.chk"
 Charge =  1 Multiplicity = 2

 SCF Done:  E(UB3LYP) =  -464.374126674     A.U. after   19 cycles
 Normal termination of Gaussian 16 at Tue Dec  8 19:24:17 2020.
 Gaussian 16:  ES64L-G16RevA.03 25-Dec-2016

 -----------------------------------
 CID_13301931_JID_1041_Energie_anion
 -----------------------------------
 Structure from the checkpoint file:  "JID_1041.chk"
 Charge = -1 Multiplicity = 2

                         Standard orientation:
 ---------------------------------------------------------------------
 Center     Atomic      Atomic             Coordinates (Angstroms)
 Number     Number       Type             X           Y           Z
 ---------------------------------------------------------------------
      1          6           0        3.052081   -0.813701    1.154451
      2          6           0        2.412862   -0.004374    0.006605
      3          6           0        2.277638    1.467503    0.416035
      4          6           0        3.301184   -0.121041   -1.250424
      5          6           0        1.064171   -0.611594   -0.306935
      6          7           0       -0.019467    0.060354   -0.270846
      7          7           0       -1.190825   -0.547918   -0.645793
      8          6           0       -2.395707    0.000588    0.013900
      9          6           0       -3.581665   -0.805487   -0.526931
     10          6           0       -2.303216   -0.140062    1.543306
     11          6           0       -2.531764    1.475737   -0.381187
     12          1           0        4.058706   -0.439160    1.374789
     13          1           0        3.139588   -1.875271    0.892561
     14          1           0        2.451140   -0.738312    2.067522
     15          1           0        3.265389    1.888009    0.637577
     16          1           0        1.818116    2.056291   -0.383037
     17          1           0        1.648085    1.571355    1.305064
     18          1           0        3.396161   -1.164359   -1.575093
     19          1           0        2.878734    0.455043   -2.080767
     20          1           0        4.309000    0.259437   -1.045267
     21          1           0        1.064044   -1.678333   -0.587531
     22          1           0       -1.153378   -1.568966   -0.562243
     23          1           0       -3.493229   -1.867582   -0.263572
     24          1           0       -4.519468   -0.435742   -0.100195
     25          1           0       -3.637364   -0.724954   -1.617225
     26          1           0       -1.424391    0.393311    1.918394
     27          1           0       -3.194192    0.268722    2.033398
     28          1           0       -2.212330   -1.194885    1.831962
     29          1           0       -1.659253    2.042504   -0.047554
     30          1           0       -2.607463    1.571903   -1.469048
     31          1           0       -3.429368    1.908528    0.073826
 ---------------------------------------------------------------------

 SCF Done:  E(UB3LYP) =  -464.649414880     A.U. after   31 cycles

 The electronic state is 2-A.
 Alpha  occ. eigenvalues --  -14.23027 -14.22972 -10.10976 -10.08991 -10.08764
 Alpha  occ. eigenvalues --  -10.06131 -10.05887 -10.05763 -10.05280 -10.05274
 Alpha  occ. eigenvalues --  -10.05190  -0.89306  -0.75531  -0.71132  -0.64758
 Alpha  occ. eigenvalues --   -0.59097  -0.58708  -0.58511  -0.58444  -0.51936
 Alpha  occ. eigenvalues --   -0.45925  -0.44324  -0.40280  -0.37996  -0.35303
 Alpha  occ. eigenvalues --   -0.34872  -0.33901  -0.33000  -0.32517  -0.30229
 Alpha  occ. eigenvalues --   -0.29218  -0.28734  -0.28087  -0.27363  -0.26569
 Alpha  occ. eigenvalues --   -0.26421  -0.26011  -0.23898  -0.23669  -0.23540
 Alpha  occ. eigenvalues --   -0.23004  -0.22346  -0.16754  -0.11567   0.04570
 Alpha virt. eigenvalues --    0.06427   0.07622   0.08060   0.08799   0.09129
 Alpha virt. eigenvalues --    0.09303   0.10023   0.10388   0.10748   0.11213
 Alpha virt. eigenvalues --    0.11578   0.11864   0.12026   0.12677   0.13634

  Beta  occ. eigenvalues --  -14.23007 -14.22954 -10.10972 -10.08976 -10.08761
  Beta  occ. eigenvalues --  -10.06108 -10.05853 -10.05729 -10.05262 -10.05255
  Beta  occ. eigenvalues --  -10.05159  -0.89282  -0.75510  -0.71113  -0.64722
  Beta  occ. eigenvalues --   -0.59044  -0.58658  -0.58462  -0.58399  -0.51875
  Beta  occ. eigenvalues --   -0.45865  -0.44274  -0.40219  -0.37963  -0.35273
  Beta  occ. eigenvalues --   -0.34833  -0.33865  -0.32969  -0.32484  -0.30201
  Beta  occ. eigenvalues --   -0.29188  -0.28700  -0.28054  -0.27328  -0.26540
  Beta  occ. eigenvalues --   -0.26390  -0.25980  -0.23870  -0.23634  -0.23510
  Beta  occ. eigenvalues --   -0.22974  -0.22312  -0.16672  -0.11541
  Beta virt. eigenvalues --    0.06697   0.07327   0.08372   0.08491   0.09354
  Beta virt. eigenvalues --    0.09507   0.09769   0.10395   0.10597   0.11134
  Beta virt. eigenvalues --    0.11625   0.11809   0.12186   0.12460   0.12999

 Mulliken charges and spin densities:
               1          2
     1  C    0.803066  -1.323127
     2  C   -2.129345   2.715643
     3  C    0.194444  -0.793429
     4  C    0.353505  -0.882624
     5  C    1.196707  -1.701767
     6  N   -0.188009   0.295268
     7  N    0.532843  -0.339556
     8  C   -1.748314   1.517006
     9  C    0.461929  -0.848278
    10  C    1.080394  -1.587487
    11  C    0.425589  -0.926899
    12  H   -0.267307   0.420540
    13  H   -0.289303   0.430294
    14  H   -0.056768   0.196010
    15  H   -0.083834   0.228658
    16  H    0.062592   0.087793
    17  H    0.039843   0.115981
    18  H   -0.088530   0.227203
    19  H    0.030929   0.112466
    20  H   -0.211175   0.361823
    21  H   -0.349316   0.408751
    22  H    0.293773  -0.087372
    23  H   -0.533052   0.674807
    24  H   -0.031966   0.175804
    25  H   -0.145068   0.296337
    26  H    0.035315   0.108034
    27  H   -0.079812   0.215921
    28  H   -0.313215   0.468865
    29  H    0.068822   0.098474
    30  H    0.033602   0.114122
    31  H   -0.098339   0.220738
 Sum of Mulliken charges =  -1.00000   1.00000

 Dipole moment (field-independent basis, Debye):
    X=             -0.1751    Y=              2.7150    Z=             -1.3845  Tot=              3.0527
 Quadrupole moment (field-independent basis, Debye-Ang):
   XX=           -151.8377   YY=           -111.9862   ZZ=           -106.0266
   XY=             -2.1609   XZ=             -0.5297   YZ=              1.8547

 Summary of Natural Population Analysis:

                                       Natural Population
                Natural  -----------------------------------------------
    Atom  No    Charge         Core      Valence    Rydberg      Total
 -----------------------------------------------------------------------
      C    1   -0.28046      0.99963     2.27388    0.00695     3.28046
      C    2   -0.07271      0.99959     2.06115    0.01198     3.07271
      C    3   -0.28109      0.99963     2.27515    0.00630     3.28109
      C    4   -0.28041      0.99963     2.27398    0.00680     3.28041
      C    5    0.03989      0.99957     1.94490    0.01564     2.96011
      N    6   -0.13254      0.99962     2.62082    0.01209     3.63254
      N    7   -0.23678      0.99969     2.72298    0.01411     3.73678
      C    8    0.05311      0.99960     1.93289    0.01441     2.94689
      C    9   -0.28726      0.99961     2.28039    0.00726     3.28726
      C   10   -0.29426      0.99962     2.28755    0.00709     3.29426
      C   11   -0.28748      0.99961     2.28174    0.00613     3.28748
      H   12    0.09925      0.00000     0.39947    0.00128     0.40075
      H   13    0.10064      0.00000     0.39800    0.00136     0.39936
      H   14    0.10185      0.00000     0.39691    0.00125     0.39815
      H   15    0.09621      0.00000     0.40285    0.00094     0.40379
      H   16    0.10390      0.00000     0.39512    0.00099     0.39610
      H   17    0.10411      0.00000     0.39482    0.00106     0.39589
      H   18    0.09996      0.00000     0.39901    0.00103     0.40004
      H   19    0.10019      0.00000     0.39893    0.00088     0.39981
      H   20    0.09931      0.00000     0.39971    0.00098     0.40069
      H   21    0.07150      0.00000     0.42574    0.00276     0.42850
      H   22    0.16459      0.00000     0.33131    0.00410     0.33541
      H   23    0.10129      0.00000     0.39712    0.00159     0.39871
      H   24    0.10189      0.00000     0.39704    0.00107     0.39811
      H   25    0.10233      0.00000     0.39645    0.00122     0.39767
      H   26    0.10580      0.00000     0.39295    0.00125     0.39420
      H   27    0.09905      0.00000     0.39997    0.00099     0.40095
      H   28    0.10100      0.00000     0.39750    0.00150     0.39900
      H   29    0.10905      0.00000     0.38980    0.00116     0.39095
      H   30    0.10091      0.00000     0.39811    0.00098     0.39909
      H   31    0.09715      0.00000     0.40200    0.00085     0.40285
 =======================================================================
   * Total *    0.00000     10.99578    32.86821    0.13601    44.00000

 Normal termination of Gaussian 16 at Tue Dec  8 19:31:48 2020.
