 Gaussian 16, Revision A.03,

 -----------------------------------------------------------
 # opt freq B3LYP/6-31G(d) empiricaldispersion=gd3bj scf=xqc
 -----------------------------------------------------------

 -------------------------------
 CID_146790151_JID_1617_neutraal
 -------------------------------
 Symbolic Z-matrix:
 Charge =  0 Multiplicity = 1

 SCF Done:  E(RB3LYP) =  -481.947667078     A.U. after   14 cycles
 SCF Done:  E(RB3LYP) =  -481.951626441     A.U. after   12 cycles
 SCF Done:  E(RB3LYP) =  -481.952637403     A.U. after   11 cycles
 SCF Done:  E(RB3LYP) =  -481.953174448     A.U. after   12 cycles
 SCF Done:  E(RB3LYP) =  -481.953567393     A.U. after   11 cycles
 SCF Done:  E(RB3LYP) =  -481.953896388     A.U. after   11 cycles
 SCF Done:  E(RB3LYP) =  -481.954020819     A.U. after   11 cycles
 SCF Done:  E(RB3LYP) =  -481.954170777     A.U. after   11 cycles
 SCF Done:  E(RB3LYP) =  -481.954212097     A.U. after   10 cycles
 SCF Done:  E(RB3LYP) =  -481.954239749     A.U. after   10 cycles
 SCF Done:  E(RB3LYP) =  -481.954244715     A.U. after   10 cycles
 SCF Done:  E(RB3LYP) =  -481.954244785     A.U. after    9 cycles
 SCF Done:  E(RB3LYP) =  -481.954245421     A.U. after    8 cycles
 SCF Done:  E(RB3LYP) =  -481.954245469     A.U. after    7 cycles
 Optimization completed.
    -- Stationary point found.
 Normal termination of Gaussian 16 at Tue Dec  8 19:46:51 2020.

 --------------------------------------------------------------------
 #N Geom=AllCheck Guess=TCheck SCRF=Check GenChk RB3LYP/6-31G(d) Freq
 --------------------------------------------------------------------

 Structure from the checkpoint file:  "JID_1617.chk"
 -------------------------------
 CID_146790151_JID_1617_neutraal
 -------------------------------
 Charge =  0 Multiplicity = 1

 SCF Done:  E(RB3LYP) =  -481.954245469     A.U. after    1 cycles

  Exact polarizability: 133.688   4.021  98.284   6.226  -7.905  78.527
 Approx polarizability: 175.249   5.948 146.454  17.562 -17.656 124.131

                      1                      2                      3
                      A                      A                      A
 Frequencies --     66.1454                76.8430               109.2655
 Red. masses --      3.4316                 3.1974                 2.1445
 Frc consts  --      0.0088                 0.0111                 0.0151
 IR Inten    --      2.0573                 2.0359                 3.2255

                      4                      5                      6
                      A                      A                      A
 Frequencies --    157.9537               176.2404               193.1240
 Red. masses --      2.9032                 1.3819                 2.3976
 Frc consts  --      0.0427                 0.0253                 0.0527
 IR Inten    --      4.6676                 4.0316                10.4535

                      7                      8                      9
                      A                      A                      A
 Frequencies --    223.0390               252.7508               259.4261
 Red. masses --      1.7254                 1.5555                 1.0824
 Frc consts  --      0.0506                 0.0585                 0.0429
 IR Inten    --     25.9989                59.2310                 8.7786

                     10                     11                     12
                      A                      A                      A
 Frequencies --    322.7922               342.2190               366.1747
 Red. masses --      2.4774                 3.9903                 3.0920
 Frc consts  --      0.1521                 0.2753                 0.2443
 IR Inten    --      6.8363                 6.9411                 7.7710

                     13                     14                     15
                      A                      A                      A
 Frequencies --    404.4430               414.2472               473.0272
 Red. masses --      4.1642                 2.7832                 3.1267
 Frc consts  --      0.4013                 0.2814                 0.4122
 IR Inten    --      5.0250                 0.5342                10.3615

                     16                     17                     18
                      A                      A                      A
 Frequencies --    548.0043               636.7041               656.7848
 Red. masses --      2.2285                 4.9279                 2.9675
 Frc consts  --      0.3943                 1.1770                 0.7542
 IR Inten    --     15.7622                 1.7458                10.4789

                     19                     20                     21
                      A                      A                      A
 Frequencies --    717.2730               756.5568               768.8780
 Red. masses --      1.9475                 2.8005                 1.7451
 Frc consts  --      0.5903                 0.9444                 0.6078
 IR Inten    --     30.2829                14.3287                16.1429

                     22                     23                     24
                      A                      A                      A
 Frequencies --    802.7791               813.7971               893.5167
 Red. masses --      1.4827                 1.9835                 2.4379
 Frc consts  --      0.5630                 0.7740                 1.1468
 IR Inten    --     34.6994                53.1345                 6.0926

                     25                     26                     27
                      A                      A                      A
 Frequencies --    942.2191               974.6392               988.0367
 Red. masses --      1.9570                 1.2589                 1.6767
 Frc consts  --      1.0236                 0.7046                 0.9644
 IR Inten    --     10.6084                 0.3590                 3.7129

                     28                     29                     30
                      A                      A                      A
 Frequencies --   1022.3783              1045.3266              1068.2912
 Red. masses --      2.1628                 2.1126                 5.1540
 Frc consts  --      1.3320                 1.3601                 3.4656
 IR Inten    --      4.1456                12.9237                72.9858

                     31                     32                     33
                      A                      A                      A
 Frequencies --   1070.2897              1105.4914              1141.1506
 Red. masses --      1.6443                 2.3327                 2.1607
 Frc consts  --      1.1098                 1.6796                 1.6578
 IR Inten    --     16.7862                 6.2357                 0.5174

                     34                     35                     36
                      A                      A                      A
 Frequencies --   1158.2652              1168.0025              1175.2163
 Red. masses --      1.3517                 1.4521                 1.7473
 Frc consts  --      1.0684                 1.1672                 1.4219
 IR Inten    --     32.6035                 4.6176                20.8099

                     37                     38                     39
                      A                      A                      A
 Frequencies --   1215.6142              1249.1895              1259.4507
 Red. masses --      1.1436                 1.3727                 1.2860
 Frc consts  --      0.9957                 1.2620                 1.2018
 IR Inten    --      2.1459                17.0450                 2.7208

                     40                     41                     42
                      A                      A                      A
 Frequencies --   1279.5242              1315.3383              1332.6626
 Red. masses --      1.6590                 1.2962                 1.3940
 Frc consts  --      1.6003                 1.3213                 1.4587
 IR Inten    --    101.2161                 2.7124                25.5403

                     43                     44                     45
                      A                      A                      A
 Frequencies --   1354.5872              1361.4946              1388.6243
 Red. masses --      1.6319                 1.4941                 1.5997
 Frc consts  --      1.7642                 1.6318                 1.8175
 IR Inten    --      0.3726                 2.8990                 6.9744

                     46                     47                     48
                      A                      A                      A
 Frequencies --   1442.9468              1456.0660              1467.0574
 Red. masses --      1.3063                 1.7413                 1.4259
 Frc consts  --      1.6025                 2.1751                 1.8082
 IR Inten    --     10.4274                20.3168                 6.1312

                     49                     50                     51
                      A                      A                      A
 Frequencies --   1485.4568              1511.5345              1520.2065
 Red. masses --      1.2095                 1.3217                 1.0590
 Frc consts  --      1.5725                 1.7791                 1.4420
 IR Inten    --      0.4275                 0.9896                17.5233

                     52                     53                     54
                      A                      A                      A
 Frequencies --   1522.6862              1526.4247              1543.2912
 Red. masses --      1.0553                 1.0581                 1.0820
 Frc consts  --      1.4417                 1.4525                 1.5183
 IR Inten    --      6.9821                 3.4318                 8.7551

                     55                     56                     57
                      A                      A                      A
 Frequencies --   1547.6625              1667.3590              1729.4088
 Red. masses --      1.0638                 6.5812                 6.1100
 Frc consts  --      1.5013                10.7799                10.7667
 IR Inten    --      9.9221                23.7845                62.7684

                     58                     59                     60
                      A                      A                      A
 Frequencies --   2959.8992              2993.9481              2996.0979
 Red. masses --      1.0810                 1.0568                 1.0592
 Frc consts  --      5.5801                 5.5812                 5.6018
 IR Inten    --     30.1508                97.7108                56.5719

                     61                     62                     63
                      A                      A                      A
 Frequencies --   3030.3340              3050.7371              3055.9585
 Red. masses --      1.1007                 1.0441                 1.0852
 Frc consts  --      5.9553                 5.7254                 5.9712
 IR Inten    --     22.8104                40.5110                46.2632

                     64                     65                     66
                      A                      A                      A
 Frequencies --   3100.7956              3120.2448              3141.6652
 Red. masses --      1.0781                 1.0968                 1.1030
 Frc consts  --      6.1073                 6.2918                 6.4144
 IR Inten    --     34.2871                28.2892                28.1888

                     67                     68                     69
                      A                      A                      A
 Frequencies --   3149.9149              3157.6035              3169.0016
 Red. masses --      1.1005                 1.0897                 1.0863
 Frc consts  --      6.4335                 6.4014                 6.4276
 IR Inten    --     21.7647                33.3737                 6.6413

                     70                     71                     72
                      A                      A                      A
 Frequencies --   3197.9798              3533.4161              3750.4419
 Red. masses --      1.0957                 1.0744                 1.0664
 Frc consts  --      6.6022                 7.9030                 8.8379
 IR Inten    --     26.6612                 0.8885                10.9110

 - Thermochemistry -
 -------------------
 Temperature   298.150 Kelvin.  Pressure   1.00000 Atm.
 Atom     1 has atomic number  6 and mass  12.00000

 Molecular mass:   153.11536 amu.
 Principal axes and moments of inertia in atomic units:
                           1         2         3
     Eigenvalues --   836.067732716.766253198.02065
           X            0.99997   0.00759  -0.00261
           Y           -0.00760   0.99997  -0.00313
           Z            0.00259   0.00315   0.99999
 This molecule is an asymmetric top.
 Rotational symmetry number  1.
 Warning -- assumption of classical behavior for rotation
           may cause significant error
 Rotational temperatures (Kelvin)      0.10360     0.03188     0.02708
 Rotational constants (GHZ):           2.15861     0.66430     0.56433
 Zero-point vibrational energy     603372.0 (Joules/Mol)
                                  144.20936 (Kcal/Mol)
 Warning -- explicit consideration of  16 degrees of freedom as
           vibrations may cause significant error
 Vibrational temperatures:     95.17   110.56   157.21   227.26   253.57
          (Kelvin)            277.86   320.90   363.65   373.26   464.43
                              492.38   526.84   581.90   596.01   680.58
                              788.46   916.08   944.97  1032.00  1088.52
                             1106.24  1155.02  1170.87  1285.57  1355.64
                             1402.29  1421.56  1470.97  1503.99  1537.03
                             1539.91  1590.56  1641.86  1666.49  1680.50
                             1690.87  1749.00  1797.31  1812.07  1840.95
                             1892.48  1917.40  1948.95  1958.89  1997.92
                             2076.08  2094.95  2110.77  2137.24  2174.76
                             2187.24  2190.81  2196.18  2220.45  2226.74
                             2398.96  2488.23  4258.63  4307.62  4310.72
                             4359.97  4389.33  4396.84  4461.35  4489.34
                             4520.16  4532.03  4543.09  4559.49  4601.18
                             5083.80  5396.05

 Zero-point correction=                           0.229812 (Hartree/Particle)
 Thermal correction to Energy=                    0.241636
 Thermal correction to Enthalpy=                  0.242580
 Thermal correction to Gibbs Free Energy=         0.192518
 Sum of electronic and zero-point Energies=           -481.724433
 Sum of electronic and thermal Energies=              -481.712609
 Sum of electronic and thermal Enthalpies=            -481.711665
 Sum of electronic and thermal Free Energies=         -481.761728

                     E (Thermal)             CV                S
                      KCal/Mol        Cal/Mol-Kelvin    Cal/Mol-Kelvin
 Total                  151.629             44.651            105.366
 Electronic               0.000              0.000              0.000
 Translational            0.889              2.981             40.988
 Rotational               0.889              2.981             30.364
 Vibrational            149.852             38.689             34.014
 Vibration     1          0.598              1.970              4.265
 Vibration     2          0.599              1.965              3.970
 Vibration     3          0.606              1.942              3.282
 Vibration     4          0.621              1.894              2.574
 Vibration     5          0.628              1.872              2.368
 Vibration     6          0.635              1.849              2.198
 Vibration     7          0.649              1.806              1.934
 Vibration     8          0.664              1.758              1.711
 Vibration     9          0.668              1.747              1.666
 Vibration    10          0.708              1.630              1.296
 Vibration    11          0.721              1.591              1.202
 Vibration    12          0.739              1.542              1.096
 Vibration    13          0.770              1.461              0.946
 Vibration    14          0.778              1.439              0.912
 Vibration    15          0.830              1.310              0.729
 Vibration    16          0.903              1.144              0.548

 Optimization completed.
    -- Stationary point found.
 Normal termination of Gaussian 16 at Tue Dec  8 19:52:38 2020.

 ----------------------------------------------------------------------
 # B3LYP/6-311++G(d,p) empiricaldispersion=gd3bj scf=xqc pop=npa geom=c
 heck
 ----------------------------------------------------------------------

 ---------------------------------------
 CID_146790151_JID_1617_Energie_neutraal
 ---------------------------------------
 Structure from the checkpoint file:  "JID_1617.chk"
 Charge =  0 Multiplicity = 1

 SCF Done:  E(RB3LYP) =  -482.103569710     A.U. after   15 cycles
 Normal termination of Gaussian 16 at Tue Dec  8 19:55:20 2020.

 ----------------------------------------------------------------------
 # B3LYP/6-311++G(d,p) empiricaldispersion=gd3bj scf=xqc pop=npa geom=c
 heck
 ----------------------------------------------------------------------

 -------------------------------------
 CID_146790151_JID_1617_Energie_kation
 -------------------------------------
 Structure from the checkpoint file:  "JID_1617.chk"
 Charge =  1 Multiplicity = 2

 SCF Done:  E(UB3LYP) =  -481.835651996     A.U. after   22 cycles
 Normal termination of Gaussian 16 at Tue Dec  8 20:00:59 2020.
 Gaussian 16:  ES64L-G16RevA.03 25-Dec-2016

 ----------------------------------------------------------------------
 # B3LYP/6-311++G(d,p) empiricaldispersion=gd3bj scf=xqc pop=npa geom=c
 heck
 ----------------------------------------------------------------------

 ------------------------------------
 CID_146790151_JID_1617_Energie_anion
 ------------------------------------
 Structure from the checkpoint file:  "JID_1617.chk"
 Charge = -1 Multiplicity = 2

                         Standard orientation:
 ---------------------------------------------------------------------
 Center     Atomic      Atomic             Coordinates (Angstroms)
 Number     Number       Type             X           Y           Z
 ---------------------------------------------------------------------
      1          6           0        2.441408    1.591308    0.394906
      2          6           0        1.029317    1.013981    0.543444
      3          6           0        0.092056    1.517606   -0.531988
      4          6           0       -1.072463    0.899490   -0.772860
      5          6           0       -1.443473   -0.306677   -0.015238
      6          6           0       -0.497982   -0.957475    0.698169
      7          6           0        0.955634   -0.530701    0.637953
      8          6           0        1.641611   -1.294136   -0.504026
      9          8           0        3.059561   -1.196099   -0.367895
     10          7           0       -2.765256   -0.767860   -0.152195
     11          6           0       -3.850346    0.173483    0.120441
     12          1           0        3.097016    1.238422    1.196618
     13          1           0        2.403592    2.686952    0.436638
     14          1           0        2.900470    1.294542   -0.550801
     15          1           0        0.621868    1.377236    1.503809
     16          1           0        0.374828    2.405000   -1.094664
     17          1           0       -1.754152    1.254973   -1.540447
     18          1           0       -0.747572   -1.874187    1.230296
     19          1           0        1.463901   -0.831860    1.562505
     20          1           0        1.322616   -2.347043   -0.456383
     21          1           0        1.298735   -0.890052   -1.468351
     22          1           0        3.459398   -1.645476   -1.127429
     23          1           0       -2.897702   -1.632074    0.364564
     24          1           0       -3.775004    1.033581   -0.550010
     25          1           0       -4.806283   -0.320223   -0.078161
     26          1           0       -3.855972    0.552751    1.155542
 ---------------------------------------------------------------------

 SCF Done:  E(UB3LYP) =  -482.089092132     A.U. after   33 cycles
 SCF Done:  E(UB3LYP) =  -482.089092132     a.u. after    1 cycles

 The electronic state is 2-A.
 Alpha  occ. eigenvalues --  -19.01111 -14.20308 -10.09774 -10.08677 -10.08238
 Alpha  occ. eigenvalues --  -10.06669 -10.06331 -10.05531 -10.05405 -10.04776
 Alpha  occ. eigenvalues --  -10.03754  -0.91080  -0.81276  -0.72840  -0.64854
 Alpha  occ. eigenvalues --   -0.64440  -0.59435  -0.55060  -0.53314  -0.48591
 Alpha  occ. eigenvalues --   -0.46361  -0.40898  -0.40320  -0.38265  -0.35884
 Alpha  occ. eigenvalues --   -0.34624  -0.33255  -0.31575  -0.30950  -0.30221
 Alpha  occ. eigenvalues --   -0.29231  -0.28626  -0.27039  -0.26017  -0.25597
 Alpha  occ. eigenvalues --   -0.22900  -0.21834  -0.20664  -0.19907  -0.16376
 Alpha  occ. eigenvalues --   -0.13982  -0.08655   0.04703
 Alpha virt. eigenvalues --    0.06470   0.07594   0.07908   0.08421   0.09223
 Alpha virt. eigenvalues --    0.09513   0.10384   0.11089   0.11567   0.11993
 Alpha virt. eigenvalues --    0.12272   0.13149   0.14128   0.14734   0.15130

  Beta  occ. eigenvalues --  -19.01079 -14.20303 -10.09734 -10.08672 -10.08185
  Beta  occ. eigenvalues --  -10.06675 -10.06330 -10.05460 -10.05359 -10.04760
  Beta  occ. eigenvalues --  -10.03659  -0.91018  -0.81233  -0.72757  -0.64788
  Beta  occ. eigenvalues --   -0.64316  -0.59364  -0.54933  -0.53224  -0.48454
  Beta  occ. eigenvalues --   -0.46309  -0.40797  -0.40241  -0.38186  -0.35824
  Beta  occ. eigenvalues --   -0.34548  -0.33177  -0.31524  -0.30891  -0.30185
  Beta  occ. eigenvalues --   -0.29164  -0.28571  -0.26993  -0.25967  -0.25526
  Beta  occ. eigenvalues --   -0.22825  -0.21747  -0.20524  -0.19861  -0.16338
  Beta  occ. eigenvalues --   -0.13794  -0.08315
  Beta virt. eigenvalues --    0.07036   0.07669   0.08212   0.08468   0.08750
  Beta virt. eigenvalues --    0.09656   0.10045   0.10735   0.11311   0.11780
  Beta virt. eigenvalues --    0.12295   0.12776   0.13320   0.14274   0.14980

 Mulliken charges and spin densities:
               1          2
     1  C    0.364746  -1.078224
     2  C   -0.930384   1.152921
     3  C   -0.831096   0.149872
     4  C    0.808236  -0.609040
     5  C    1.793317  -2.390353
     6  C   -2.581500   2.727343
     7  C    1.011140  -0.635960
     8  C    0.745769  -1.453709
     9  O   -0.342088   0.066392
    10  N   -0.285676   0.219289
    11  C    1.029684  -1.439147
    12  H    0.017934   0.124742
    13  H   -0.017598   0.127233
    14  H    0.104771   0.081629
    15  H   -0.015521   0.177141
    16  H   -0.128810   0.286810
    17  H   -0.060387   0.214128
    18  H   -0.463986   0.604766
    19  H    0.235506  -0.020261
    20  H   -0.203768   0.378711
    21  H   -0.076056   0.250481
    22  H   -0.099426   0.350067
    23  H   -0.052376   0.277408
    24  H   -0.168789   0.304453
    25  H   -0.634937   0.782226
    26  H   -0.218706   0.351083
 Sum of Mulliken charges =  -1.00000   1.00000

 Dipole moment (field-independent basis, Debye):
    X=              3.1202    Y=              2.3787    Z=              0.8309  Tot=              4.0106
 Quadrupole moment (field-independent basis, Debye-Ang):
   XX=           -145.8918   YY=           -102.2683   ZZ=            -93.4975
   XY=             -0.0395   XZ=              2.7607   YZ=             -1.9962

 Summary of Natural Population Analysis:

                                       Natural Population
                Natural  -----------------------------------------------
    Atom  No    Charge         Core      Valence    Rydberg      Total
 -----------------------------------------------------------------------
      C    1   -0.28043      0.99965     2.27562    0.00516     3.28043
      C    2   -0.12574      0.99958     2.11635    0.00981     3.12574
      C    3   -0.06229      0.99953     2.05284    0.00992     3.06229
      C    4   -0.11253      0.99949     2.10348    0.00956     3.11253
      C    5    0.07330      0.99944     1.91480    0.01246     2.92670
      C    6   -0.11082      0.99948     2.10026    0.01107     3.11082
      C    7   -0.12605      0.99958     2.11287    0.01361     3.12605
      C    8   -0.00849      0.99955     1.99604    0.01290     3.00849
      O    9   -0.37466      0.99989     3.36779    0.00697     4.37466
      N   10   -0.32209      0.99970     2.80924    0.01315     3.82209
      C   11   -0.17520      0.99964     2.16748    0.00808     3.17520
      H   12    0.09999      0.00000     0.39904    0.00097     0.40001
      H   13    0.09093      0.00000     0.40810    0.00097     0.40907
      H   14    0.10477      0.00000     0.39396    0.00127     0.39523
      H   15    0.10137      0.00000     0.39684    0.00180     0.39863
      H   16    0.09313      0.00000     0.40586    0.00101     0.40687
      H   17    0.09980      0.00000     0.39882    0.00138     0.40020
      H   18    0.09406      0.00000     0.40472    0.00122     0.40594
      H   19    0.10252      0.00000     0.39562    0.00186     0.39748
      H   20    0.07862      0.00000     0.41976    0.00163     0.42138
      H   21    0.08151      0.00000     0.41670    0.00179     0.41849
      H   22    0.22889      0.00000     0.26663    0.00447     0.27111
      H   23    0.17763      0.00000     0.31880    0.00357     0.32237
      H   24    0.09318      0.00000     0.40527    0.00156     0.40682
      H   25    0.09684      0.00000     0.40050    0.00266     0.40316
      H   26    0.08177      0.00000     0.41636    0.00187     0.41823
 =======================================================================
   * Total *    0.00000     10.99554    30.86374    0.14072    42.00000

 Normal termination of Gaussian 16 at Tue Dec  8 20:09:51 2020.
